

     ************************************************************************
     *************** Dalton - An Electronic Structure Program ***************
     ************************************************************************

    This is output from DALTON release Dalton2017.alpha (2016)
         ( Web site: http://daltonprogram.org )

   ----------------------------------------------------------------------------

    NOTE:
     
    Dalton is an experimental code for the evaluation of molecular
    properties using (MC)SCF, DFT, CI, and CC wave functions.
    The authors accept no responsibility for the performance of
    the code or for the correctness of the results.
     
    The code (in whole or part) is provided under a licence and
    is not to be reproduced for further distribution without
    the written permission of the authors or their representatives.
     
    See the home page "http://daltonprogram.org" for further information.
     
    If results obtained with this code are published,
    the appropriate citations would be both of:
     
       K. Aidas, C. Angeli, K. L. Bak, V. Bakken, R. Bast,
       L. Boman, O. Christiansen, R. Cimiraglia, S. Coriani,
       P. Dahle, E. K. Dalskov, U. Ekstroem,
       T. Enevoldsen, J. J. Eriksen, P. Ettenhuber, B. Fernandez,
       L. Ferrighi, H. Fliegl, L. Frediani, K. Hald, A. Halkier,
       C. Haettig, H. Heiberg, T. Helgaker, A. C. Hennum,
       H. Hettema, E. Hjertenaes, S. Hoest, I.-M. Hoeyvik,
       M. F. Iozzi, B. Jansik, H. J. Aa. Jensen, D. Jonsson,
       P. Joergensen, J. Kauczor, S. Kirpekar,
       T. Kjaergaard, W. Klopper, S. Knecht, R. Kobayashi, H. Koch,
       J. Kongsted, A. Krapp, K. Kristensen, A. Ligabue,
       O. B. Lutnaes, J. I. Melo, K. V. Mikkelsen, R. H. Myhre,
       C. Neiss, C. B. Nielsen, P. Norman, J. Olsen,
       J. M. H. Olsen, A. Osted, M. J. Packer, F. Pawlowski,
       T. B. Pedersen, P. F. Provasi, S. Reine, Z. Rinkevicius,
       T. A. Ruden, K. Ruud, V. Rybkin, P. Salek, C. C. M. Samson,
       A. Sanchez de Meras, T. Saue, S. P. A. Sauer,
       B. Schimmelpfennig, K. Sneskov, A. H. Steindal,
       K. O. Sylvester-Hvid, P. R. Taylor, A. M. Teale,
       E. I. Tellgren, D. P. Tew, A. J. Thorvaldsen, L. Thoegersen,
       O. Vahtras, M. A. Watson, D. J. D. Wilson, M. Ziolkowski
       and H. Agren,
       "The Dalton quantum chemistry program system",
       WIREs Comput. Mol. Sci. 2014, 4:269–284 (doi: 10.1002/wcms.1172)
     
    and
     
       Dalton, a Molecular Electronic Structure Program,
       Release Dalton2017.alpha (2016), see http://daltonprogram.org
   ----------------------------------------------------------------------------

    Authors in alphabetical order (major contribution(s) in parenthesis):

  Kestutis Aidas,           Vilnius University,           Lithuania   (QM/MM)
  Celestino Angeli,         University of Ferrara,        Italy       (NEVPT2)
  Keld L. Bak,              UNI-C,                        Denmark     (AOSOPPA, non-adiabatic coupling, magnetic properties)
  Vebjoern Bakken,          University of Oslo,           Norway      (DALTON; geometry optimizer, symmetry detection)
  Radovan Bast,             UiT The Arctic U. of Norway,  Norway      (DALTON installation and execution frameworks)
  Pablo Baudin,             University of Valencia,       Spain       (Cholesky excitation energies)
  Linus Boman,              NTNU,                         Norway      (Cholesky decomposition and subsystems)
  Ove Christiansen,         Aarhus University,            Denmark     (CC module)
  Renzo Cimiraglia,         University of Ferrara,        Italy       (NEVPT2)
  Sonia Coriani,            University of Trieste,        Italy       (CC module, MCD in RESPONS)
  Janusz Cukras,            University of Trieste,        Italy       (MChD in RESPONS)
  Paal Dahle,               University of Oslo,           Norway      (Parallelization)
  Erik K. Dalskov,          UNI-C,                        Denmark     (SOPPA)
  Thomas Enevoldsen,        Univ. of Southern Denmark,    Denmark     (SOPPA)
  Janus J. Eriksen,         Aarhus University,            Denmark     (Polarizable embedding model, TDA)
  Rasmus Faber,             University of Copenhagen,     Denmark     (Vib.avg. NMR with SOPPA, parallel AO-SOPPA)
  Berta Fernandez,          U. of Santiago de Compostela, Spain       (doublet spin, ESR in RESPONS)
  Lara Ferrighi,            Aarhus University,            Denmark     (PCM Cubic response)
  Heike Fliegl,             University of Oslo,           Norway      (CCSD(R12))
  Luca Frediani,            UiT The Arctic U. of Norway,  Norway      (PCM)
  Bin Gao,                  UiT The Arctic U. of Norway,  Norway      (Gen1Int library)
  Christof Haettig,         Ruhr-University Bochum,       Germany     (CC module)
  Kasper Hald,              Aarhus University,            Denmark     (CC module)
  Asger Halkier,            Aarhus University,            Denmark     (CC module)
  Frederik Beyer Hansen,    University of Copenhagen,     Denmark     (Parallel AO-SOPPA)
  Erik D. Hedegaard,        Univ. of Southern Denmark,    Denmark     (Polarizable embedding model, QM/MM)
  Hanne Heiberg,            University of Oslo,           Norway      (geometry analysis, selected one-electron integrals)
  Trygve Helgaker,          University of Oslo,           Norway      (DALTON; ABACUS, ERI, DFT modules, London, and much more)
  Alf Christian Hennum,     University of Oslo,           Norway      (Parity violation)
  Hinne Hettema,            University of Auckland,       New Zealand (quadratic response in RESPONS; SIRIUS supersymmetry)
  Eirik Hjertenaes,         NTNU,                         Norway      (Cholesky decomposition)
  Pi A. B. Haase,           University of Copenhagen,     Denmark     (Triplet AO-SOPPA)
  Maria Francesca Iozzi,    University of Oslo,           Norway      (RPA)
  Brano Jansik              Technical Univ. of Ostrava    Czech Rep.  (DFT cubic response)
  Hans Joergen Aa. Jensen,  Univ. of Southern Denmark,    Denmark     (DALTON; SIRIUS, RESPONS, ABACUS modules, London, and much more)
  Dan Jonsson,              UiT The Arctic U. of Norway,  Norway      (cubic response in RESPONS module)
  Poul Joergensen,          Aarhus University,            Denmark     (RESPONS, ABACUS, and CC modules)
  Maciej Kaminski,          University of Warsaw,         Poland      (CPPh in RESPONS)
  Joanna Kauczor,           Linkoeping University,        Sweden      (Complex polarization propagator (CPP) module)
  Sheela Kirpekar,          Univ. of Southern Denmark,    Denmark     (Mass-velocity & Darwin integrals)
  Wim Klopper,              KIT Karlsruhe,                Germany     (R12 code in CC, SIRIUS, and ABACUS modules)
  Stefan Knecht,            ETH Zurich,                   Switzerland (Parallel CI and MCSCF)
  Rika Kobayashi,           Australian National Univ.,    Australia   (DIIS in CC, London in MCSCF)
  Henrik Koch,              NTNU,                         Norway      (CC module, Cholesky decomposition)
  Jacob Kongsted,           Univ. of Southern Denmark,    Denmark     (Polarizable embedding model, QM/MM)
  Andrea Ligabue,           University of Modena,         Italy       (CTOCD, AOSOPPA)
  Nanna H. List             Univ. of Southern Denmark,    Denmark     (Polarizable embedding model)
  Ola B. Lutnaes,           University of Oslo,           Norway      (DFT Hessian)
  Juan I. Melo,             University of Buenos Aires,   Argentina   (LRESC, Relativistic Effects on NMR Shieldings)
  Kurt V. Mikkelsen,        University of Copenhagen,     Denmark     (MC-SCRF and QM/MM)
  Rolf H. Myhre,            NTNU,                         Norway      (Cholesky, subsystems and ECC2)
  Christian Neiss,          Univ. Erlangen-Nuernberg,     Germany     (CCSD(R12))
  Christian B. Nielsen,     University of Copenhagen,     Denmark     (QM/MM)
  Patrick Norman,           Linkoeping University,        Sweden      (Cubic response and complex frequency response in RESPONS)
  Jeppe Olsen,              Aarhus University,            Denmark     (SIRIUS CI/density modules)
  Jogvan Magnus H. Olsen,   Univ. of Southern Denmark,    Denmark     (Polarizable embedding model, QM/MM)
  Anders Osted,             Copenhagen University,        Denmark     (QM/MM)
  Martin J. Packer,         University of Sheffield,      UK          (SOPPA)
  Filip Pawlowski,          Kazimierz Wielki University,  Poland      (CC3)
  Morten N. Pedersen,       Univ. of Southern Denmark,    Denmark     (Polarizable embedding model)
  Thomas B. Pedersen,       University of Oslo,           Norway      (Cholesky decomposition)
  Patricio F. Provasi,      University of Northeastern,   Argentina   (Analysis of coupling constants in localized orbitals)
  Zilvinas Rinkevicius,     KTH Stockholm,                Sweden      (open-shell DFT, ESR)
  Elias Rudberg,            KTH Stockholm,                Sweden      (DFT grid and basis info)
  Torgeir A. Ruden,         University of Oslo,           Norway      (Numerical derivatives in ABACUS)
  Kenneth Ruud,             UiT The Arctic U. of Norway,  Norway      (DALTON; ABACUS magnetic properties and much more)
  Pawel Salek,              KTH Stockholm,                Sweden      (DALTON; DFT code)
  Claire C. M. Samson       University of Karlsruhe       Germany     (Boys localization, r12 integrals in ERI)
  Alfredo Sanchez de Meras, University of Valencia,       Spain       (CC module, Cholesky decomposition)
  Trond Saue,               Paul Sabatier University,     France      (direct Fock matrix construction)
  Stephan P. A. Sauer,      University of Copenhagen,     Denmark     (SOPPA(CCSD), SOPPA prop., AOSOPPA, vibrational g-factors)
  Bernd Schimmelpfennig,    Forschungszentrum Karlsruhe,  Germany     (AMFI module)
  Kristian Sneskov,         Aarhus University,            Denmark     (Polarizable embedding model, QM/MM)
  Arnfinn H. Steindal,      UiT The Arctic U. of Norway,  Norway      (parallel QM/MM, Polarizable embedding model)
  Casper Steinmann,         Univ. of Southern Denmark,    Denmark     (QFIT, Polarizable embedding model)
  K. O. Sylvester-Hvid,     University of Copenhagen,     Denmark     (MC-SCRF)
  Peter R. Taylor,          VLSCI/Univ. of Melbourne,     Australia   (Symmetry handling ABACUS, integral transformation)
  Andrew M. Teale,          University of Nottingham,     England     (DFT-AC, DFT-D)
  David P. Tew,             University of Bristol,        England     (CCSD(R12))
  Olav Vahtras,             KTH Stockholm,                Sweden      (triplet response, spin-orbit, ESR, TDDFT, open-shell DFT)
  David J. Wilson,          La Trobe University,          Australia   (DFT Hessian and DFT magnetizabilities)
  Hans Agren,               KTH Stockholm,                Sweden      (SIRIUS module, RESPONS, MC-SCRF solvation model)
 --------------------------------------------------------------------------------

     Date and time (Linux)  : Thu Dec 20 05:47:38 2018
     Host name              : s71p34.deic.sdu.dk                      

 * Work memory size             :  2048000000 = 15.259 gigabytes.

 * Directories for basis set searches:
   1) /work/sdujk/reinholdt/ECP-Sonia/mixed-basis_small
   2) /gpfs/gss1/work/sdujk/reinholdt/Programs/dalton-private/pe-cvs/basis


Compilation information
-----------------------

 Who compiled             | reinholdt
 Host                     | fe1.deic.sdu.dk
 System                   | Linux-3.10.0-327.36.3.el7.x86_64
 CMake generator          | Unix Makefiles
 Processor                | x86_64
 64-bit integers          | ON
 MPI                      | OFF
 Fortran compiler         | /opt/sys/apps/intel/2018.05/compilers_and_librarie
                          | s_2018.3.222/linux/bin/intel64/ifort
 Fortran compiler version | ifort (IFORT) 18.0.3 20180410
 C compiler               | /opt/sys/apps/intel/2018.05/compilers_and_librarie
                          | s_2018.3.222/linux/bin/intel64/icc
 C compiler version       | icc (ICC) 18.0.3 20180410
 C++ compiler             | /opt/sys/apps/intel/2018.05/compilers_and_librarie
                          | s_2018.3.222/linux/bin/intel64/icpc
 C++ compiler version     | icpc (ICC) 18.0.3 20180410
 Static linking           | OFF
 Last Git revision        | 252a54078a0f9a1f0a59b3262fa4a57829155fe9
 Git branch               | pe/cc-cvs
 Configuration time       | 2018-12-09 12:09:40.474621


   Content of the .dal input file
 ----------------------------------

**DALTON
.RUN WAVE FUNCTIONS
.PEQM
**INTEGRALS
.DIPLEN
**WAVE FUNCTIONS
.CC
*PRINT
!To check the origin of excit
.PRINTL
   0 11
*SCF INP
.THRESH
1.0D-7
*CC INP
.CCSD
.THRLEQ
 1.0D-9
.THRENR
 1.0D-10
.FROIMP
4
0
.PRINT
 1
.MAX IT
 1200
.MAXRED
 1200
.MXLRV
1199
*PECC
*CCEXCI
.NCCEXC
 15
.CVSEPARA
1
1
*CCLRSD
.DIPOLE
**END OF DALTON INPUT


   Content of the .mol file
 ----------------------------

ATOMBASIS


Atomtypes=4 Charge=1 Nosymm Angstrom
   7.00000    1    Basis=6-311++G**
N          0.000000        0.000000        0.000000
   1.00000    4    Basis=6-311++G**
H         -0.986798        0.158192        0.209252
H          0.099905        0.008150       -1.036203
H          0.306136       -0.830246        0.456604
H          0.602571        0.778264        0.308939
   8.00000    4    Basis=6-31G**
O         -2.851387        0.280971       -0.395421
O          1.557405        2.243639        0.898477
O          0.027701        0.430319       -2.700204
O          2.086789       -1.795203        1.452611
   1.00000    8    Basis=6-31G**
H         -3.332311       -0.400096        0.142368
H         -3.514301        1.053183       -0.434516
H          1.432841        3.232280        1.052153
H          2.267997        2.159980        0.184844
H          0.867235        0.355314       -3.217866
H         -0.496919       -0.303537       -3.061090
H          1.766803       -2.435519        2.169424
H          2.362806       -0.979235        1.975913


       *******************************************************************
       *********** Output from DALTON general input processing ***********
       *******************************************************************

 --------------------------------------------------------------------------------
   Overall default print level:    0
   Print level for DALTON.STAT:    1

    HERMIT 1- and 2-electron integral sections will be executed
    "Old" integral transformation used (limited to max 255 basis functions)
    Wave function sections will be executed (SIRIUS module)
    Environment is modeled using polarizable embedding scheme (PE library)
 --------------------------------------------------------------------------------


   ****************************************************************************
   *************** Output of molecule and basis set information ***************
   ****************************************************************************


    The two title cards from your ".mol" input:
    ------------------------------------------------------------------------
 1:                                                                         
 2:                                                                         
    ------------------------------------------------------------------------

  Coordinates are entered in Angstrom and converted to atomic units.
          - Conversion factor : 1 bohr = 0.52917721 A

  Atomic type no.    1
  --------------------
  Nuclear charge:   7.00000
  Number of symmetry independent centers:    1
  Number of basis sets to read;    2
  The basis set is "6-311++G**" from the basis set library.
  Basis set file used for this atomic type with Z =   7 :
     "/gpfs/gss1/work/sdujk/reinholdt/Programs/dalton-private/pe-cvs/basis/6-311++G**"

  Info about the basis set file: your basis has no documentation.
  Basis set: 6-311++G**                                                                      

  Atomic type no.    2
  --------------------
  Nuclear charge:   1.00000
  Number of symmetry independent centers:    4
  Number of basis sets to read;    2
  The basis set is "6-311++G**" from the basis set library.
  Basis set file used for this atomic type with Z =   1 :
     "/gpfs/gss1/work/sdujk/reinholdt/Programs/dalton-private/pe-cvs/basis/6-311++G**"

  Info about the basis set file: your basis has no documentation.
  Basis set: 6-311++G**                                                                      

  Atomic type no.    3
  --------------------
  Nuclear charge:   8.00000
  Number of symmetry independent centers:    4
  Number of basis sets to read;    2
  The basis set is "6-31G**" from the basis set library.
  Basis set file used for this atomic type with Z =   8 :
     "/gpfs/gss1/work/sdujk/reinholdt/Programs/dalton-private/pe-cvs/basis/6-31G**"

  Info about the basis set file: your basis has no documentation.
  Basis set: 6-31G**                                                                         

  Atomic type no.    4
  --------------------
  Nuclear charge:   1.00000
  Number of symmetry independent centers:    8
  Number of basis sets to read;    2
  The basis set is "6-31G**" from the basis set library.
  Basis set file used for this atomic type with Z =   1 :
     "/gpfs/gss1/work/sdujk/reinholdt/Programs/dalton-private/pe-cvs/basis/6-31G**"

  Info about the basis set file: your basis has no documentation.
  Basis set: 6-31G**                                                                         


                         SYMGRP: Point group information
                         -------------------------------

@    Point group: C1 


                                 Isotopic Masses
                                 ---------------

                           N          14.003074
                           H           1.007825
                           H           1.007825
                           H           1.007825
                           H           1.007825
                           O          15.994915
                           O          15.994915
                           O          15.994915
                           O          15.994915
                           H           1.007825
                           H           1.007825
                           H           1.007825
                           H           1.007825
                           H           1.007825
                           H           1.007825
                           H           1.007825
                           H           1.007825

                       Total mass:    90.076634 amu
                       Natural abundance:  98.500 %

 Center-of-mass coordinates (a.u.):    0.304421    0.448288   -0.276269


  Atoms and basis sets
  --------------------

  Number of atom types :    4
  Total number of atoms:   17

  label    atoms   charge   prim   cont     basis
  ----------------------------------------------------------------------
  N           1    7.0000    35    22      [12s6p1d|5s4p1d]                                   
  H           4    1.0000     9     7      [6s1p|4s1p]                                        
  O           4    8.0000    27    14      [10s4p1d|3s2p1d]                                   
  H           8    1.0000     7     5      [4s1p|2s1p]                                        
  ----------------------------------------------------------------------
  total:     17   51.0000   235   146
  ----------------------------------------------------------------------
  Spherical harmonic basis used.

  Threshold for neglecting AO integrals:  1.00D-12


  Cartesian Coordinates (a.u.)
  ----------------------------

  Total number of coordinates:   51
  N       :     1  x   0.0000000000    2  y   0.0000000000    3  z   0.0000000000
  H       :     4  x  -1.8647779607    5  y   0.2989395552    6  z   0.3954289711
  H       :     7  x   0.1887930885    8  y   0.0154012679    9  z  -1.9581398799
  H       :    10  x   0.5785131970   11  y  -1.5689375564   12  z   0.8628565076
  H       :    13  x   1.1386941609   14  y   1.4707058129   15  z   0.5838100993
  O       :    16  x  -5.3883405064   17  y   0.5309582391   18  z  -0.7472373941
  O       :    19  x   2.9430689157   20  y   4.2398632334   21  z   1.6978754596
  O       :    22  x   0.0523473034   23  y   0.8131850564   24  z  -5.1026460416
  O       :    25  x   3.9434596906   26  y  -3.3924420088   27  z   2.7450369562
  H       :    28  x  -6.2971551533   29  y  -0.7560718637   30  z   0.2690365290
  H       :    31  x  -6.6410664108   32  y   1.9902274295   33  z  -0.8211162369
  H       :    34  x   2.7076770707   35  y   6.1081239593   36  z   1.9882810116
  H       :    37  x   4.2858931823   38  y   4.0817706355   39  z   0.3493045358
  H       :    40  x   1.6388366360   41  y   0.6714461484   42  z  -6.0808854469
  H       :    43  x  -0.9390408163   44  y  -0.5736017988   45  z  -5.7846217440
  H       :    46  x   3.3387737868   47  y  -4.6024638822   48  z   4.0996172090
  H       :    49  x   4.4650562265   50  y  -1.8504859620   51  z   3.7339344168

  Max    interatomic separation is    6.8441 Angstrom (   12.9335 Bohr)
  between atoms   16 and   11, "H     " and "H     ".

  Min HX interatomic separation is    0.9716 Angstrom (    1.8361 Bohr)

  Min YX interatomic separation is    2.7344 Angstrom (    5.1673 Bohr)


  Bond distances (Angstrom):
  --------------------------

                  atom 1     atom 2       distance
                  ------     ------       --------
  bond distance:  H          N            1.021069
  bond distance:  H          N            1.041040
  bond distance:  H          N            0.995748
  bond distance:  H          N            1.031615
  bond distance:  H          O            0.992148
  bond distance:  H          O            1.018477
  bond distance:  H          O            1.008238
  bond distance:  H          O            1.010550
  bond distance:  H          O            0.989150
  bond distance:  H          O            0.971602
  bond distance:  H          O            1.013023
  bond distance:  H          O            1.007886


  Bond angles (degrees):
  ----------------------

                  atom 1     atom 2     atom 3         angle
                  ------     ------     ------         -----
  bond angle:     H          N          H            107.188
  bond angle:     H          N          H            109.410
  bond angle:     H          N          H            112.721
  bond angle:     H          N          H            115.686
  bond angle:     H          N          H            103.658
  bond angle:     H          N          H            108.187
  bond angle:     H          O          H            103.048
  bond angle:     H          O          H            106.003
  bond angle:     H          O          H            101.924
  bond angle:     H          O          H            103.346




 Principal moments of inertia (u*A**2) and principal axes
 --------------------------------------------------------

   IA     278.928570          0.813318   -0.168257    0.556959
   IB     471.571523          0.378648    0.879879   -0.287122
   IC     508.953087         -0.441746    0.444413    0.779332


 Rotational constants
 --------------------

               A                   B                   C

           1811.8582           1071.6911            992.9776 MHz
            0.060437            0.035748            0.033122 cm-1


@  Nuclear repulsion energy :  197.867445360576 Hartree

  Reading potential input file for polarizable embedding calculation
 
    .------------------------------------------------.
    | Information from polarizable embedding library |
    `------------------------------------------------´

      Number of classical sites:    177

      Multipole moments upto 0th order.

      Dipole-dipole polarizabilities.

      Iterative solver for induced moments will be used
      with convergence threshold: 1.0E-08
      Total charge of classical region:    0.0000
 


                     .---------------------------------------.
                     | Starting in Integral Section (HERMIT) |
                     `---------------------------------------'



 ***************************************************************************************
 ****************** Output from **INTEGRALS input processing (HERMIT) ******************
 ***************************************************************************************



    *************************************************************************
    ****************** Output from HERMIT input processing ******************
    *************************************************************************


 Default print level:        1

 * Nuclear model: Point charge

 Calculation of one- and two-electron Hamiltonian integrals.

 The following one-electron property integrals are calculated as requested:
          - overlap integrals
          - dipole length integrals

 Center of mass  (bohr):      0.304421072511      0.448288259817     -0.276268787024
 Operator center (bohr):      0.000000000000      0.000000000000      0.000000000000
 Gauge origin    (bohr):      0.000000000000      0.000000000000      0.000000000000
 Dipole origin   (bohr):      0.000000000000      0.000000000000      0.000000000000


     ************************************************************************
     ************************** Output from HERINT **************************
     ************************************************************************



                      Nuclear contribution to dipole moments
                      --------------------------------------

                 au               Debye          C m (/(10**-30)

      x     15.00448023        38.13758224       127.21328111
      y     22.81756991        57.99647406       193.45541394
      z    -13.61826219       -34.61416763      -115.46043507



 Threshold for neglecting two-electron integrals:  1.00D-12
 HERMIT - Number of two-electron integrals written:    30373364 ( 52.7% )
 HERMIT - Megabytes written:                            347.794

  Time used in TWOINT     is       6.62 seconds
  Total CPU  time used in HERMIT:   7.04 seconds
  Total wall time used in HERMIT:   6.76 seconds


                        .----------------------------------.
                        | End of Integral Section (HERMIT) |
                        `----------------------------------'



                   .--------------------------------------------.
                   | Starting in Wave Function Section (SIRIUS) |
                   `--------------------------------------------'

 INPUT: SIMPLE =  F
NCCEXCI for singlet:   15
 CCSD_INPUT: core-val requested
 Requested number of core orbs per sym
                     1
 Indices of requested core orbs
                     1

 *** Output from Huckel module :

     Using EWMO model:          T
     Using EHT  model:          F
     Number of Huckel orbitals each symmetry:   37

 EWMO - Energy Weighted Maximum Overlap - is a Huckel type method,
        which normally is better than Extended Huckel Theory.
 Reference: Linderberg and Ohrn, Propagators in Quantum Chemistry (Wiley, 1973)

 Huckel EWMO eigenvalues for symmetry :  1
          -20.684757     -20.684307     -20.684301     -20.684188     -15.676261
           -1.810613      -1.610149      -1.595077      -1.580492      -1.500336
           -0.832820      -0.801479      -0.775950      -0.773554      -0.760814
           -0.755893      -0.739108      -0.690751      -0.673016      -0.666928
           -0.648013      -0.613096      -0.582336      -0.581044      -0.555657
           -0.262605      -0.247434      -0.244364      -0.236639      -0.185256
           -0.184603      -0.183498      -0.176039      -0.173574      -0.144605
           -0.139775      -0.136468

 **********************************************************************
 *SIRIUS* a direct, restricted step, second order MCSCF program       *
 **********************************************************************

 
     Date and time (Linux)  : Thu Dec 20 05:47:46 2018
     Host name              : s71p34.deic.sdu.dk                      

 Title lines from ".mol" input file:
                                                                             
                                                                             

 Print level on unit LUPRI =   2 is   0
 Print level on unit LUW4  =   2 is  11

@    (Integral direct) CC calculation.

@    This is a combination run starting with
@              a restricted, closed shell Hartree-Fock calculation


 Initial molecular orbitals are obtained according to
 ".MOSTART EWMO  " input option

@    QM part is embedded in an environment :

@         Model: PE

     Wave function specification
     ============================

     For the specification of the Coupled Cluster: see later.


     Wave function environment is modeled using the
     polarizable embedding model (PE library).

@    Wave function type        --- PE-CC ---
@    Number of closed shell electrons          50
@    Number of electrons in active shells       0
@    Total charge of the molecule               1

@    Spin multiplicity and 2 M_S                1         0
@    Total number of symmetries                 1 (point group: C1 )
@    Reference state symmetry                   1 (irrep name : A  )

     Orbital specifications
     ======================
@    Abelian symmetry species          All |    1
@                                          |  A  
                                       --- |  ---
@    Occupied SCF orbitals              25 |   25
@    Secondary orbitals                121 |  121
@    Total number of orbitals          146 |  146
@    Number of basis functions         146 |  146

     Optimization information
     ========================
@    Number of configurations                 1
@    Number of orbital rotations           3025
     ------------------------------------------
@    Total number of variables             3026

     Maximum number of Fock   iterations      0
     Maximum number of DIIS   iterations     60
     Maximum number of QC-SCF iterations     60
     Threshold for SCF convergence     1.00D-07


 Changes of defaults for CC:
 ---------------------------


 -Implicit frozen core calculation
 -Excitation energies calculated
 -One-photon absorption strengths will be calculated
 -Oscillator strengths calculated
  
* Read MO coefficients from SIRIUS.RST with label "NEWORB  " and header info: 20Dec18  REORTHO 


 ***********************************************
 ***** DIIS acceleration of SCF iterations *****
 ***********************************************

 C1-DIIS algorithm; max error vectors =    8
 -----------------------------------------------------------------------------

 *** DIIS iteration number    1
 RDSUPM called. NFMAT, ISYMDM(1:NFMAT)                     1
                     1

Calculating AOSUPINT
     (Precalculated AO two-electron integrals are transformed to P-supermatrix elements.
      Threshold for discarding integrals :  1.00D-12 )
  CPU  time used in FORMSUP    is   2.63 seconds
  WALL time used in FORMSUP    is   5.11 seconds

 ITDIIS, energy, error norm, change in energy, scr.thr., difden:
@ DIIS iter.   1    -360.114114050        3.81011D+00   -3.60D+02  -20    F

 (DIIS_RED) Control Parameters C2DIIS =         F NEVC =    1


 (DIIS_RED) B matrix:

               Column   1
       1      14.51693646
    ==== End of matrix output ====

 DIIS C vector; C2DIIS = F, LAMBDA = -1.45D+01
    1.000000
* Read MO coefficients from SIRIUS.RST with label "NEWORB  " and header info: 20Dec18  DIIS   1
      Virial theorem: -V/T =      2.006077
@    MULPOP   N      -0.15; H       0.18; H       0.21; H       0.20; H       0.20; O      -0.49; O      -0.49; O      -0.49; O      -0.53; H       0.30; 
@             H       0.28; H       0.28; H       0.30; H       0.30; H       0.31; H       0.30; H       0.30; 
   1  Level shift: doubly occupied orbital energies shifted by -2.00D-01

 DIIS Fock eigenvalues in symmetry 1
      -20.83737      -20.83650      -20.83162      -20.82120      -16.48291
       -1.74243       -1.63402       -1.62753       -1.61738       -1.60780
       -1.22767       -1.21242       -1.19475       -1.00302       -0.99820
       -0.99570       -0.97549       -0.88430       -0.87544       -0.86876
       -0.86161       -0.83807       -0.83241       -0.82815       -0.82133
       -0.02976        0.02238        0.02874        0.03197        0.09920
        0.10997        0.11702        0.14285        0.16944        0.17799
        0.18316        0.19834        0.22203        0.22768        0.24260
        0.24635        0.26758        0.27163        0.27723        0.31717
        0.46887        0.48191        0.49946        0.72743        0.74303
        0.74897        0.75650        0.83601        0.88231        0.90823
        0.92201        0.94890        0.97256        0.98642        1.00007
        1.02119        1.03752        1.04946        1.08346        1.10004
        1.11042        1.16172        1.18412        1.19828        1.20327
        1.22196        1.23281        1.26004        1.29930        1.34598
        1.43654        1.46791        1.51319        1.53631        1.58744
        1.61510        1.63384        1.65064        1.65621        1.67396
        1.67724        1.69637        1.71066        1.71594        1.72102
        1.73664        1.74970        1.77024        1.84557        1.98305
        2.06015        2.11810        2.18116        2.21196        2.29330
        2.37038        2.37737        2.38842        2.39363        2.41599
        2.42491        2.44519        2.47944        2.55418        2.56947
        2.59765        2.62060        2.63810        2.64272        2.67801
        2.69759        2.70681        2.75036        2.77468        2.78783
        2.79618        2.80662        2.83314        2.83893        2.87478
        2.88570        3.07712        3.08677        3.14489        3.15348
        3.16253        3.19068        3.19220        3.23546        3.52221
        3.55539        3.57899        3.63412        3.73529        3.76092
        3.78534        3.81087        4.75592        4.85186        4.90158
       36.42556
 Time used in FCKEIG, thr_jaco:   9.46D-02  3.30D-02  1.73D-04
 CPU and wall times used in FCKEIG, THR_FCKEIG:   9.47D-02  3.30D-02  3.81D-02
 -----------------------------------------------------------------------------

 *** DIIS iteration number    2
 RDSUPM called. NFMAT, ISYMDM(1:NFMAT)                     1
                     1

 ITDIIS, energy, error norm, change in energy, scr.thr., difden:
@ DIIS iter.   2    -361.030632464        1.12778D+00   -9.17D-01  -20    F

 (DIIS_RED) Control Parameters C2DIIS =         F NEVC =    2


 (DIIS_RED) B matrix:

               Column   1     Column   2
       1      14.51693646
       2       0.90464289     1.27188193
    ==== End of matrix output ====

 DIIS C vector; C2DIIS = F, LAMBDA = -1.26D+00
    0.026270    0.973730
* Read MO coefficients from SIRIUS.RST with label "NEWORB  " and header info: 20Dec18  DIIS   2
      Virial theorem: -V/T =      2.003361
@    MULPOP   N      -0.84; H       0.38; H       0.40; H       0.36; H       0.39; O      -0.67; O      -0.64; O      -0.61; O      -0.66; H       0.35; 
@             H       0.38; H       0.36; H       0.36; H       0.38; H       0.33; H       0.37; H       0.34; 
   2  Level shift: doubly occupied orbital energies shifted by -1.00D-01

 DIIS Fock eigenvalues in symmetry 1
      -20.79184      -20.78507      -20.76804      -20.76258      -15.61097
       -1.52493       -1.52365       -1.51902       -1.50306       -1.38500
       -0.89193       -0.88687       -0.87974       -0.87102       -0.86523
       -0.85189       -0.84837       -0.78411       -0.76597       -0.75676
       -0.75217       -0.71862       -0.71003       -0.69844       -0.69230
        0.00088        0.03955        0.04374        0.05262        0.14329
        0.14522        0.17458        0.18394        0.20012        0.23597
        0.24652        0.26012        0.26294        0.27689        0.28656
        0.29349        0.30286        0.32437        0.34949        0.38753
        0.54009        0.55415        0.58188        0.81305        0.89174
        0.90422        0.91280        0.92774        0.93644        0.96011
        0.97202        1.01127        1.03925        1.04691        1.07176
        1.07894        1.09876        1.10303        1.12171        1.13910
        1.15529        1.19954        1.20430        1.22097        1.23503
        1.25898        1.28644        1.29824        1.35160        1.39359
        1.52453        1.52697        1.58332        1.59765        1.66791
        1.67682        1.67844        1.70279        1.71303        1.71635
        1.72696        1.74491        1.75438        1.76607        1.77635
        1.77941        1.83001        1.85420        1.89612        2.09307
        2.17180        2.23374        2.31929        2.34716        2.39598
        2.41392        2.42623        2.43924        2.44877        2.46708
        2.49665        2.51843        2.58296        2.60228        2.61744
        2.64743        2.69660        2.73335        2.74790        2.77242
        2.81627        2.83044        2.83990        2.85555        2.86068
        2.87882        2.89238        2.91219        2.96809        2.99089
        3.02663        3.18179        3.20477        3.22733        3.25299
        3.26986        3.39700        3.43736        3.47216        3.58315
        3.60814        3.63880        3.70953        3.77002        3.79377
        3.82100        3.85029        5.16439        5.26399        5.31498
       37.17883
 Time used in FCKEIG, thr_jaco:   8.59D-02  2.40D-02  5.13D-05
 CPU and wall times used in FCKEIG, THR_FCKEIG:   8.60D-02  2.40D-02  1.13D-02
 -----------------------------------------------------------------------------

 *** DIIS iteration number    3
 RDSUPM called. NFMAT, ISYMDM(1:NFMAT)                     1
                     1

 ITDIIS, energy, error norm, change in energy, scr.thr., difden:
@ DIIS iter.   3    -361.106024721        3.75283D-01   -7.54D-02  -20    F

 (DIIS_RED) Control Parameters C2DIIS =         F NEVC =    3


 (DIIS_RED) B matrix:

               Column   1     Column   2     Column   3
       1      14.51693646
       2       0.90464289     1.27188193
       3       0.85980887    -0.05131275     0.14083748
    ==== End of matrix output ====

 DIIS C vector; C2DIIS = F, LAMBDA = -7.30D-02
   -0.058059    0.135883    0.922176
* Read MO coefficients from SIRIUS.RST with label "NEWORB  " and header info: 20Dec18  DIIS   3
      Virial theorem: -V/T =      2.004701
@    MULPOP   N      -0.69; H       0.36; H       0.39; H       0.33; H       0.38; O      -0.78; O      -0.75; O      -0.71; O      -0.76; H       0.40; 
@             H       0.44; H       0.40; H       0.40; H       0.43; H       0.37; H       0.42; H       0.39; 
   3  Level shift: doubly occupied orbital energies shifted by -5.00D-02

 DIIS Fock eigenvalues in symmetry 1
      -20.70551      -20.69192      -20.67728      -20.67408      -15.77021
       -1.45852       -1.45280       -1.44922       -1.43647       -1.38525
       -0.86659       -0.85801       -0.83220       -0.81297       -0.80491
       -0.79830       -0.78602       -0.71613       -0.69717       -0.68978
       -0.68695       -0.64469       -0.63409       -0.62443       -0.61991
        0.00405        0.04265        0.04568        0.05698        0.14626
        0.14929        0.17631        0.18876        0.20811        0.24358
        0.25300        0.26627        0.27164        0.28110        0.29191
        0.30253        0.31231        0.32532        0.34965        0.38693
        0.53991        0.55304        0.57967        0.81557        0.88710
        0.89305        0.89856        0.91984        0.94622        0.96743
        0.98243        1.02422        1.05180        1.06001        1.08495
        1.09531        1.11193        1.11688        1.13357        1.15346
        1.16104        1.21515        1.21841        1.23784        1.24937
        1.27199        1.29003        1.31371        1.36485        1.40732
        1.53567        1.54025        1.59512        1.61136        1.67815
        1.69276        1.69536        1.72110        1.72937        1.73491
        1.74445        1.76367        1.77269        1.78339        1.79150
        1.79572        1.83846        1.86468        1.90805        2.09480
        2.17487        2.23729        2.31709        2.34521        2.40468
        2.43112        2.44597        2.45498        2.46460        2.48127
        2.50879        2.53308        2.58717        2.62061        2.63605
        2.66582        2.71910        2.74014        2.75552        2.78119
        2.83117        2.84356        2.85249        2.86827        2.87041
        2.89041        2.90555        2.91051        2.96233        2.98160
        3.00915        3.19621        3.21995        3.23812        3.25273
        3.28410        3.35332        3.39890        3.42916        3.60100
        3.62787        3.65601        3.72950        3.78870        3.81412
        3.83979        3.87299        5.08402        5.18319        5.23481
       36.97612
 Time used in FCKEIG, thr_jaco:   7.83D-02  2.00D-02  1.71D-05
 CPU and wall times used in FCKEIG, THR_FCKEIG:   7.84D-02  2.00D-02  3.75D-03
 -----------------------------------------------------------------------------

 *** DIIS iteration number    4
 RDSUPM called. NFMAT, ISYMDM(1:NFMAT)                     1
                     1

 ITDIIS, energy, error norm, change in energy, scr.thr., difden:
@ DIIS iter.   4    -361.115952940        7.58652D-02   -9.93D-03  -20    F

 (DIIS_RED) Control Parameters C2DIIS =         F NEVC =    4


 (DIIS_RED) B matrix:

               Column   1     Column   2     Column   3     Column   4
       1      14.51693646
       2       0.90464289     1.27188193
       3       0.85980887    -0.05131275     0.14083748
       4       0.09164680     0.05091796     0.00968540     0.00575553
    ==== End of matrix output ====

 DIIS C vector; C2DIIS = F, LAMBDA = -3.48D-03
    0.000043   -0.044611   -0.068374    1.112942
* Read MO coefficients from SIRIUS.RST with label "NEWORB  " and header info: 20Dec18  DIIS   4
      Virial theorem: -V/T =      2.004581
@    MULPOP   N      -0.74; H       0.37; H       0.40; H       0.34; H       0.39; O      -0.80; O      -0.77; O      -0.73; O      -0.78; H       0.41; 
@             H       0.45; H       0.42; H       0.41; H       0.44; H       0.38; H       0.43; H       0.40; 
   4  Level shift: doubly occupied orbital energies shifted by -1.25D-02

 DIIS Fock eigenvalues in symmetry 1
      -20.67721      -20.66807      -20.65143      -20.65083      -15.71311
       -1.42420       -1.41945       -1.41588       -1.40243       -1.33928
       -0.82116       -0.81328       -0.78773       -0.77786       -0.76946
       -0.76343       -0.75137       -0.67965       -0.66133       -0.65343
       -0.65055       -0.60654       -0.59701       -0.58646       -0.58237
        0.00498        0.04305        0.04581        0.05738        0.14798
        0.15138        0.17772        0.19189        0.20678        0.24261
        0.25216        0.26731        0.27095        0.28243        0.29210
        0.30145        0.31203        0.32814        0.35328        0.38990
        0.54396        0.55744        0.58419        0.82026        0.89248
        0.89841        0.90209        0.92265        0.94543        0.96644
        0.98111        1.02193        1.04989        1.06081        1.08278
        1.09628        1.11062        1.11769        1.13489        1.15454
        1.16287        1.21469        1.21857        1.23702        1.24915
        1.27173        1.29166        1.31246        1.36336        1.40459
        1.53651        1.54027        1.59614        1.61294        1.68121
        1.69320        1.69463        1.72011        1.72915        1.73410
        1.74376        1.76263        1.77160        1.78296        1.79167
        1.79526        1.84111        1.86736        1.90961        2.09932
        2.17922        2.24243        2.32282        2.34959        2.40596
        2.43002        2.44417        2.45273        2.46278        2.48008
        2.50662        2.53153        2.58865        2.61865        2.63417
        2.66354        2.71660        2.74548        2.76139        2.78238
        2.82978        2.84330        2.85146        2.86663        2.87216
        2.89177        2.90470        2.91322        2.96661        2.98476
        3.01408        3.19437        3.21844        3.23844        3.25610
        3.28322        3.36221        3.40737        3.43796        3.59795
        3.62471        3.65265        3.72644        3.78699        3.81214
        3.83785        3.87089        5.09581        5.19526        5.24664
       36.99571
 Time used in FCKEIG, thr_jaco:   7.32D-02  1.90D-02  3.45D-06
 CPU and wall times used in FCKEIG, THR_FCKEIG:   7.33D-02  1.90D-02  7.59D-04
 -----------------------------------------------------------------------------

 *** DIIS iteration number    5
 RDSUPM called. NFMAT, ISYMDM(1:NFMAT)                     1
                     1

 ITDIIS, energy, error norm, change in energy, scr.thr., difden:
@ DIIS iter.   5    -361.116738308        2.59241D-02   -7.85D-04  -20    F

 (DIIS_RED) Control Parameters C2DIIS =         F NEVC =    5


 (DIIS_RED) B matrix:

               Column   1     Column   2     Column   3     Column   4     Column   5
       1      14.51693646
       2       0.90464289     1.27188193
       3       0.85980887    -0.05131275     0.14083748
       4       0.09164680     0.05091796     0.00968540     0.00575553
       5       0.01719845     0.00492363     0.00428737     0.00070656     0.00067206
    ==== End of matrix output ====

 DIIS C vector; C2DIIS = F, LAMBDA = -4.83D-04
    0.001692   -0.011288   -0.047908    0.122712    0.934792
* Read MO coefficients from SIRIUS.RST with label "NEWORB  " and header info: 20Dec18  DIIS   5
      Virial theorem: -V/T =      2.004270
@    MULPOP   N      -0.72; H       0.36; H       0.40; H       0.33; H       0.38; O      -0.82; O      -0.78; O      -0.75; O      -0.80; H       0.42; 
@             H       0.46; H       0.43; H       0.42; H       0.45; H       0.38; H       0.44; H       0.40; 

 DIIS Fock eigenvalues in symmetry 1
      -20.65973      -20.64793      -20.63244      -20.63035      -15.69756
       -1.40975       -1.40383       -1.40057       -1.38776       -1.32535
       -0.80725       -0.79941       -0.77368       -0.76400       -0.75497
       -0.74862       -0.73735       -0.66566       -0.64662       -0.63849
       -0.63630       -0.59144       -0.58111       -0.57103       -0.56633
        0.00532        0.04330        0.04596        0.05768        0.14846
        0.15191        0.17823        0.19255        0.20711        0.24309
        0.25260        0.26800        0.27151        0.28316        0.29278
        0.30192        0.31280        0.32892        0.35431        0.39072
        0.54471        0.55822        0.58500        0.82111        0.89344
        0.89935        0.90307        0.92361        0.94624        0.96709
        0.98177        1.02258        1.05054        1.06242        1.08354
        1.09844        1.11155        1.11946        1.13666        1.15654
        1.16462        1.21641        1.22030        1.23897        1.25110
        1.27323        1.29326        1.31440        1.36500        1.40621
        1.53811        1.54165        1.59769        1.61456        1.68238
        1.69471        1.69619        1.72142        1.73069        1.73577
        1.74515        1.76413        1.77310        1.78463        1.79309
        1.79694        1.84254        1.86889        1.91102        2.10060
        2.18052        2.24363        2.32388        2.35077        2.40707
        2.43130        2.44572        2.45322        2.46371        2.48109
        2.50684        2.53219        2.58972        2.61960        2.63551
        2.66455        2.71820        2.74657        2.76234        2.78341
        2.83038        2.84401        2.85230        2.86708        2.87306
        2.89267        2.90535        2.91427        2.96788        2.98590
        3.01541        3.19485        3.21922        3.23905        3.25712
        3.28429        3.36366        3.40885        3.43951        3.59860
        3.62566        3.65331        3.72787        3.78804        3.81347
        3.83893        3.87268        5.09763        5.19707        5.24850
       36.99869
 Time used in FCKEIG, thr_jaco:   6.99D-02  1.70D-02  1.18D-06
 CPU and wall times used in FCKEIG, THR_FCKEIG:   7.00D-02  1.70D-02  2.59D-04
 -----------------------------------------------------------------------------

 *** DIIS iteration number    6
 RDSUPM called. NFMAT, ISYMDM(1:NFMAT)                     1
                     1

 ITDIIS, energy, error norm, change in energy, scr.thr., difden:
@ DIIS iter.   6    -361.116806775        9.39810D-03   -6.85D-05  -20    F

 (DIIS_RED) Control Parameters C2DIIS =         F NEVC =    6


 (DIIS_RED) B matrix:

               Column   1     Column   2     Column   3     Column   4     Column   5     Column   6
       1      14.51693646
       2       0.90464289     1.27188193
       3       0.85980887    -0.05131275     0.14083748
       4       0.09164680     0.05091796     0.00968540     0.00575553
       5       0.01719845     0.00492363     0.00428737     0.00070656     0.00067206
       6      -0.00384631    -0.00020560     0.00038894     0.00043517     0.00000982     0.00008832
    ==== End of matrix output ====

 DIIS C vector; C2DIIS = F, LAMBDA = -2.53D-05
    0.000595    0.005398    0.002610   -0.148459    0.107190    1.032666
* Read MO coefficients from SIRIUS.RST with label "NEWORB  " and header info: 20Dec18  DIIS   6
      Virial theorem: -V/T =      2.004492
@    MULPOP   N      -0.72; H       0.36; H       0.40; H       0.33; H       0.38; O      -0.82; O      -0.78; O      -0.75; O      -0.80; H       0.42; 
@             H       0.46; H       0.43; H       0.42; H       0.45; H       0.38; H       0.44; H       0.41; 

 DIIS Fock eigenvalues in symmetry 1
      -20.66103      -20.65018      -20.63414      -20.63278      -15.69891
       -1.41003       -1.40451       -1.40121       -1.38822       -1.32567
       -0.80757       -0.79979       -0.77404       -0.76434       -0.75554
       -0.74923       -0.73785       -0.66622       -0.64751       -0.63939
       -0.63710       -0.59150       -0.58154       -0.57126       -0.56678
        0.00536        0.04328        0.04595        0.05766        0.14847
        0.15194        0.17820        0.19254        0.20696        0.24290
        0.25244        0.26790        0.27135        0.28304        0.29264
        0.30171        0.31260        0.32874        0.35406        0.39054
        0.54470        0.55821        0.58499        0.82107        0.89322
        0.89914        0.90286        0.92338        0.94591        0.96683
        0.98146        1.02227        1.05023        1.06213        1.08323
        1.09817        1.11124        1.11917        1.13640        1.15620
        1.16430        1.21601        1.21991        1.23849        1.25056
        1.27283        1.29288        1.31388        1.36452        1.40574
        1.53782        1.54146        1.59740        1.61423        1.68224
        1.69432        1.69576        1.72111        1.73028        1.73535
        1.74484        1.76374        1.77268        1.78422        1.79278
        1.79651        1.84226        1.86861        1.91082        2.10046
        2.18038        2.24357        2.32376        2.35053        2.40673
        2.43099        2.44523        2.45291        2.46333        2.48069
        2.50650        2.53187        2.58937        2.61926        2.63500
        2.66411        2.71769        2.74659        2.76232        2.78308
        2.83009        2.84367        2.85191        2.86681        2.87280
        2.89242        2.90501        2.91394        2.96755        2.98559
        3.01507        3.19455        3.21879        3.23869        3.25692
        3.28388        3.36325        3.40847        3.43909        3.59827
        3.62519        3.65288        3.72739        3.78764        3.81295
        3.83843        3.87208        5.09703        5.19646        5.24792
       36.99736
 Time used in FCKEIG, thr_jaco:   6.81D-02  1.70D-02  4.27D-07
 CPU and wall times used in FCKEIG, THR_FCKEIG:   6.82D-02  1.70D-02  9.40D-05
 -----------------------------------------------------------------------------

 *** DIIS iteration number    7
 RDSUPM called. NFMAT, ISYMDM(1:NFMAT)                     1
                     1

 ITDIIS, energy, error norm, change in energy, scr.thr., difden:
@ DIIS iter.   7    -361.116817331        1.89508D-03   -1.06D-05  -20    F

 (DIIS_RED) Control Parameters C2DIIS =         F NEVC =    7


 (DIIS_RED) B matrix:

               Column   1     Column   2     Column   3     Column   4     Column   5     Column   6
       1      14.51693646
       2       0.90464289     1.27188193
       3       0.85980887    -0.05131275     0.14083748
       4       0.09164680     0.05091796     0.00968540     0.00575553
       5       0.01719845     0.00492363     0.00428737     0.00070656     0.00067206
       6      -0.00384631    -0.00020560     0.00038894     0.00043517     0.00000982     0.00008832
       7       0.00027549     0.00017618     0.00000996     0.00000937     0.00003549     0.00000185

               Column   7
       7       0.00000359
    ==== End of matrix output ====

 DIIS C vector; C2DIIS = F, LAMBDA = -7.87D-07
   -0.000248   -0.000662    0.002678    0.028092   -0.097057   -0.168665    1.235862
* Read MO coefficients from SIRIUS.RST with label "NEWORB  " and header info: 20Dec18  DIIS   7
      Virial theorem: -V/T =      2.004443
@    MULPOP   N      -0.72; H       0.36; H       0.39; H       0.33; H       0.38; O      -0.82; O      -0.78; O      -0.75; O      -0.80; H       0.42; 
@             H       0.46; H       0.43; H       0.42; H       0.45; H       0.38; H       0.44; H       0.41; 

 DIIS Fock eigenvalues in symmetry 1
      -20.66089      -20.64986      -20.63395      -20.63251      -15.69857
       -1.40994       -1.40438       -1.40106       -1.38812       -1.32548
       -0.80742       -0.79964       -0.77388       -0.76428       -0.75542
       -0.74913       -0.73778       -0.66625       -0.64746       -0.63934
       -0.63708       -0.59138       -0.58134       -0.57110       -0.56661
        0.00539        0.04331        0.04597        0.05769        0.14853
        0.15199        0.17825        0.19262        0.20698        0.24294
        0.25248        0.26796        0.27139        0.28311        0.29268
        0.30175        0.31265        0.32882        0.35415        0.39064
        0.54480        0.55832        0.58510        0.82120        0.89335
        0.89926        0.90298        0.92349        0.94598        0.96688
        0.98151        1.02229        1.05026        1.06222        1.08326
        1.09828        1.11128        1.11928        1.13652        1.15632
        1.16441        1.21611        1.22002        1.23859        1.25068
        1.27292        1.29301        1.31396        1.36458        1.40581
        1.53793        1.54155        1.59752        1.61436        1.68234
        1.69442        1.69585        1.72117        1.73036        1.73543
        1.74491        1.76381        1.77276        1.78431        1.79287
        1.79661        1.84238        1.86874        1.91092        2.10059
        2.18051        2.24369        2.32390        2.35066        2.40683
        2.43105        2.44532        2.45293        2.46338        2.48074
        2.50651        2.53190        2.58946        2.61930        2.63508
        2.66415        2.71774        2.74670        2.76246        2.78316
        2.83012        2.84372        2.85197        2.86683        2.87288
        2.89250        2.90505        2.91404        2.96769        2.98570
        3.01521        3.19458        3.21885        3.23874        3.25704
        3.28394        3.36345        3.40866        3.43928        3.59829
        3.62524        3.65289        3.72743        3.78769        3.81302
        3.83848        3.87215        5.09727        5.19670        5.24815
       36.99769
 Time used in FCKEIG, thr_jaco:   6.74D-02  1.70D-02  8.61D-08
 CPU and wall times used in FCKEIG, THR_FCKEIG:   6.75D-02  1.70D-02  1.90D-05
 -----------------------------------------------------------------------------

 *** DIIS iteration number    8
 RDSUPM called. NFMAT, ISYMDM(1:NFMAT)                     1
                     1

 ITDIIS, energy, error norm, change in energy, scr.thr., difden:
@ DIIS iter.   8    -361.116817763        2.94022D-04   -4.32D-07  -20    F

 (DIIS_RED) Control Parameters C2DIIS =         F NEVC =    8


 (DIIS_RED) B matrix:

               Column   1     Column   2     Column   3     Column   4     Column   5     Column   6
       1      14.51693646
       2       0.90464289     1.27188193
       3       0.85980887    -0.05131275     0.14083748
       4       0.09164680     0.05091796     0.00968540     0.00575553
       5       0.01719845     0.00492363     0.00428737     0.00070656     0.00067206
       6      -0.00384631    -0.00020560     0.00038894     0.00043517     0.00000982     0.00008832
       7       0.00027549     0.00017618     0.00000996     0.00000937     0.00003549     0.00000185
       8       0.00012756    -0.00005180     0.00001900    -0.00000029     0.00000097     0.00000072

               Column   7     Column   8
       7       0.00000359
       8       0.00000028     0.00000009
    ==== End of matrix output ====

 DIIS C vector; C2DIIS = F, LAMBDA = -4.57D-08
    0.000021    0.000025   -0.000662   -0.001091    0.015179    0.003013   -0.232275    1.215789
* Read MO coefficients from SIRIUS.RST with label "NEWORB  " and header info: 20Dec18  DIIS   8
      Virial theorem: -V/T =      2.004455
@    MULPOP   N      -0.72; H       0.36; H       0.39; H       0.33; H       0.38; O      -0.82; O      -0.78; O      -0.75; O      -0.80; H       0.42; 
@             H       0.46; H       0.43; H       0.42; H       0.45; H       0.38; H       0.44; H       0.41; 

 DIIS Fock eigenvalues in symmetry 1
      -20.66087      -20.64989      -20.63394      -20.63249      -15.69861
       -1.40993       -1.40437       -1.40106       -1.38811       -1.32550
       -0.80743       -0.79965       -0.77389       -0.76426       -0.75542
       -0.74912       -0.73777       -0.66625       -0.64749       -0.63936
       -0.63709       -0.59136       -0.58135       -0.57109       -0.56660
        0.00539        0.04331        0.04597        0.05769        0.14852
        0.15199        0.17825        0.19261        0.20697        0.24293
        0.25248        0.26796        0.27140        0.28310        0.29268
        0.30175        0.31265        0.32881        0.35414        0.39063
        0.54479        0.55831        0.58509        0.82118        0.89334
        0.89925        0.90297        0.92348        0.94597        0.96688
        0.98151        1.02229        1.05026        1.06222        1.08326
        1.09828        1.11129        1.11928        1.13651        1.15631
        1.16441        1.21612        1.22001        1.23858        1.25068
        1.27292        1.29300        1.31396        1.36458        1.40580
        1.53792        1.54155        1.59751        1.61435        1.68234
        1.69441        1.69585        1.72117        1.73036        1.73543
        1.74491        1.76381        1.77276        1.78431        1.79287
        1.79660        1.84237        1.86873        1.91091        2.10058
        2.18050        2.24368        2.32388        2.35065        2.40682
        2.43106        2.44531        2.45293        2.46338        2.48075
        2.50652        2.53190        2.58945        2.61931        2.63508
        2.66415        2.71775        2.74669        2.76244        2.78316
        2.83013        2.84372        2.85196        2.86683        2.87287
        2.89249        2.90505        2.91403        2.96768        2.98569
        3.01520        3.19458        3.21884        3.23874        3.25702
        3.28394        3.36342        3.40863        3.43926        3.59829
        3.62523        3.65290        3.72743        3.78770        3.81302
        3.83849        3.87216        5.09724        5.19667        5.24812
       36.99766
 Time used in FCKEIG, thr_jaco:   7.80D-02  1.90D-02  1.34D-08
 CPU and wall times used in FCKEIG, THR_FCKEIG:   7.81D-02  1.90D-02  2.94D-06
 -----------------------------------------------------------------------------

 *** DIIS iteration number    9
 RDSUPM called. NFMAT, ISYMDM(1:NFMAT)                     1
                     1

 ITDIIS, energy, error norm, change in energy, scr.thr., difden:
@ DIIS iter.   9    -361.116817775        7.75866D-05   -1.23D-08  -20    F

 (DIIS_RED) Control Parameters C2DIIS =         F NEVC =    8


 (DIIS_RED) B matrix:

               Column   1     Column   2     Column   3     Column   4     Column   5     Column   6
       1       0.00000001
       2       0.00001386     1.27188193
       3      -0.00000497    -0.05131275     0.14083748
       4       0.00000020     0.05091796     0.00968540     0.00575553
       5       0.00000003     0.00492363     0.00428737     0.00070656     0.00067206
       6       0.00000003    -0.00020560     0.00038894     0.00043517     0.00000982     0.00008832
       7       0.00000005     0.00017618     0.00000996     0.00000937     0.00003549     0.00000185
       8       0.00000001    -0.00005180     0.00001900    -0.00000029     0.00000097     0.00000072

               Column   7     Column   8
       7       0.00000359
       8       0.00000028     0.00000009
    ==== End of matrix output ====

 DIIS C vector; C2DIIS = F, LAMBDA = -4.35D-09
    1.051924    0.000011    0.000006   -0.000664    0.002510    0.003659   -0.037647   -0.019798
* Read MO coefficients from SIRIUS.RST with label "NEWORB  " and header info: 20Dec18  DIIS   9
      Virial theorem: -V/T =      2.004455
@    MULPOP   N      -0.72; H       0.36; H       0.39; H       0.33; H       0.38; O      -0.82; O      -0.78; O      -0.75; O      -0.80; H       0.42; 
@             H       0.46; H       0.43; H       0.42; H       0.45; H       0.38; H       0.44; H       0.41; 

 DIIS Fock eigenvalues in symmetry 1
      -20.66088      -20.64986      -20.63394      -20.63251      -15.69860
       -1.40993       -1.40438       -1.40105       -1.38811       -1.32550
       -0.80743       -0.79965       -0.77389       -0.76426       -0.75541
       -0.74912       -0.73777       -0.66626       -0.64748       -0.63936
       -0.63710       -0.59137       -0.58134       -0.57109       -0.56660
        0.00539        0.04331        0.04597        0.05769        0.14852
        0.15199        0.17825        0.19261        0.20697        0.24294
        0.25248        0.26796        0.27140        0.28311        0.29268
        0.30175        0.31265        0.32881        0.35414        0.39063
        0.54479        0.55832        0.58509        0.82119        0.89334
        0.89925        0.90297        0.92348        0.94598        0.96688
        0.98151        1.02229        1.05026        1.06222        1.08327
        1.09828        1.11128        1.11928        1.13651        1.15631
        1.16441        1.21612        1.22002        1.23859        1.25068
        1.27292        1.29301        1.31395        1.36458        1.40581
        1.53792        1.54155        1.59752        1.61435        1.68234
        1.69441        1.69585        1.72117        1.73036        1.73543
        1.74491        1.76381        1.77276        1.78431        1.79287
        1.79660        1.84237        1.86873        1.91091        2.10058
        2.18050        2.24368        2.32388        2.35065        2.40682
        2.43105        2.44532        2.45293        2.46338        2.48075
        2.50652        2.53190        2.58946        2.61930        2.63509
        2.66415        2.71775        2.74669        2.76244        2.78316
        2.83013        2.84372        2.85196        2.86683        2.87287
        2.89249        2.90505        2.91403        2.96768        2.98569
        3.01520        3.19458        3.21885        3.23874        3.25703
        3.28394        3.36343        3.40864        3.43926        3.59829
        3.62524        3.65290        3.72743        3.78770        3.81302
        3.83849        3.87215        5.09724        5.19668        5.24813
       36.99767
 Time used in FCKEIG, thr_jaco:   6.87D-02  1.70D-02  3.53D-09
 CPU and wall times used in FCKEIG, THR_FCKEIG:   6.87D-02  1.70D-02  7.76D-07
 -----------------------------------------------------------------------------

 *** DIIS iteration number   10
 RDSUPM called. NFMAT, ISYMDM(1:NFMAT)                     1
                     1

 ITDIIS, energy, error norm, change in energy, scr.thr., difden:
@ DIIS iter.  10    -361.116817776        3.16067D-05   -6.16D-10  -20    F

 (DIIS_RED) Control Parameters C2DIIS =         F NEVC =    8


 (DIIS_RED) B matrix:

               Column   1     Column   2     Column   3     Column   4     Column   5     Column   6
       1       0.00000001
       2      -0.00000000     0.00000000
       3      -0.00000497    -0.00000039     0.14083748
       4       0.00000020     0.00000007     0.00968540     0.00575553
       5       0.00000003    -0.00000008     0.00428737     0.00070656     0.00067206
       6       0.00000003     0.00000003     0.00038894     0.00043517     0.00000982     0.00008832
       7       0.00000005    -0.00000000     0.00000996     0.00000937     0.00003549     0.00000185
       8       0.00000001     0.00000000     0.00001900    -0.00000029     0.00000097     0.00000072

               Column   7     Column   8
       7       0.00000359
       8       0.00000028     0.00000009
    ==== End of matrix output ====

 DIIS C vector; C2DIIS = F, LAMBDA = -3.07D-10
    0.263833    0.842703    0.000045   -0.000145   -0.000353    0.000964    0.008742   -0.115789
* Read MO coefficients from SIRIUS.RST with label "NEWORB  " and header info: 20Dec18  DIIS  10
      Virial theorem: -V/T =      2.004455
@    MULPOP   N      -0.72; H       0.36; H       0.39; H       0.33; H       0.38; O      -0.82; O      -0.78; O      -0.75; O      -0.80; H       0.42; 
@             H       0.46; H       0.43; H       0.42; H       0.45; H       0.38; H       0.44; H       0.41; 

 DIIS Fock eigenvalues in symmetry 1
      -20.66087      -20.64987      -20.63394      -20.63250      -15.69860
       -1.40993       -1.40437       -1.40106       -1.38811       -1.32550
       -0.80743       -0.79965       -0.77389       -0.76426       -0.75542
       -0.74912       -0.73777       -0.66626       -0.64749       -0.63936
       -0.63710       -0.59137       -0.58134       -0.57109       -0.56660
        0.00539        0.04331        0.04597        0.05769        0.14852
        0.15199        0.17825        0.19261        0.20697        0.24294
        0.25248        0.26796        0.27140        0.28310        0.29268
        0.30175        0.31266        0.32881        0.35414        0.39063
        0.54479        0.55832        0.58509        0.82118        0.89334
        0.89925        0.90297        0.92348        0.94598        0.96688
        0.98151        1.02229        1.05026        1.06222        1.08327
        1.09828        1.11128        1.11928        1.13651        1.15631
        1.16441        1.21612        1.22002        1.23858        1.25068
        1.27292        1.29300        1.31396        1.36458        1.40581
        1.53792        1.54155        1.59752        1.61435        1.68234
        1.69441        1.69585        1.72117        1.73036        1.73543
        1.74491        1.76381        1.77276        1.78431        1.79287
        1.79660        1.84237        1.86873        1.91091        2.10058
        2.18050        2.24368        2.32388        2.35065        2.40682
        2.43105        2.44532        2.45293        2.46338        2.48075
        2.50652        2.53190        2.58946        2.61930        2.63508
        2.66415        2.71775        2.74669        2.76244        2.78316
        2.83013        2.84372        2.85196        2.86683        2.87287
        2.89249        2.90505        2.91403        2.96768        2.98569
        3.01520        3.19458        3.21885        3.23874        3.25703
        3.28394        3.36343        3.40864        3.43926        3.59829
        3.62524        3.65290        3.72743        3.78770        3.81302
        3.83849        3.87215        5.09724        5.19668        5.24813
       36.99767
 Time used in FCKEIG, thr_jaco:   6.68D-02  1.60D-02  1.44D-09
 CPU and wall times used in FCKEIG, THR_FCKEIG:   6.69D-02  1.60D-02  3.16D-07
 -----------------------------------------------------------------------------

 *** DIIS iteration number   11
 RDSUPM called. NFMAT, ISYMDM(1:NFMAT)                     1
                     1

 ITDIIS, energy, error norm, change in energy, scr.thr., difden:
@ DIIS iter.  11    -361.116817776        6.46055D-06   -7.19D-11  -20    F

 (DIIS_RED) Control Parameters C2DIIS =         F NEVC =    8


 (DIIS_RED) B matrix:

               Column   1     Column   2     Column   3     Column   4     Column   5     Column   6
       1       0.00000001
       2      -0.00000000     0.00000000
       3       0.00000000    -0.00000000     0.00000000
       4       0.00000020     0.00000007     0.00000003     0.00575553
       5       0.00000003    -0.00000008    -0.00000003     0.00070656     0.00067206
       6       0.00000003     0.00000003     0.00000001     0.00043517     0.00000982     0.00008832
       7       0.00000005    -0.00000000    -0.00000000     0.00000937     0.00003549     0.00000185
       8       0.00000001     0.00000000     0.00000000    -0.00000029     0.00000097     0.00000072

               Column   7     Column   8
       7       0.00000359
       8       0.00000028     0.00000009
    ==== End of matrix output ====

 DIIS C vector; C2DIIS = F, LAMBDA = -1.53D-11
   -0.073008    0.021845    1.051010    0.000034   -0.000143   -0.000319    0.003299   -0.002719
* Read MO coefficients from SIRIUS.RST with label "NEWORB  " and header info: 20Dec18  DIIS  11
      Virial theorem: -V/T =      2.004455
@    MULPOP   N      -0.72; H       0.36; H       0.39; H       0.33; H       0.38; O      -0.82; O      -0.78; O      -0.75; O      -0.80; H       0.42; 
@             H       0.46; H       0.43; H       0.42; H       0.45; H       0.38; H       0.44; H       0.41; 

 DIIS Fock eigenvalues in symmetry 1
      -20.66087      -20.64987      -20.63394      -20.63250      -15.69860
       -1.40993       -1.40437       -1.40106       -1.38811       -1.32550
       -0.80743       -0.79965       -0.77389       -0.76426       -0.75542
       -0.74912       -0.73777       -0.66626       -0.64749       -0.63936
       -0.63710       -0.59137       -0.58134       -0.57109       -0.56660
        0.00539        0.04331        0.04597        0.05769        0.14852
        0.15199        0.17825        0.19261        0.20697        0.24294
        0.25248        0.26796        0.27140        0.28310        0.29268
        0.30175        0.31266        0.32881        0.35414        0.39063
        0.54479        0.55832        0.58509        0.82118        0.89334
        0.89925        0.90297        0.92348        0.94598        0.96688
        0.98151        1.02229        1.05026        1.06222        1.08327
        1.09828        1.11128        1.11928        1.13651        1.15631
        1.16441        1.21612        1.22002        1.23858        1.25068
        1.27292        1.29300        1.31395        1.36458        1.40581
        1.53792        1.54155        1.59752        1.61435        1.68234
        1.69441        1.69585        1.72117        1.73036        1.73543
        1.74491        1.76381        1.77276        1.78431        1.79287
        1.79660        1.84237        1.86873        1.91091        2.10058
        2.18050        2.24368        2.32388        2.35065        2.40682
        2.43105        2.44532        2.45293        2.46338        2.48075
        2.50652        2.53190        2.58946        2.61930        2.63508
        2.66415        2.71775        2.74669        2.76244        2.78316
        2.83013        2.84372        2.85196        2.86683        2.87287
        2.89249        2.90505        2.91403        2.96768        2.98569
        3.01520        3.19458        3.21885        3.23874        3.25703
        3.28394        3.36343        3.40864        3.43926        3.59829
        3.62524        3.65290        3.72743        3.78770        3.81302
        3.83849        3.87215        5.09724        5.19668        5.24813
       36.99767
 Time used in FCKEIG, thr_jaco:   7.13D-02  1.80D-02  3.64D-10
 CPU and wall times used in FCKEIG, THR_FCKEIG:   7.14D-02  1.80D-02  8.00D-08
 -----------------------------------------------------------------------------

 *** DIIS iteration number   12
 RDSUPM called. NFMAT, ISYMDM(1:NFMAT)                     1
                     1

 ITDIIS, energy, error norm, change in energy, scr.thr., difden:
@ DIIS iter.  12    -361.116817776        1.30538D-06   -6.82D-13  -20    F

 (DIIS_RED) Control Parameters C2DIIS =         F NEVC =    8


 (DIIS_RED) B matrix:

               Column   1     Column   2     Column   3     Column   4     Column   5     Column   6
       1     6.019687D-09
       2    -2.246876D-10   9.989832D-10
       3     3.125012D-10  -1.391350D-11   4.173867D-11
       4     1.032214D-11   1.673658D-11   4.267451D-12   1.704019D-12
       5     2.854255D-08  -7.870383D-08  -3.380409D-08  -2.739410D-09   6.720615D-04
       6     2.799289D-08   2.886759D-08   1.163363D-08   1.517406D-09   9.816732D-06   8.832426D-05
       7     5.092159D-08  -3.154780D-10  -1.914473D-09  -2.390364D-10   3.549271D-05   1.845834D-06
       8     1.125050D-08   4.324602D-09   4.064275D-10   3.080975D-11   9.704643D-07   7.218721D-07

               Column   7     Column   8
       7     3.591337D-06
       8     2.814172D-07   8.644891D-08
    ==== End of matrix output ====

 DIIS C vector; C2DIIS = F, LAMBDA = -9.68D-13
    0.004158   -0.030192   -0.171935    1.195948    0.000006   -0.000003   -0.000309    0.002327
* Read MO coefficients from SIRIUS.RST with label "NEWORB  " and header info: 20Dec18  DIIS  12
      Virial theorem: -V/T =      2.004455
@    MULPOP   N      -0.72; H       0.36; H       0.39; H       0.33; H       0.38; O      -0.82; O      -0.78; O      -0.75; O      -0.80; H       0.42; 
@             H       0.46; H       0.43; H       0.42; H       0.45; H       0.38; H       0.44; H       0.41; 

 DIIS Fock eigenvalues in symmetry 1
      -20.66087      -20.64987      -20.63394      -20.63250      -15.69860
       -1.40993       -1.40437       -1.40106       -1.38811       -1.32550
       -0.80743       -0.79965       -0.77389       -0.76426       -0.75542
       -0.74912       -0.73777       -0.66626       -0.64749       -0.63936
       -0.63710       -0.59137       -0.58134       -0.57109       -0.56660
        0.00539        0.04331        0.04597        0.05769        0.14852
        0.15199        0.17825        0.19261        0.20697        0.24294
        0.25248        0.26796        0.27140        0.28310        0.29268
        0.30175        0.31266        0.32881        0.35414        0.39063
        0.54479        0.55832        0.58509        0.82118        0.89334
        0.89925        0.90297        0.92348        0.94598        0.96688
        0.98151        1.02229        1.05026        1.06222        1.08327
        1.09828        1.11128        1.11928        1.13651        1.15631
        1.16441        1.21612        1.22002        1.23858        1.25068
        1.27292        1.29300        1.31395        1.36458        1.40581
        1.53792        1.54155        1.59752        1.61435        1.68234
        1.69441        1.69585        1.72117        1.73036        1.73543
        1.74491        1.76381        1.77276        1.78431        1.79287
        1.79660        1.84237        1.86873        1.91091        2.10058
        2.18050        2.24368        2.32388        2.35065        2.40682
        2.43105        2.44532        2.45293        2.46338        2.48075
        2.50652        2.53190        2.58946        2.61930        2.63508
        2.66415        2.71775        2.74669        2.76244        2.78316
        2.83013        2.84372        2.85196        2.86683        2.87287
        2.89249        2.90505        2.91403        2.96768        2.98569
        3.01520        3.19458        3.21885        3.23874        3.25703
        3.28394        3.36343        3.40864        3.43926        3.59829
        3.62524        3.65290        3.72743        3.78770        3.81302
        3.83849        3.87215        5.09724        5.19668        5.24813
       36.99767
 Time used in FCKEIG, thr_jaco:   6.36D-02  1.60D-02  3.64D-10
 CPU and wall times used in FCKEIG, THR_FCKEIG:   6.37D-02  1.60D-02  8.00D-08
 -----------------------------------------------------------------------------

 *** DIIS iteration number   13
 RDSUPM called. NFMAT, ISYMDM(1:NFMAT)                     1
                     1

 ITDIIS, energy, error norm, change in energy, scr.thr., difden:
@ DIIS iter.  13    -361.116817776        3.59855D-07   -2.61D-12  -20    F

 (DIIS_RED) Control Parameters C2DIIS =         F NEVC =    8


 (DIIS_RED) B matrix:

               Column   1     Column   2     Column   3     Column   4     Column   5     Column   6
       1     6.019687D-09
       2    -2.246876D-10   9.989832D-10
       3     3.125012D-10  -1.391350D-11   4.173867D-11
       4     1.032214D-11   1.673658D-11   4.267451D-12   1.704019D-12
       5     3.203876D-12   1.515021D-12   7.900814D-13   2.884170D-13   1.294956D-13
       6     2.799289D-08   2.886759D-08   1.163363D-08   1.517406D-09  -3.133790D-10   8.832426D-05
       7     5.092159D-08  -3.154780D-10  -1.914473D-09  -2.390364D-10   4.822919D-11   1.845834D-06
       8     1.125050D-08   4.324602D-09   4.064275D-10   3.080975D-11  -3.593997D-12   7.218721D-07

               Column   7     Column   8
       7     3.591337D-06
       8     2.814172D-07   8.644891D-08
    ==== End of matrix output ====

 DIIS C vector; C2DIIS = F, LAMBDA = -8.96D-14
    0.000808   -0.003341   -0.031227   -0.053638    1.086976    0.000007   -0.000090    0.000504
* Read MO coefficients from SIRIUS.RST with label "NEWORB  " and header info: 20Dec18  DIIS  13
      Virial theorem: -V/T =      2.004455
@    MULPOP   N      -0.72; H       0.36; H       0.39; H       0.33; H       0.38; O      -0.82; O      -0.78; O      -0.75; O      -0.80; H       0.42; 
@             H       0.46; H       0.43; H       0.42; H       0.45; H       0.38; H       0.44; H       0.41; 

[...]
       3      -0.05759934     0.78720319     0.61399793
    ==== End of matrix output ====


 CCSD  Transition strength matrix for state nr. 13 of symmetry 1
 CCSD  excitation energy:15.18800396

 Gauge: length

               Column   1     Column   2     Column   3
       1     2.538535D-06   6.379948D-08   1.341601D-05
       2     6.379948D-08  -3.026964D-09   3.472687D-07
       3     1.341601D-05   3.472687D-07   7.088084D-05
    ==== End of matrix output ====

 Principal values of diagonalized transition strength matrix:

             a.u.               
 1      -0.00000001
 2       0.00000000
 3       0.00007342

 Principal axis of diagonalized transition strength matrix:


               Column   1     Column   2     Column   3
       1       0.36502815     0.91223343     0.18596939
       2       0.92808014    -0.37234947     0.00480861
       3      -0.07363218    -0.17083922     0.98254377
    ==== End of matrix output ====


 CCSD   oscillator strength matrix for state nr. 13 of symmetry 1
 CCSD  excitation energy:15.18800396


               Column   1     Column   2     Column   3
       1     2.570352D-05   6.459912D-07   1.358416D-04
       2     6.459912D-07  -3.064902D-08   3.516212D-06
       3     1.358416D-04   3.516212D-06   7.176923D-04
    ==== End of matrix output ====

 Principal values of diagonalized oscillator strength matrix:

             a.u.               
 1      -0.00000006
 2       0.00000000
 3       0.00074342

 Principal axis of diagonalized oscillator strength matrix:


               Column   1     Column   2     Column   3
       1       0.36502815     0.91223343     0.18596939
       2       0.92808014    -0.37234947     0.00480861
       3      -0.07363218    -0.17083922     0.98254377
    ==== End of matrix output ====


 CCSD  Transition strength matrix for state nr. 14 of symmetry 1
 CCSD  excitation energy:15.19856835

 Gauge: length

               Column   1     Column   2     Column   3
       1     2.322731D-06   3.344451D-06  -4.352461D-06
       2     3.344451D-06   4.794507D-06  -6.252037D-06
       3    -4.352461D-06  -6.252037D-06   8.145246D-06
    ==== End of matrix output ====

 Principal values of diagonalized transition strength matrix:

             a.u.               
 1      -0.00000001
 2       0.00000000
 3       0.00001527

 Principal axis of diagonalized transition strength matrix:


               Column   1     Column   2     Column   3
       1       0.72276762     0.57030509    -0.39033201
       2      -0.67796534     0.47556081    -0.56053984
       3      -0.13405211     0.66977162     0.73036704
    ==== End of matrix output ====


 CCSD   oscillator strength matrix for state nr. 14 of symmetry 1
 CCSD  excitation energy:15.19856835


               Column   1     Column   2     Column   3
       1     2.353479D-05   3.388724D-05  -4.410079D-05
       2     3.388724D-05   4.857976D-05  -6.334801D-05
       3    -4.410079D-05  -6.334801D-05   8.253072D-05
    ==== End of matrix output ====

 Principal values of diagonalized oscillator strength matrix:

             a.u.               
 1      -0.00000007
 2       0.00000000
 3       0.00015472

 Principal axis of diagonalized oscillator strength matrix:


               Column   1     Column   2     Column   3
       1       0.72276762     0.57030509    -0.39033201
       2      -0.67796534     0.47556081    -0.56053984
       3      -0.13405211     0.66977162     0.73036704
    ==== End of matrix output ====


 CCSD  Transition strength matrix for state nr. 15 of symmetry 1
 CCSD  excitation energy:15.21281741

 Gauge: length

               Column   1     Column   2     Column   3
       1     1.010804D-05   1.274640D-05  -1.259331D-05
       2     1.274640D-05   1.607303D-05  -1.588009D-05
       3    -1.259331D-05  -1.588009D-05   1.568944D-05
    ==== End of matrix output ====

 Principal values of diagonalized transition strength matrix:

             a.u.               
 1      -0.00000000
 2      -0.00000000
 3       0.00004187

 Principal axis of diagonalized transition strength matrix:


               Column   1     Column   2     Column   3
       1       0.82802156     0.27012366     0.49133849
       2      -0.55026072     0.55976672     0.61957595
       3       0.10767281     0.78338652    -0.61213735
    ==== End of matrix output ====


 CCSD   oscillator strength matrix for state nr. 15 of symmetry 1
 CCSD  excitation energy:15.21281741


               Column   1     Column   2     Column   3
       1     1.025145D-04   1.292724D-04  -1.277198D-04
       2     1.292724D-04   1.630107D-04  -1.610540D-04
       3    -1.277198D-04  -1.610540D-04   1.591204D-04
    ==== End of matrix output ====

 Principal values of diagonalized oscillator strength matrix:

             a.u.               
 1      -0.00000000
 2      -0.00000000
 3       0.00042465

 Principal axis of diagonalized oscillator strength matrix:


               Column   1     Column   2     Column   3
       1       0.82802156     0.27012366     0.49133849
       2      -0.55026072     0.55976672     0.61957595
       3       0.10767281     0.78338652    -0.61213735
    ==== End of matrix output ====

  Total time for    135 linear response residues:      13.33 seconds.
  

 *******************************************************************************
 *******************************************************************************
 *                                                                             *
 *                                                                             *
 *                   SUMMARY OF COUPLED CLUSTER CALCULATION                    *
 *                                                                             *
 *                                                                             *
 *******************************************************************************
 *******************************************************************************

                                                                                
                                                                                
            Total SCF   energy:                  -361.1168177759                
            Total MP2   energy:                  -362.1400334944                
            Total CCSD  energy:                  -362.1879482249                
                                                                                
                                                                                
            Total SCF   energy:                  -361.1168177759                
            Total RSTAR energy:                  -362.1879482249                
            Total CCSD  energy:                  -362.1879787296                
                                                                                
                                                                                
            Total SCF   energy:                  -361.1168177759                
            Total RSTAR energy:                  -362.1879787296                
            Total CCSD  energy:                  -362.1879798499                
                                                                                
                                                                                
            Total SCF   energy:                  -361.1168177759                
            Total RSTAR energy:                  -362.1879798499                
            Total CCSD  energy:                  -362.1879798991                
                                                                                
                                                                                
            Total SCF   energy:                  -361.1168177759                
            Total RSTAR energy:                  -362.1879798991                
            Total CCSD  energy:                  -362.1879799013                
            CCSD Total  energy:                  -362.5931350939                
            CCSD E(PE-CC)     :                    -0.4021301557                
                                                                                
                                                                                
 +=============================================================================+
 |  sym. | Exci.  |        CCSD       Excitation energies            | ||T1||  |
 |(spin, |        +------------------------------------------------------------+
 | spat) |        |     Hartree    |       eV.      |     cm-1       |    %    |
 +=============================================================================+
 | ^1A   |    1   |    14.9101037  |     405.72456  |   3272389.492  |  88.70  |
 | ^1A   |    2   |    14.9693964  |     407.33800  |   3285402.733  |  88.81  |
 | ^1A   |    3   |    14.9827887  |     407.70242  |   3288341.997  |  88.79  |
 | ^1A   |    4   |    14.9913838  |     407.93630  |   3290228.394  |  88.67  |
 | ^1A   |    5   |    15.0217507  |     408.76263  |   3296893.158  |  88.41  |
 | ^1A   |    6   |    15.0225362  |     408.78400  |   3297065.554  |  88.43  |
 | ^1A   |    7   |    15.0366202  |     409.16725  |   3300156.640  |  88.53  |
 | ^1A   |    8   |    15.0523084  |     409.59415  |   3303599.799  |  88.49  |
 | ^1A   |    9   |    15.0867810  |     410.53219  |   3311165.669  |  89.01  |
 | ^1A   |   10   |    15.0889287  |     410.59064  |   3311637.029  |  88.93  |
 | ^1A   |   11   |    15.1101532  |     411.16819  |   3316295.283  |  89.03  |
 | ^1A   |   12   |    15.1501670  |     412.25701  |   3325077.279  |  87.95  |
 | ^1A   |   13   |    15.1880040  |     413.28661  |   3333381.541  |  88.00  |
 | ^1A   |   14   |    15.1985683  |     413.57408  |   3335700.155  |  87.76  |
 | ^1A   |   15   |    15.2128174  |     413.96182  |   3338827.463  |  87.76  |
 +=============================================================================+
                                                                                
                                                                                
     Total energies in Hartree:                                                 
             1 ^1A       -347.2809011963                                        
             2 ^1A       -347.2216085074                                        
             3 ^1A       -347.2082162373                                        
             4 ^1A       -347.1996211793                                        
             5 ^1A       -347.1692542776                                        
             6 ^1A       -347.1684687857                                        
             7 ^1A       -347.1543847593                                        
             8 ^1A       -347.1386965748                                        
             9 ^1A       -347.1042239338                                        
            10 ^1A       -347.1020762612                                        
            11 ^1A       -347.0808516927                                        
            12 ^1A       -347.0408379725                                        
            13 ^1A       -347.0030009735                                        
            14 ^1A       -346.9924365902                                        
            15 ^1A       -346.9781875271                                        
                                                                                
                                                                                
 +=============================================================================+
 |  sym. | Exci.  |        CCSD       Length   Gauge Oscillator Strength       |
 |(spin, |        +------------------------------------------------------------+
 | spat) |        | Dipole Strength(a.u.) | Oscillator strength  | Direction   |
 +=============================================================================+
 | ^1A   |    1   |        0.0002406      |      0.0023911       |  (Y,Z)      |
 | ^1A   |    2   |        0.0018988      |      0.0189497       |  (Y,Z)      |
 | ^1A   |    3   |        0.0013454      |      0.0134381       |  (Y,Z)      |
 | ^1A   |    4   |        0.0015593      |      0.0155839       |  (Y,Z)      |
 | ^1A   |    5   |        0.0009441      |      0.0094548       |  (Y,Z)      |
 | ^1A   |    6   |        0.0010238      |      0.0102529       |  (Y,Z)      |
 | ^1A   |    7   |        0.0008614      |      0.0086347       |  (Y,Z)      |
 | ^1A   |    8   |        0.0002439      |      0.0024470       |  (Y,Z)      |
 | ^1A   |    9   |        0.0025369      |      0.0255158       |  (Y,Z)      |
 | ^1A   |   10   |        0.0020853      |      0.0209771       |  (Y,Z)      |
 | ^1A   |   11   |        0.0024288      |      0.0244662       |  (Y,Z)      |
 | ^1A   |   12   |        0.0000074      |      0.0000750       |  (Y,Z)      |
 | ^1A   |   13   |        0.0000734      |      0.0007434       |  (Y,Z)      |
 | ^1A   |   14   |        0.0000153      |      0.0001546       |  (Y,Z)      |
 | ^1A   |   15   |        0.0000419      |      0.0004246       |  (Y,Z)      |
 +=============================================================================+

  1 a.u. =        27.21138 eV.  
  1 a.u. =    219474.62934 cm-1.
  

 *******************************************************************************
 *******************************************************************************
 *                                                                             *
 *                                                                             *
 *                      END OF COUPLED CLUSTER CALCULATION                     *
 *                                                                             *
 *                                                                             *
 *******************************************************************************
 *******************************************************************************


 CPU and wall time for CC :  136818.986   51423.972

 
     Date and time (Linux)  : Thu Dec 20 20:06:30 2018
     Host name              : s71p34.deic.sdu.dk                      


                      .-------------------------------------.
                      | End of Coupled Cluster Section (CC) |
                      `-------------------------------------'

  Total CPU  time used in DALTON:  38 hours  3 minutes 59 seconds
  Total wall time used in DALTON:  14 hours 18 minutes 52 seconds

 
     Date and time (Linux)  : Thu Dec 20 20:06:30 2018
     Host name              : s71p34.deic.sdu.dk                      
  

 +---------------------------------------------------------+ 
 | List of selected calculated molecular properties (a.u.) | 
 +---------------------------------------------------------+ 

  Properties are read from unit number                      4

 CCSD       properties :
 #  1 1 PE-CCSD  Ground state Energy =    -362.5931350939
 #  2 1 E(PE-CC) Ground state Energy =      -0.4021301557
 #  3 1 Sy: 1 Sp: 1 Exc:  1 E_tot:   -347.2809011963 w:     14.9101037419 E_grs:   -362.1910049382
 #  4 1 Exctot   Excited state Energy =    -347.2809011963
 #  5 1 Sy: 1 Sp: 1 Exc:  2 E_tot:   -347.2216085074 w:     14.9693964308 E_grs:   -362.1910049382
 #  6 1 Exctot   Excited state Energy =    -347.2216085074
 #  7 1 Sy: 1 Sp: 1 Exc:  3 E_tot:   -347.2082162373 w:     14.9827887008 E_grs:   -362.1910049382
 #  8 1 Exctot   Excited state Energy =    -347.2082162373
 #  9 1 Sy: 1 Sp: 1 Exc:  4 E_tot:   -347.1996211793 w:     14.9913837589 E_grs:   -362.1910049382
 # 10 1 Exctot   Excited state Energy =    -347.1996211793
 # 11 1 Sy: 1 Sp: 1 Exc:  5 E_tot:   -347.1692542776 w:     15.0217506605 E_grs:   -362.1910049382
 # 12 1 Exctot   Excited state Energy =    -347.1692542776
 # 13 1 Sy: 1 Sp: 1 Exc:  6 E_tot:   -347.1684687857 w:     15.0225361525 E_grs:   -362.1910049382
 # 14 1 Exctot   Excited state Energy =    -347.1684687857
 # 15 1 Sy: 1 Sp: 1 Exc:  7 E_tot:   -347.1543847593 w:     15.0366201789 E_grs:   -362.1910049382
 # 16 1 Exctot   Excited state Energy =    -347.1543847593
 # 17 1 Sy: 1 Sp: 1 Exc:  8 E_tot:   -347.1386965748 w:     15.0523083633 E_grs:   -362.1910049382
 # 18 1 Exctot   Excited state Energy =    -347.1386965748
 # 19 1 Sy: 1 Sp: 1 Exc:  9 E_tot:   -347.1042239338 w:     15.0867810044 E_grs:   -362.1910049382
 # 20 1 Exctot   Excited state Energy =    -347.1042239338
 # 21 1 Sy: 1 Sp: 1 Exc: 10 E_tot:   -347.1020762612 w:     15.0889286770 E_grs:   -362.1910049382
 # 22 1 Exctot   Excited state Energy =    -347.1020762612
 # 23 1 Sy: 1 Sp: 1 Exc: 11 E_tot:   -347.0808516927 w:     15.1101532455 E_grs:   -362.1910049382
 # 24 1 Exctot   Excited state Energy =    -347.0808516927
 # 25 1 Sy: 1 Sp: 1 Exc: 12 E_tot:   -347.0408379725 w:     15.1501669657 E_grs:   -362.1910049382
 # 26 1 Exctot   Excited state Energy =    -347.0408379725
 # 27 1 Sy: 1 Sp: 1 Exc: 13 E_tot:   -347.0030009735 w:     15.1880039647 E_grs:   -362.1910049382
 # 28 1 Exctot   Excited state Energy =    -347.0030009735
 # 29 1 Sy: 1 Sp: 1 Exc: 14 E_tot:   -346.9924365902 w:     15.1985683480 E_grs:   -362.1910049382
 # 30 1 Exctot   Excited state Energy =    -346.9924365902
 # 31 1 Sy: 1 Sp: 1 Exc: 15 E_tot:   -346.9781875271 w:     15.2128174110 E_grs:   -362.1910049382
 # 32 1 Exctot   Excited state Energy =    -346.9781875271
 # 33 1 |<O|XDIPLEN |i(14.910104)>| =     0.00449366
 # 35 1 |<O|XDIPLEN |i(14.969396)>| =     0.00235243
 # 37 1 |<O|XDIPLEN |i(14.982789)>| =     0.02792455
 # 39 1 |<O|XDIPLEN |i(14.991384)>| =     0.03070845
 # 41 1 |<O|XDIPLEN |i(15.021751)>| =     0.00391668
 # 43 1 |<O|XDIPLEN |i(15.022536)>| =     0.02718043
 # 45 1 |<O|XDIPLEN |i(15.036620)>| =     0.00579022
 # 47 1 |<O|XDIPLEN |i(15.052308)>| =     0.00706806
 # 49 1 |<O|XDIPLEN |i(15.086781)>| =     0.04571593
 # 51 1 |<O|XDIPLEN |i(15.088929)>| =     0.01248127
 # 53 1 |<O|XDIPLEN |i(15.110153)>| =     0.01717422
 # 55 1 |<O|XDIPLEN |i(15.150167)>| =     0.00003427
 # 57 1 |<O|XDIPLEN |i(15.188004)>| =     0.00159328
 # 59 1 |<O|XDIPLEN |i(15.198568)>| =     0.00152405
 # 61 1 |<O|XDIPLEN |i(15.212817)>| =     0.00317931
 # 63 1 |<O|YDIPLEN |i(14.910104)>| =     0.01255004
 # 65 1 |<O|YDIPLEN |i(14.969396)>| =     0.04337821
 # 67 1 |<O|YDIPLEN |i(14.982789)>| =     0.00741933
 # 69 1 |<O|YDIPLEN |i(14.991384)>| =     0.01023181
 # 71 1 |<O|YDIPLEN |i(15.021751)>| =     0.02273180
 # 73 1 |<O|YDIPLEN |i(15.022536)>| =     0.01482825
 # 75 1 |<O|YDIPLEN |i(15.036620)>| =     0.01174631
 # 77 1 |<O|YDIPLEN |i(15.052308)>| =     0.00097454
 # 79 1 |<O|YDIPLEN |i(15.086781)>| =     0.01923881
 # 81 1 |<O|YDIPLEN |i(15.088929)>| =     0.03720370
 # 83 1 |<O|YDIPLEN |i(15.110153)>| =     0.01387378
 # 85 1 |<O|YDIPLEN |i(15.150167)>| =     0.00214957
 # 87 1 |<O|YDIPLEN |i(15.188004)>| =    -0.00005502
 # 89 1 |<O|YDIPLEN |i(15.198568)>| =     0.00218964
 # 91 1 |<O|YDIPLEN |i(15.212817)>| =     0.00400912
 # 93 1 |<O|ZDIPLEN |i(14.910104)>| =     0.00792817
 # 95 1 |<O|ZDIPLEN |i(14.969396)>| =     0.00341194
 # 97 1 |<O|ZDIPLEN |i(14.982789)>| =     0.02259478
 # 99 1 |<O|ZDIPLEN |i(14.991384)>| =     0.02261831
 #101 1 |<O|ZDIPLEN |i(15.021751)>| =     0.02029875
 #103 1 |<O|ZDIPLEN |i(15.022536)>| =     0.00806830
 #105 1 |<O|ZDIPLEN |i(15.036620)>| =     0.02626526
 #107 1 |<O|ZDIPLEN |i(15.052308)>| =     0.01389046
 #109 1 |<O|ZDIPLEN |i(15.086781)>| =     0.00876519
 #111 1 |<O|ZDIPLEN |i(15.088929)>| =     0.02335488
 #113 1 |<O|ZDIPLEN |i(15.110153)>| =     0.04406070
 #115 1 |<O|ZDIPLEN |i(15.150167)>| =     0.00167313
 #117 1 |<O|ZDIPLEN |i(15.188004)>| =     0.00841908
 #119 1 |<O|ZDIPLEN |i(15.198568)>| =     0.00285399
 #121 1 |<O|ZDIPLEN |i(15.212817)>| =     0.00396099

 THE_END   
