

     ************************************************************************
     *************** Dalton - An Electronic Structure Program ***************
     ************************************************************************

    This is output from DALTON release Dalton2017.alpha (2016)
         ( Web site: http://daltonprogram.org )

   ----------------------------------------------------------------------------

    NOTE:
     
    Dalton is an experimental code for the evaluation of molecular
    properties using (MC)SCF, DFT, CI, and CC wave functions.
    The authors accept no responsibility for the performance of
    the code or for the correctness of the results.
     
    The code (in whole or part) is provided under a licence and
    is not to be reproduced for further distribution without
    the written permission of the authors or their representatives.
     
    See the home page "http://daltonprogram.org" for further information.
     
    If results obtained with this code are published,
    the appropriate citations would be both of:
     
       K. Aidas, C. Angeli, K. L. Bak, V. Bakken, R. Bast,
       L. Boman, O. Christiansen, R. Cimiraglia, S. Coriani,
       P. Dahle, E. K. Dalskov, U. Ekstroem,
       T. Enevoldsen, J. J. Eriksen, P. Ettenhuber, B. Fernandez,
       L. Ferrighi, H. Fliegl, L. Frediani, K. Hald, A. Halkier,
       C. Haettig, H. Heiberg, T. Helgaker, A. C. Hennum,
       H. Hettema, E. Hjertenaes, S. Hoest, I.-M. Hoeyvik,
       M. F. Iozzi, B. Jansik, H. J. Aa. Jensen, D. Jonsson,
       P. Joergensen, J. Kauczor, S. Kirpekar,
       T. Kjaergaard, W. Klopper, S. Knecht, R. Kobayashi, H. Koch,
       J. Kongsted, A. Krapp, K. Kristensen, A. Ligabue,
       O. B. Lutnaes, J. I. Melo, K. V. Mikkelsen, R. H. Myhre,
       C. Neiss, C. B. Nielsen, P. Norman, J. Olsen,
       J. M. H. Olsen, A. Osted, M. J. Packer, F. Pawlowski,
       T. B. Pedersen, P. F. Provasi, S. Reine, Z. Rinkevicius,
       T. A. Ruden, K. Ruud, V. Rybkin, P. Salek, C. C. M. Samson,
       A. Sanchez de Meras, T. Saue, S. P. A. Sauer,
       B. Schimmelpfennig, K. Sneskov, A. H. Steindal,
       K. O. Sylvester-Hvid, P. R. Taylor, A. M. Teale,
       E. I. Tellgren, D. P. Tew, A. J. Thorvaldsen, L. Thoegersen,
       O. Vahtras, M. A. Watson, D. J. D. Wilson, M. Ziolkowski
       and H. Agren,
       "The Dalton quantum chemistry program system",
       WIREs Comput. Mol. Sci. 2014, 4:269–284 (doi: 10.1002/wcms.1172)
     
    and
     
       Dalton, a Molecular Electronic Structure Program,
       Release Dalton2017.alpha (2016), see http://daltonprogram.org
   ----------------------------------------------------------------------------

    Authors in alphabetical order (major contribution(s) in parenthesis):

  Kestutis Aidas,           Vilnius University,           Lithuania   (QM/MM)
  Celestino Angeli,         University of Ferrara,        Italy       (NEVPT2)
  Keld L. Bak,              UNI-C,                        Denmark     (AOSOPPA, non-adiabatic coupling, magnetic properties)
  Vebjoern Bakken,          University of Oslo,           Norway      (DALTON; geometry optimizer, symmetry detection)
  Radovan Bast,             UiT The Arctic U. of Norway,  Norway      (DALTON installation and execution frameworks)
  Pablo Baudin,             University of Valencia,       Spain       (Cholesky excitation energies)
  Linus Boman,              NTNU,                         Norway      (Cholesky decomposition and subsystems)
  Ove Christiansen,         Aarhus University,            Denmark     (CC module)
  Renzo Cimiraglia,         University of Ferrara,        Italy       (NEVPT2)
  Sonia Coriani,            University of Trieste,        Italy       (CC module, MCD in RESPONS)
  Janusz Cukras,            University of Trieste,        Italy       (MChD in RESPONS)
  Paal Dahle,               University of Oslo,           Norway      (Parallelization)
  Erik K. Dalskov,          UNI-C,                        Denmark     (SOPPA)
  Thomas Enevoldsen,        Univ. of Southern Denmark,    Denmark     (SOPPA)
  Janus J. Eriksen,         Aarhus University,            Denmark     (Polarizable embedding model, TDA)
  Rasmus Faber,             University of Copenhagen,     Denmark     (Vib.avg. NMR with SOPPA, parallel AO-SOPPA)
  Berta Fernandez,          U. of Santiago de Compostela, Spain       (doublet spin, ESR in RESPONS)
  Lara Ferrighi,            Aarhus University,            Denmark     (PCM Cubic response)
  Heike Fliegl,             University of Oslo,           Norway      (CCSD(R12))
  Luca Frediani,            UiT The Arctic U. of Norway,  Norway      (PCM)
  Bin Gao,                  UiT The Arctic U. of Norway,  Norway      (Gen1Int library)
  Christof Haettig,         Ruhr-University Bochum,       Germany     (CC module)
  Kasper Hald,              Aarhus University,            Denmark     (CC module)
  Asger Halkier,            Aarhus University,            Denmark     (CC module)
  Frederik Beyer Hansen,    University of Copenhagen,     Denmark     (Parallel AO-SOPPA)
  Erik D. Hedegaard,        Univ. of Southern Denmark,    Denmark     (Polarizable embedding model, QM/MM)
  Hanne Heiberg,            University of Oslo,           Norway      (geometry analysis, selected one-electron integrals)
  Trygve Helgaker,          University of Oslo,           Norway      (DALTON; ABACUS, ERI, DFT modules, London, and much more)
  Alf Christian Hennum,     University of Oslo,           Norway      (Parity violation)
  Hinne Hettema,            University of Auckland,       New Zealand (quadratic response in RESPONS; SIRIUS supersymmetry)
  Eirik Hjertenaes,         NTNU,                         Norway      (Cholesky decomposition)
  Pi A. B. Haase,           University of Copenhagen,     Denmark     (Triplet AO-SOPPA)
  Maria Francesca Iozzi,    University of Oslo,           Norway      (RPA)
  Brano Jansik              Technical Univ. of Ostrava    Czech Rep.  (DFT cubic response)
  Hans Joergen Aa. Jensen,  Univ. of Southern Denmark,    Denmark     (DALTON; SIRIUS, RESPONS, ABACUS modules, London, and much more)
  Dan Jonsson,              UiT The Arctic U. of Norway,  Norway      (cubic response in RESPONS module)
  Poul Joergensen,          Aarhus University,            Denmark     (RESPONS, ABACUS, and CC modules)
  Maciej Kaminski,          University of Warsaw,         Poland      (CPPh in RESPONS)
  Joanna Kauczor,           Linkoeping University,        Sweden      (Complex polarization propagator (CPP) module)
  Sheela Kirpekar,          Univ. of Southern Denmark,    Denmark     (Mass-velocity & Darwin integrals)
  Wim Klopper,              KIT Karlsruhe,                Germany     (R12 code in CC, SIRIUS, and ABACUS modules)
  Stefan Knecht,            ETH Zurich,                   Switzerland (Parallel CI and MCSCF)
  Rika Kobayashi,           Australian National Univ.,    Australia   (DIIS in CC, London in MCSCF)
  Henrik Koch,              NTNU,                         Norway      (CC module, Cholesky decomposition)
  Jacob Kongsted,           Univ. of Southern Denmark,    Denmark     (Polarizable embedding model, QM/MM)
  Andrea Ligabue,           University of Modena,         Italy       (CTOCD, AOSOPPA)
  Nanna H. List             Univ. of Southern Denmark,    Denmark     (Polarizable embedding model)
  Ola B. Lutnaes,           University of Oslo,           Norway      (DFT Hessian)
  Juan I. Melo,             University of Buenos Aires,   Argentina   (LRESC, Relativistic Effects on NMR Shieldings)
  Kurt V. Mikkelsen,        University of Copenhagen,     Denmark     (MC-SCRF and QM/MM)
  Rolf H. Myhre,            NTNU,                         Norway      (Cholesky, subsystems and ECC2)
  Christian Neiss,          Univ. Erlangen-Nuernberg,     Germany     (CCSD(R12))
  Christian B. Nielsen,     University of Copenhagen,     Denmark     (QM/MM)
  Patrick Norman,           Linkoeping University,        Sweden      (Cubic response and complex frequency response in RESPONS)
  Jeppe Olsen,              Aarhus University,            Denmark     (SIRIUS CI/density modules)
  Jogvan Magnus H. Olsen,   Univ. of Southern Denmark,    Denmark     (Polarizable embedding model, QM/MM)
  Anders Osted,             Copenhagen University,        Denmark     (QM/MM)
  Martin J. Packer,         University of Sheffield,      UK          (SOPPA)
  Filip Pawlowski,          Kazimierz Wielki University,  Poland      (CC3)
  Morten N. Pedersen,       Univ. of Southern Denmark,    Denmark     (Polarizable embedding model)
  Thomas B. Pedersen,       University of Oslo,           Norway      (Cholesky decomposition)
  Patricio F. Provasi,      University of Northeastern,   Argentina   (Analysis of coupling constants in localized orbitals)
  Zilvinas Rinkevicius,     KTH Stockholm,                Sweden      (open-shell DFT, ESR)
  Elias Rudberg,            KTH Stockholm,                Sweden      (DFT grid and basis info)
  Torgeir A. Ruden,         University of Oslo,           Norway      (Numerical derivatives in ABACUS)
  Kenneth Ruud,             UiT The Arctic U. of Norway,  Norway      (DALTON; ABACUS magnetic properties and much more)
  Pawel Salek,              KTH Stockholm,                Sweden      (DALTON; DFT code)
  Claire C. M. Samson       University of Karlsruhe       Germany     (Boys localization, r12 integrals in ERI)
  Alfredo Sanchez de Meras, University of Valencia,       Spain       (CC module, Cholesky decomposition)
  Trond Saue,               Paul Sabatier University,     France      (direct Fock matrix construction)
  Stephan P. A. Sauer,      University of Copenhagen,     Denmark     (SOPPA(CCSD), SOPPA prop., AOSOPPA, vibrational g-factors)
  Bernd Schimmelpfennig,    Forschungszentrum Karlsruhe,  Germany     (AMFI module)
  Kristian Sneskov,         Aarhus University,            Denmark     (Polarizable embedding model, QM/MM)
  Arnfinn H. Steindal,      UiT The Arctic U. of Norway,  Norway      (parallel QM/MM, Polarizable embedding model)
  Casper Steinmann,         Univ. of Southern Denmark,    Denmark     (QFIT, Polarizable embedding model)
  K. O. Sylvester-Hvid,     University of Copenhagen,     Denmark     (MC-SCRF)
  Peter R. Taylor,          VLSCI/Univ. of Melbourne,     Australia   (Symmetry handling ABACUS, integral transformation)
  Andrew M. Teale,          University of Nottingham,     England     (DFT-AC, DFT-D)
  David P. Tew,             University of Bristol,        England     (CCSD(R12))
  Olav Vahtras,             KTH Stockholm,                Sweden      (triplet response, spin-orbit, ESR, TDDFT, open-shell DFT)
  David J. Wilson,          La Trobe University,          Australia   (DFT Hessian and DFT magnetizabilities)
  Hans Agren,               KTH Stockholm,                Sweden      (SIRIUS module, RESPONS, MC-SCRF solvation model)
 --------------------------------------------------------------------------------

     Date and time (Linux)  : Thu Dec 20 05:47:38 2018
     Host name              : s71p34.deic.sdu.dk                      

 * Work memory size             :  2048000000 = 15.259 gigabytes.

 * Directories for basis set searches:
   1) /work/sdujk/reinholdt/ECP-Sonia/mixed-basis_small
   2) /gpfs/gss1/work/sdujk/reinholdt/Programs/dalton-private/pe-cvs/basis


Compilation information
-----------------------

 Who compiled             | reinholdt
 Host                     | fe1.deic.sdu.dk
 System                   | Linux-3.10.0-327.36.3.el7.x86_64
 CMake generator          | Unix Makefiles
 Processor                | x86_64
 64-bit integers          | ON
 MPI                      | OFF
 Fortran compiler         | /opt/sys/apps/intel/2018.05/compilers_and_librarie
                          | s_2018.3.222/linux/bin/intel64/ifort
 Fortran compiler version | ifort (IFORT) 18.0.3 20180410
 C compiler               | /opt/sys/apps/intel/2018.05/compilers_and_librarie
                          | s_2018.3.222/linux/bin/intel64/icc
 C compiler version       | icc (ICC) 18.0.3 20180410
 C++ compiler             | /opt/sys/apps/intel/2018.05/compilers_and_librarie
                          | s_2018.3.222/linux/bin/intel64/icpc
 C++ compiler version     | icpc (ICC) 18.0.3 20180410
 Static linking           | OFF
 Last Git revision        | 252a54078a0f9a1f0a59b3262fa4a57829155fe9
 Git branch               | pe/cc-cvs
 Configuration time       | 2018-12-09 12:09:40.474621


   Content of the .dal input file
 ----------------------------------

**DALTON
.RUN WAVE FUNCTIONS
.PEQM
**INTEGRALS
.DIPLEN
**WAVE FUNCTIONS
.CC
*PRINT
!To check the origin of excit
.PRINTL
   0 11
*SCF INP
.THRESH
1.0D-7
*CC INP
.CCSD
.THRLEQ
 1.0D-9
.THRENR
 1.0D-10
.FROIMP
4
0
.PRINT
 1
.MAX IT
 1200
.MAXRED
 1200
.MXLRV
1199
*PECC
*CCEXCI
.NCCEXC
 15
.CVSEPARA
1
1
*CCLRSD
.DIPOLE
**END OF DALTON INPUT


   Content of the .mol file
 ----------------------------

ATOMBASIS


Atomtypes=4 Charge=0 Nosymm Angstrom
   7.00000    1    Basis=6-311++G**
N          0.000000        0.000000        0.000000
   1.00000    3    Basis=6-311++G**
H         -0.289697       -0.595427       -0.786813
H          0.725456       -0.549821        0.359388
H         -0.662062       -0.013191        0.779102
   8.00000    4    Basis=6-31G**
O         -1.568349       -1.999512       -1.363307
O          1.970561       -2.148947        0.621290
O          0.430559        2.677908       -0.288482
O         -3.104181        0.240492        1.996511
   1.00000    8    Basis=6-31G**
H         -0.853407       -2.521728       -1.772188
H         -2.401309       -2.086574       -1.991420
H          2.758511       -2.517247        0.173949
H          1.247031       -2.187999       -0.034818
H          1.362711        3.056804       -0.043166
H          0.396938        1.667331       -0.210000
H         -3.490122        0.621238        1.201654
H         -2.592811        0.919226        2.434691


       *******************************************************************
       *********** Output from DALTON general input processing ***********
       *******************************************************************

 --------------------------------------------------------------------------------
   Overall default print level:    0
   Print level for DALTON.STAT:    1

    HERMIT 1- and 2-electron integral sections will be executed
    "Old" integral transformation used (limited to max 255 basis functions)
    Wave function sections will be executed (SIRIUS module)
    Environment is modeled using polarizable embedding scheme (PE library)
 --------------------------------------------------------------------------------


   ****************************************************************************
   *************** Output of molecule and basis set information ***************
   ****************************************************************************


    The two title cards from your ".mol" input:
    ------------------------------------------------------------------------
 1:                                                                         
 2:                                                                         
    ------------------------------------------------------------------------

  Coordinates are entered in Angstrom and converted to atomic units.
          - Conversion factor : 1 bohr = 0.52917721 A

  Atomic type no.    1
  --------------------
  Nuclear charge:   7.00000
  Number of symmetry independent centers:    1
  Number of basis sets to read;    2
  The basis set is "6-311++G**" from the basis set library.
  Basis set file used for this atomic type with Z =   7 :
     "/gpfs/gss1/work/sdujk/reinholdt/Programs/dalton-private/pe-cvs/basis/6-311++G**"

  Info about the basis set file: your basis has no documentation.
  Basis set: 6-311++G**                                                                      

  Atomic type no.    2
  --------------------
  Nuclear charge:   1.00000
  Number of symmetry independent centers:    3
  Number of basis sets to read;    2
  The basis set is "6-311++G**" from the basis set library.
  Basis set file used for this atomic type with Z =   1 :
     "/gpfs/gss1/work/sdujk/reinholdt/Programs/dalton-private/pe-cvs/basis/6-311++G**"

  Info about the basis set file: your basis has no documentation.
  Basis set: 6-311++G**                                                                      

  Atomic type no.    3
  --------------------
  Nuclear charge:   8.00000
  Number of symmetry independent centers:    4
  Number of basis sets to read;    2
  The basis set is "6-31G**" from the basis set library.
  Basis set file used for this atomic type with Z =   8 :
     "/gpfs/gss1/work/sdujk/reinholdt/Programs/dalton-private/pe-cvs/basis/6-31G**"

  Info about the basis set file: your basis has no documentation.
  Basis set: 6-31G**                                                                         

  Atomic type no.    4
  --------------------
  Nuclear charge:   1.00000
  Number of symmetry independent centers:    8
  Number of basis sets to read;    2
  The basis set is "6-31G**" from the basis set library.
  Basis set file used for this atomic type with Z =   1 :
     "/gpfs/gss1/work/sdujk/reinholdt/Programs/dalton-private/pe-cvs/basis/6-31G**"

  Info about the basis set file: your basis has no documentation.
  Basis set: 6-31G**                                                                         


                         SYMGRP: Point group information
                         -------------------------------

@    Point group: C1 


                                 Isotopic Masses
                                 ---------------

                           N          14.003074
                           H           1.007825
                           H           1.007825
                           H           1.007825
                           O          15.994915
                           O          15.994915
                           O          15.994915
                           O          15.994915
                           H           1.007825
                           H           1.007825
                           H           1.007825
                           H           1.007825
                           H           1.007825
                           H           1.007825
                           H           1.007825
                           H           1.007825

                       Total mass:    89.068809 amu
                       Natural abundance:  98.514 %

 Center-of-mass coordinates (a.u.):   -0.852043   -0.507392    0.330182


  Atoms and basis sets
  --------------------

  Number of atom types :    4
  Total number of atoms:   16

  label    atoms   charge   prim   cont     basis
  ----------------------------------------------------------------------
  N           1    7.0000    35    22      [12s6p1d|5s4p1d]                                   
  H           3    1.0000     9     7      [6s1p|4s1p]                                        
  O           4    8.0000    27    14      [10s4p1d|3s2p1d]                                   
  H           8    1.0000     7     5      [4s1p|2s1p]                                        
  ----------------------------------------------------------------------
  total:     16   50.0000   226   139
  ----------------------------------------------------------------------
  Spherical harmonic basis used.

  Threshold for neglecting AO integrals:  1.00D-12


  Cartesian Coordinates (a.u.)
  ----------------------------

  Total number of coordinates:   48
  N       :     1  x   0.0000000000    2  y   0.0000000000    3  z   0.0000000000
  H       :     4  x  -0.5474479892    5  y  -1.1251939574    6  z  -1.4868610816
  H       :     7  x   1.3709131557    8  y  -1.0390111078    9  z   0.6791448926
  H       :    10  x  -1.2511158578   11  y  -0.0249273773   12  z   1.4722894034
  O       :    13  x  -2.9637500784   14  y  -3.7785300636   15  z  -2.5762768543
  O       :    16  x   3.7238206026   17  y  -4.0609212871   18  z   1.1740679442
  O       :    19  x   0.8136385907   20  y   5.0605127079   21  z  -0.5451519720
  O       :    22  x  -5.8660519324   23  y   0.4544640153   24  z   3.7728589955
  H       :    25  x  -1.6127055032   26  y  -4.7653752817   27  z  -3.3489499620
  H       :    28  x  -4.5378163515   29  y  -3.9430533995   30  z  -3.7632383998
  H       :    31  x   5.2128303028   32  y  -4.7569074190   33  z   0.3287159697
  H       :    34  x   2.3565470594   35  y  -4.1347188718   36  z  -0.0657964842
  H       :    37  x   2.5751505775   38  y   5.7765223778   39  z  -0.0815719179
  H       :    40  x   0.7501041086   41  y   3.1507989497   42  z  -0.3968424862
  H       :    43  x  -6.5953747228   44  y   1.1739696784   45  z   2.2707969570
  H       :    46  x  -4.8997026839   47  y   1.7370853870   48  z   4.6008991890


   Interatomic separations (in Angstrom):
   --------------------------------------

            N           H           H           H           O           O     
            ------      ------      ------      ------      ------      ------
 N     :    0.000000
 H     :    1.028364    0.000000
 H     :    0.978647    1.531794    0.000000
 H     :    1.022497    1.711650    1.545748    0.000000
 O     :    2.883812    1.984629    3.214160    3.058879    0.000000
 O     :    2.981121    3.083009    2.043547    3.393680    4.060153    0.000000
 O     :    2.727599    3.388484    3.305289    3.094442    5.198956    5.147603
 O     :    3.698626    4.045612    4.239208    2.740508    4.320275    5.775263
 H     :    3.198135    2.235927    3.305275    3.583078    0.975210    3.720551
 H     :    3.753109    2.851930    4.202924    3.872943    1.046866    5.093466
 H     :    3.738472    3.729347    2.835219    4.282152    4.620922    0.978072
 H     :    2.518658    2.337374    1.763821    3.006142    3.118778    0.977496
 H     :    3.347073    4.077040    3.684547    3.768382    5.991679    5.283070
 H     :    1.726746    2.433979    2.312550    2.218999    4.317199    4.210856
 H     :    3.743108    3.959419    4.455546    2.928989    4.140117    6.150594
 H     :    3.673604    4.239882    4.180416    2.708905    4.898300    5.790205

            O           O           H           H           H           H     
            ------      ------      ------      ------      ------      ------
 O     :    0.000000
 O     :    4.863803    0.000000
 H     :    5.557532    5.186418    0.000000
 H     :    5.798255    4.670424    1.622782    0.000000
 H     :    5.711641    6.730380    4.102855    5.612312    0.000000
 H     :    4.940448    5.381163    2.746210    4.141131    1.560948    0.000000
 H     :    1.035688    5.660832    6.246656    6.664674    5.750256    5.246085
 H     :    1.014177    4.377487    4.642414    5.009536    4.820284    3.951824
 H     :    4.671417    0.962141    5.066975    4.325908    7.067650    5.644581
 H     :    4.432764    0.956128    5.706446    5.353687    6.749589    5.522473

            H           H           H           H     
            ------      ------      ------      ------
 H     :    0.000000
 H     :    1.700349    0.000000
 H     :    5.570597    4.265714    0.000000
 H     :    5.133729    4.061114    1.553816    0.000000


  Max    interatomic separation is    7.0677 Angstrom (   13.3559 Bohr)
  between atoms   15 and   11, "H     " and "H     ".

  Min HX interatomic separation is    0.9561 Angstrom (    1.8068 Bohr)

  Min YX interatomic separation is    2.7276 Angstrom (    5.1544 Bohr)


  Bond distances (Angstrom):
  --------------------------

                  atom 1     atom 2       distance
                  ------     ------       --------
  bond distance:  H          N            1.028364
  bond distance:  H          N            0.978647
  bond distance:  H          N            1.022497
  bond distance:  H          O            0.975210
  bond distance:  H          O            1.046866
  bond distance:  H          O            0.978072
  bond distance:  H          O            0.977496
  bond distance:  H          O            1.035688
  bond distance:  H          O            1.014177
  bond distance:  H          O            0.962141
  bond distance:  H          O            0.956128


  Bond angles (degrees):
  ----------------------

                  atom 1     atom 2     atom 3         angle
                  ------     ------     ------         -----
  bond angle:     H          N          H             99.468
  bond angle:     H          N          H            113.148
  bond angle:     H          N          H            101.123
  bond angle:     H          O          H            106.692
  bond angle:     H          O          H            105.918
  bond angle:     H          O          H            112.089
  bond angle:     H          O          H            108.193




 Principal moments of inertia (u*A**2) and principal axes
 --------------------------------------------------------

   IA     356.232876          0.680719   -0.686091   -0.256712
   IB     418.933396          0.698951    0.713220   -0.052761
   IC     576.457040          0.219291   -0.143514    0.965047


 Rotational constants
 --------------------

               A                   B                   C

           1418.6759           1206.3469            876.6985 MHz
            0.047322            0.040239            0.029244 cm-1


@  Nuclear repulsion energy :  183.073223734266 Hartree

  Reading potential input file for polarizable embedding calculation
 
    .------------------------------------------------.
    | Information from polarizable embedding library |
    `------------------------------------------------´

      Number of classical sites:    177

      Multipole moments upto 0th order.

      Dipole-dipole polarizabilities.

      Iterative solver for induced moments will be used
      with convergence threshold: 1.0E-08
      Total charge of classical region:    0.0000
 


                     .---------------------------------------.
                     | Starting in Integral Section (HERMIT) |
                     `---------------------------------------'



 ***************************************************************************************
 ****************** Output from **INTEGRALS input processing (HERMIT) ******************
 ***************************************************************************************



    *************************************************************************
    ****************** Output from HERMIT input processing ******************
    *************************************************************************


 Default print level:        1

 * Nuclear model: Point charge

 Calculation of one- and two-electron Hamiltonian integrals.

 The following one-electron property integrals are calculated as requested:
          - overlap integrals
          - dipole length integrals

 Center of mass  (bohr):     -0.852042931295     -0.507391989554      0.330181864489
 Operator center (bohr):      0.000000000000      0.000000000000      0.000000000000
 Gauge origin    (bohr):      0.000000000000      0.000000000000      0.000000000000
 Dipole origin   (bohr):      0.000000000000      0.000000000000      0.000000000000


     ************************************************************************
     ************************** Output from HERINT **************************
     ************************************************************************



                      Nuclear contribution to dipole moments
                      --------------------------------------

                 au               Debye          C m (/(10**-30)

      x    -41.51736044      -105.52659762      -351.99884053
      y    -26.54660804       -67.47474297      -225.07151589
      z     14.81257099        37.64979762       125.58620676


  Time used in POPOVLP    is       0.10 seconds

 Threshold for neglecting two-electron integrals:  1.00D-12
 HERMIT - Number of two-electron integrals written:    23360207 ( 49.3% )
 HERMIT - Megabytes written:                            267.487

  Time used in TWOINT     is       5.76 seconds
  Total CPU  time used in HERMIT:   6.24 seconds
  Total wall time used in HERMIT:   5.46 seconds


                        .----------------------------------.
                        | End of Integral Section (HERMIT) |
                        `----------------------------------'



                   .--------------------------------------------.
                   | Starting in Wave Function Section (SIRIUS) |
                   `--------------------------------------------'

 INPUT: SIMPLE =  F
NCCEXCI for singlet:   15
 CCSD_INPUT: core-val requested
 Requested number of core orbs per sym
                     1
 Indices of requested core orbs
                     1

 *** Output from Huckel module :

     Using EWMO model:          T
     Using EHT  model:          F
     Number of Huckel orbitals each symmetry:   36

 EWMO - Energy Weighted Maximum Overlap - is a Huckel type method,
        which normally is better than Extended Huckel Theory.
 Reference: Linderberg and Ohrn, Propagators in Quantum Chemistry (Wiley, 1973)

 Huckel EWMO eigenvalues for symmetry :  1
          -20.684941     -20.684706     -20.684252     -20.684025     -15.674299
           -1.756025      -1.611654      -1.589881      -1.579552      -1.441409
           -0.842181      -0.792638      -0.788212      -0.785638      -0.733949
           -0.710084      -0.685551      -0.681994      -0.678524      -0.658182
           -0.616014      -0.615359      -0.597781      -0.581449      -0.509841
           -0.262033      -0.241275      -0.233933      -0.232595      -0.185109
           -0.180177      -0.170432      -0.167976      -0.157303      -0.142964
           -0.133861

 **********************************************************************
 *SIRIUS* a direct, restricted step, second order MCSCF program       *
 **********************************************************************

 
     Date and time (Linux)  : Thu Dec 20 05:47:45 2018
     Host name              : s71p34.deic.sdu.dk                      

 Title lines from ".mol" input file:
                                                                             
                                                                             

 Print level on unit LUPRI =   2 is   0
 Print level on unit LUW4  =   2 is  11

@    (Integral direct) CC calculation.

@    This is a combination run starting with
@              a restricted, closed shell Hartree-Fock calculation


 Initial molecular orbitals are obtained according to
 ".MOSTART EWMO  " input option

@    QM part is embedded in an environment :

@         Model: PE

     Wave function specification
     ============================

     For the specification of the Coupled Cluster: see later.


     Wave function environment is modeled using the
     polarizable embedding model (PE library).

@    Wave function type        --- PE-CC ---
@    Number of closed shell electrons          50
@    Number of electrons in active shells       0
@    Total charge of the molecule               0

@    Spin multiplicity and 2 M_S                1         0
@    Total number of symmetries                 1 (point group: C1 )
@    Reference state symmetry                   1 (irrep name : A  )

     Orbital specifications
     ======================
@    Abelian symmetry species          All |    1
@                                          |  A  
                                       --- |  ---
@    Occupied SCF orbitals              25 |   25
@    Secondary orbitals                114 |  114
@    Total number of orbitals          139 |  139
@    Number of basis functions         139 |  139

     Optimization information
     ========================
@    Number of configurations                 1
@    Number of orbital rotations           2850
     ------------------------------------------
@    Total number of variables             2851

     Maximum number of Fock   iterations      0
     Maximum number of DIIS   iterations     60
     Maximum number of QC-SCF iterations     60
     Threshold for SCF convergence     1.00D-07


 Changes of defaults for CC:
 ---------------------------


 -Implicit frozen core calculation
 -Excitation energies calculated
 -One-photon absorption strengths will be calculated
 -Oscillator strengths calculated
  
* Read MO coefficients from SIRIUS.RST with label "NEWORB  " and header info: 20Dec18  REORTHO 


 ***********************************************
 ***** DIIS acceleration of SCF iterations *****
 ***********************************************

 C1-DIIS algorithm; max error vectors =    8
 -----------------------------------------------------------------------------

 *** DIIS iteration number    1
 RDSUPM called. NFMAT, ISYMDM(1:NFMAT)                     1
                     1

Calculating AOSUPINT
     (Precalculated AO two-electron integrals are transformed to P-supermatrix elements.
      Threshold for discarding integrals :  1.00D-12 )
  CPU  time used in FORMSUP    is   2.25 seconds
  WALL time used in FORMSUP    is   4.27 seconds

 ITDIIS, energy, error norm, change in energy, scr.thr., difden:
@ DIIS iter.   1    -359.842895047        3.56592D+00   -3.60D+02  -20    F

 (DIIS_RED) Control Parameters C2DIIS =         F NEVC =    1


 (DIIS_RED) B matrix:

               Column   1
       1      12.71581028
    ==== End of matrix output ====

 DIIS C vector; C2DIIS = F, LAMBDA = -1.27D+01
    1.000000
* Read MO coefficients from SIRIUS.RST with label "NEWORB  " and header info: 20Dec18  DIIS   1
      Virial theorem: -V/T =      2.000904
@    MULPOP   N      -0.68; H       0.17; H       0.23; H       0.19; O      -0.50; O      -0.57; O      -0.77; O      -0.56; H       0.31; H       0.27; 
@             H       0.28; H       0.34; H       0.27; H       0.41; H       0.29; H       0.31; 
   1  Level shift: doubly occupied orbital energies shifted by -2.00D-01

 DIIS Fock eigenvalues in symmetry 1
      -20.75117      -20.74452      -20.73473      -20.54892      -15.97947
       -1.56462       -1.54397       -1.51876       -1.46296       -1.42500
       -0.96993       -0.95321       -0.92740       -0.92269       -0.88996
       -0.85970       -0.80242       -0.78889       -0.77845       -0.75728
       -0.74112       -0.73837       -0.72730       -0.67297       -0.64187
        0.06445        0.11352        0.12213        0.17372        0.21364
        0.23208        0.24492        0.25827        0.28179        0.30469
        0.31450        0.32702        0.33717        0.36445        0.38676
        0.40095        0.40747        0.48912        0.59559        0.63448
        0.76303        0.83536        0.92964        0.96029        0.97222
        1.00821        1.04203        1.04418        1.07246        1.09345
        1.09518        1.11290        1.15599        1.17939        1.18264
        1.19971        1.23655        1.25476        1.27451        1.28263
        1.29426        1.29841        1.31070        1.36981        1.40059
        1.40676        1.43834        1.56549        1.60087        1.65122
        1.68844        1.71790        1.74987        1.75671        1.76510
        1.79690        1.81621        1.83748        1.84412        1.85646
        1.87088        1.89404        1.90795        1.93144        1.96193
        1.99205        2.03605        2.21098        2.26741        2.45555
        2.46513        2.48552        2.49303        2.50752        2.51901
        2.55673        2.58652        2.64686        2.68590        2.70603
        2.73399        2.75053        2.78821        2.80572        2.83857
        2.84953        2.88525        2.90653        2.91563        2.93351
        2.94257        2.95102        2.97313        3.03645        3.05849
        3.10619        3.26709        3.29057        3.29803        3.33826
        3.34961        3.46394        3.64694        3.68850        3.73563
        3.75047        3.87777        3.88200        3.89917        3.90918
        4.48776        5.04835        5.08395       36.84730
 Time used in FCKEIG, thr_jaco:   1.18D-01  4.50D-02  1.67D-04
 CPU and wall times used in FCKEIG, THR_FCKEIG:   1.19D-01  4.50D-02  3.57D-02
 -----------------------------------------------------------------------------

 *** DIIS iteration number    2
 RDSUPM called. NFMAT, ISYMDM(1:NFMAT)                     1
                     1

 ITDIIS, energy, error norm, change in energy, scr.thr., difden:
@ DIIS iter.   2    -360.652865792        8.86208D-01   -8.10D-01  -20    F

 (DIIS_RED) Control Parameters C2DIIS =         F NEVC =    2


 (DIIS_RED) B matrix:

               Column   1     Column   2
       1      12.71581028
       2       1.37510036     0.78536513
    ==== End of matrix output ====

 DIIS C vector; C2DIIS = F, LAMBDA = -7.53D-01
   -0.054854    1.054854
* Read MO coefficients from SIRIUS.RST with label "NEWORB  " and header info: 20Dec18  DIIS   2
      Virial theorem: -V/T =      2.004671
@    MULPOP   N      -0.91; H       0.25; H       0.26; H       0.27; O      -0.70; O      -0.64; O      -0.78; O      -0.68; H       0.39; H       0.38; 
@             H       0.36; H       0.32; H       0.33; H       0.44; H       0.35; H       0.36; 
   2  Level shift: doubly occupied orbital energies shifted by -5.00D-02

 DIIS Fock eigenvalues in symmetry 1
      -20.67645      -20.66135      -20.60884      -20.59080      -15.44962
       -1.40659       -1.36751       -1.35586       -1.35029       -1.15279
       -0.77233       -0.73656       -0.72759       -0.70967       -0.65898
       -0.64968       -0.63706       -0.61663       -0.61368       -0.60071
       -0.57892       -0.55991       -0.54486       -0.54166       -0.45001
        0.09338        0.12511        0.13804        0.20778        0.24297
        0.26425        0.27528        0.30368        0.31596        0.34115
        0.35521        0.36420        0.37175        0.41545        0.42960
        0.44678        0.45506        0.52125        0.66765        0.70650
        0.85220        0.93577        1.02347        1.04402        1.05279
        1.06683        1.08660        1.09603        1.10543        1.13317
        1.15130        1.15408        1.19260        1.19695        1.20722
        1.22198        1.22914        1.27555        1.30948        1.31948
        1.32419        1.33916        1.36583        1.38500        1.43527
        1.45143        1.50790        1.61348        1.65162        1.70338
        1.75975        1.77074        1.79518        1.80590        1.82058
        1.83077        1.86273        1.87813        1.89205        1.89547
        1.91948        1.93490        1.94574        2.00307        2.01021
        2.03701        2.09048        2.33744        2.37953        2.50198
        2.51559        2.54267        2.55606        2.58891        2.59008
        2.60936        2.66312        2.71845        2.74966        2.76431
        2.81152        2.81353        2.84790        2.88308        2.90142
        2.92630        2.95109        2.98563        3.00325        3.01111
        3.01505        3.02888        3.07006        3.10215        3.16732
        3.23237        3.30692        3.34552        3.35872        3.41118
        3.52685        3.65813        3.71461        3.74001        3.75918
        3.82660        3.91206        3.93280        3.93741        3.94629
        4.71847        5.29516        5.33299       37.22090
 Time used in FCKEIG, thr_jaco:   7.95D-02  2.00D-02  4.15D-05
 CPU and wall times used in FCKEIG, THR_FCKEIG:   7.96D-02  2.00D-02  8.86D-03
 -----------------------------------------------------------------------------

 *** DIIS iteration number    3
 RDSUPM called. NFMAT, ISYMDM(1:NFMAT)                     1
                     1

 ITDIIS, energy, error norm, change in energy, scr.thr., difden:
@ DIIS iter.   3    -360.714072639        3.52326D-01   -6.12D-02  -20    F

 (DIIS_RED) Control Parameters C2DIIS =         F NEVC =    3


 (DIIS_RED) B matrix:

               Column   1     Column   2     Column   3
       1      12.71581028
       2       1.37510036     0.78536513
       3       0.61688020     0.02363490     0.12413370
    ==== End of matrix output ====

 DIIS C vector; C2DIIS = F, LAMBDA = -7.97D-02
   -0.055143    0.171475    0.883668
* Read MO coefficients from SIRIUS.RST with label "NEWORB  " and header info: 20Dec18  DIIS   3
      Virial theorem: -V/T =      2.003338
@    MULPOP   N      -0.85; H       0.23; H       0.24; H       0.24; O      -0.82; O      -0.75; O      -0.93; O      -0.77; H       0.44; H       0.43; 
@             H       0.42; H       0.36; H       0.42; H       0.51; H       0.40; H       0.40; 
   3  Level shift: doubly occupied orbital energies shifted by -2.50D-02

 DIIS Fock eigenvalues in symmetry 1
      -20.58637      -20.56071      -20.55569      -20.51381      -15.56672
       -1.36339       -1.33845       -1.31295       -1.28522       -1.16680
       -0.73206       -0.70553       -0.67724       -0.66985       -0.65080
       -0.63241       -0.60530       -0.58323       -0.56571       -0.54752
       -0.53472       -0.50776       -0.50029       -0.48239       -0.44847
        0.09493        0.12613        0.14057        0.21130        0.24402
        0.26464        0.27746        0.30777        0.32033        0.34629
        0.36125        0.36550        0.37405        0.41673        0.43127
        0.45110        0.45600        0.53169        0.66208        0.70025
        0.84936        0.93032        1.02576        1.03109        1.05269
        1.06713        1.09485        1.09929        1.11604        1.15000
        1.15955        1.16323        1.20518        1.22087        1.23076
        1.24014        1.24715        1.28564        1.31988        1.32757
        1.33097        1.35229        1.36430        1.40712        1.43658
        1.45490        1.50957        1.62340        1.65738        1.71486
        1.77023        1.78339        1.81452        1.82044        1.83324
        1.84572        1.88206        1.89127        1.90194        1.91111
        1.93186        1.95256        1.96267        2.00867        2.01991
        2.04368        2.09273        2.32583        2.37049        2.51867
        2.52893        2.55423        2.56830        2.59515        2.59727
        2.61786        2.68208        2.71629        2.76109        2.77642
        2.81909        2.82546        2.85593        2.89333        2.91055
        2.94076        2.94491        2.98619        3.00651        3.01095
        3.02248        3.03623        3.04745        3.10774        3.16474
        3.21688        3.32275        3.35378        3.36809        3.41845
        3.48625        3.61775        3.72426        3.76254        3.77325
        3.83500        3.93565        3.94590        3.94694        3.96229
        4.64965        5.23482        5.27145       37.08314
 Time used in FCKEIG, thr_jaco:   6.98D-02  1.80D-02  1.65D-05
 CPU and wall times used in FCKEIG, THR_FCKEIG:   6.99D-02  1.80D-02  3.52D-03
 -----------------------------------------------------------------------------

 *** DIIS iteration number    4
 RDSUPM called. NFMAT, ISYMDM(1:NFMAT)                     1
                     1

 ITDIIS, energy, error norm, change in energy, scr.thr., difden:
@ DIIS iter.   4    -360.722343605        9.86626D-02   -8.27D-03  -20    F

 (DIIS_RED) Control Parameters C2DIIS =         F NEVC =    4


 (DIIS_RED) B matrix:

               Column   1     Column   2     Column   3     Column   4
       1      12.71581028
       2       1.37510036     0.78536513
       3       0.61688020     0.02363490     0.12413370
       4       0.03949630     0.06751718    -0.00725431     0.00973431
    ==== End of matrix output ====

 DIIS C vector; C2DIIS = F, LAMBDA = -3.18D-03
    0.002436   -0.088644    0.088672    0.997536
* Read MO coefficients from SIRIUS.RST with label "NEWORB  " and header info: 20Dec18  DIIS   4
      Virial theorem: -V/T =      2.004029
@    MULPOP   N      -0.91; H       0.25; H       0.26; H       0.26; O      -0.84; O      -0.76; O      -0.92; O      -0.80; H       0.45; H       0.44; 
@             H       0.43; H       0.36; H       0.43; H       0.51; H       0.41; H       0.42; 
   4  Level shift: doubly occupied orbital energies shifted by -1.25D-02

 DIIS Fock eigenvalues in symmetry 1
      -20.58723      -20.55157      -20.54925      -20.53403      -15.52604
       -1.35647       -1.32688       -1.30376       -1.28293       -1.14558
       -0.72367       -0.69417       -0.66739       -0.66231       -0.63273
       -0.61367       -0.59534       -0.56930       -0.55370       -0.54138
       -0.52363       -0.49211       -0.48701       -0.47684       -0.42769
        0.09491        0.12635        0.14130        0.21197        0.24503
        0.26516        0.27870        0.30687        0.31963        0.34499
        0.35966        0.36618        0.37387        0.41753        0.43175
        0.45011        0.45665        0.53248        0.66544        0.70379
        0.85239        0.93341        1.02897        1.03229        1.05507
        1.06790        1.09237        1.09724        1.11287        1.14866
        1.15743        1.16154        1.20690        1.22023        1.22868
        1.23708        1.24473        1.28547        1.31897        1.32761
        1.33102        1.35097        1.36661        1.40283        1.43858
        1.45482        1.51086        1.62185        1.65653        1.71260
        1.76908        1.78266        1.81171        1.81887        1.83207
        1.84323        1.88027        1.88943        1.90181        1.90875
        1.93065        1.95226        1.95952        2.01095        2.01907
        2.04443        2.09440        2.33063        2.37510        2.51569
        2.52694        2.55045        2.56530        2.59288        2.59456
        2.61776        2.67867        2.71896        2.76056        2.77433
        2.82041        2.82306        2.85542        2.89265        2.90875
        2.93677        2.94825        2.98660        3.00739        3.00996
        3.01988        3.03529        3.05492        3.10902        3.16807
        3.22241        3.32061        3.35163        3.36537        3.41702
        3.49751        3.62926        3.72135        3.75769        3.76876
        3.83294        3.93332        3.94388        3.94578        3.95903
        4.66616        5.24917        5.28623       37.11083
 Time used in FCKEIG, thr_jaco:   5.86D-02  1.60D-02  4.62D-06
 CPU and wall times used in FCKEIG, THR_FCKEIG:   5.87D-02  1.60D-02  9.87D-04
 -----------------------------------------------------------------------------

 *** DIIS iteration number    5
 RDSUPM called. NFMAT, ISYMDM(1:NFMAT)                     1
                     1

 ITDIIS, energy, error norm, change in energy, scr.thr., difden:
@ DIIS iter.   5    -360.723300370        2.07616D-02   -9.57D-04  -20    F

 (DIIS_RED) Control Parameters C2DIIS =         F NEVC =    5


 (DIIS_RED) B matrix:

               Column   1     Column   2     Column   3     Column   4     Column   5
       1      12.71581028
       2       1.37510036     0.78536513
       3       0.61688020     0.02363490     0.12413370
       4       0.03949630     0.06751718    -0.00725431     0.00973431
       5       0.00958559     0.00452065     0.00376294     0.00076151     0.00043105
    ==== End of matrix output ====

 DIIS C vector; C2DIIS = F, LAMBDA = -2.46D-04
    0.001532    0.004867   -0.051183   -0.145975    1.190759
* Read MO coefficients from SIRIUS.RST with label "NEWORB  " and header info: 20Dec18  DIIS   5
      Virial theorem: -V/T =      2.003814
@    MULPOP   N      -0.91; H       0.25; H       0.25; H       0.26; O      -0.85; O      -0.77; O      -0.94; O      -0.81; H       0.46; H       0.45; 
@             H       0.44; H       0.37; H       0.44; H       0.52; H       0.42; H       0.42; 

 DIIS Fock eigenvalues in symmetry 1
      -20.57307      -20.53699      -20.53630      -20.51610      -15.51026
       -1.34329       -1.31412       -1.29054       -1.26840       -1.13189
       -0.71096       -0.68196       -0.65433       -0.64932       -0.61967
       -0.60028       -0.58250       -0.55685       -0.54076       -0.52725
       -0.50989       -0.47850       -0.47305       -0.46158       -0.41392
        0.09498        0.12642        0.14144        0.21232        0.24513
        0.26526        0.27896        0.30699        0.31970        0.34489
        0.35955        0.36629        0.37383        0.41757        0.43185
        0.45017        0.45698        0.53287        0.66579        0.70406
        0.85296        0.93403        1.02893        1.03286        1.05521
        1.06788        1.09271        1.09698        1.11294        1.14924
        1.15739        1.16162        1.20726        1.22141        1.22979
        1.23839        1.24589        1.28613        1.31919        1.32788
        1.33116        1.35148        1.36718        1.40365        1.43912
        1.45517        1.51139        1.62232        1.65664        1.71297
        1.76952        1.78317        1.81214        1.81918        1.83218
        1.84356        1.88087        1.88990        1.90192        1.90922
        1.93111        1.95253        1.96038        2.01148        2.01987
        2.04520        2.09519        2.33129        2.37542        2.51580
        2.52691        2.55025        2.56531        2.59236        2.59395
        2.61763        2.67915        2.71956        2.76119        2.77427
        2.82056        2.82327        2.85511        2.89305        2.90844
        2.93688        2.94839        2.98689        3.00749        3.00971
        3.01962        3.03487        3.05563        3.10936        3.16846
        3.22309        3.32066        3.35141        3.36512        3.41650
        3.49855        3.63037        3.72097        3.75806        3.76858
        3.83252        3.93388        3.94394        3.94546        3.95905
        4.66769        5.25078        5.28778       37.11404
 Time used in FCKEIG, thr_jaco:   6.02D-02  1.50D-02  9.72D-07
 CPU and wall times used in FCKEIG, THR_FCKEIG:   6.04D-02  1.50D-02  2.08D-04
 -----------------------------------------------------------------------------

 *** DIIS iteration number    6
 RDSUPM called. NFMAT, ISYMDM(1:NFMAT)                     1
                     1

 ITDIIS, energy, error norm, change in energy, scr.thr., difden:
@ DIIS iter.   6    -360.723368456        6.57442D-03   -6.81D-05  -20    F

 (DIIS_RED) Control Parameters C2DIIS =         F NEVC =    6


 (DIIS_RED) B matrix:

               Column   1     Column   2     Column   3     Column   4     Column   5     Column   6
       1      12.71581028
       2       1.37510036     0.78536513
       3       0.61688020     0.02363490     0.12413370
       4       0.03949630     0.06751718    -0.00725431     0.00973431
       5       0.00958559     0.00452065     0.00376294     0.00076151     0.00043105
       6      -0.00219793    -0.00033388     0.00037937     0.00017297     0.00005276     0.00004322
    ==== End of matrix output ====

 DIIS C vector; C2DIIS = F, LAMBDA = -2.52D-05
    0.000301    0.006899   -0.014915   -0.085802    0.145088    0.948430
* Read MO coefficients from SIRIUS.RST with label "NEWORB  " and header info: 20Dec18  DIIS   6
      Virial theorem: -V/T =      2.003936
@    MULPOP   N      -0.91; H       0.25; H       0.25; H       0.26; O      -0.85; O      -0.77; O      -0.94; O      -0.81; H       0.46; H       0.45; 
@             H       0.44; H       0.37; H       0.44; H       0.52; H       0.42; H       0.43; 

 DIIS Fock eigenvalues in symmetry 1
      -20.57367      -20.53818      -20.53656      -20.51815      -15.51300
       -1.34347       -1.31416       -1.29093       -1.26891       -1.13275
       -0.71124       -0.68212       -0.65486       -0.64982       -0.62041
       -0.60097       -0.58284       -0.55705       -0.54131       -0.52784
       -0.51004       -0.47840       -0.47332       -0.46192       -0.41465
        0.09495        0.12641        0.14144        0.21226        0.24508
        0.26519        0.27888        0.30687        0.31956        0.34471
        0.35940        0.36616        0.37373        0.41740        0.43168
        0.44998        0.45674        0.53259        0.66554        0.70381
        0.85269        0.93361        1.02867        1.03234        1.05491
        1.06764        1.09237        1.09675        1.11273        1.14908
        1.15714        1.16145        1.20713        1.22114        1.22951
        1.23801        1.24562        1.28580        1.31889        1.32763
        1.33099        1.35117        1.36681        1.40325        1.43873
        1.45483        1.51098        1.62204        1.65657        1.71274
        1.76923        1.78279        1.81190        1.81891        1.83203
        1.84324        1.88053        1.88959        1.90178        1.90898
        1.93081        1.95238        1.96007        2.01112        2.01948
        2.04486        2.09477        2.33075        2.37489        2.51559
        2.52656        2.55004        2.56507        2.59204        2.59379
        2.61752        2.67884        2.71911        2.76082        2.77391
        2.82029        2.82296        2.85496        2.89277        2.90811
        2.93659        2.94787        2.98651        3.00715        3.00946
        3.01927        3.03473        3.05490        3.10906        3.16800
        3.22252        3.32040        3.35109        3.36485        3.41635
        3.49754        3.62934        3.72061        3.75771        3.76833
        3.83235        3.93350        3.94358        3.94529        3.95880
        4.66622        5.24940        5.28639       37.11136
 Time used in FCKEIG, thr_jaco:   6.01D-02  1.60D-02  3.08D-07
 CPU and wall times used in FCKEIG, THR_FCKEIG:   6.03D-02  1.60D-02  6.57D-05
 -----------------------------------------------------------------------------

 *** DIIS iteration number    7
 RDSUPM called. NFMAT, ISYMDM(1:NFMAT)                     1
                     1

 ITDIIS, energy, error norm, change in energy, scr.thr., difden:
@ DIIS iter.   7    -360.723373312        2.15609D-03   -4.86D-06  -20    F

 (DIIS_RED) Control Parameters C2DIIS =         F NEVC =    7


 (DIIS_RED) B matrix:

               Column   1     Column   2     Column   3     Column   4     Column   5     Column   6
       1      12.71581028
       2       1.37510036     0.78536513
       3       0.61688020     0.02363490     0.12413370
       4       0.03949630     0.06751718    -0.00725431     0.00973431
       5       0.00958559     0.00452065     0.00376294     0.00076151     0.00043105
       6      -0.00219793    -0.00033388     0.00037937     0.00017297     0.00005276     0.00004322
       7       0.00077593     0.00005937     0.00008625     0.00000488     0.00002770    -0.00000062

               Column   7
       7       0.00000465
    ==== End of matrix output ====

 DIIS C vector; C2DIIS = F, LAMBDA = -1.09D-06
   -0.000212   -0.000825    0.006114    0.021347   -0.151506    0.069091    1.055991
* Read MO coefficients from SIRIUS.RST with label "NEWORB  " and header info: 20Dec18  DIIS   7
      Virial theorem: -V/T =      2.003905
@    MULPOP   N      -0.91; H       0.25; H       0.25; H       0.26; O      -0.85; O      -0.78; O      -0.94; O      -0.81; H       0.46; H       0.45; 
@             H       0.44; H       0.37; H       0.44; H       0.52; H       0.42; H       0.43; 

 DIIS Fock eigenvalues in symmetry 1
      -20.57359      -20.53790      -20.53653      -20.51747      -15.51242
       -1.34343       -1.31412       -1.29083       -1.26860       -1.13256
       -0.71122       -0.68212       -0.65472       -0.64968       -0.62028
       -0.60085       -0.58287       -0.55709       -0.54128       -0.52763
       -0.50998       -0.47832       -0.47317       -0.46157       -0.41442
        0.09496        0.12642        0.14147        0.21230        0.24512
        0.26522        0.27894        0.30686        0.31961        0.34475
        0.35943        0.36619        0.37375        0.41744        0.43171
        0.45000        0.45678        0.53275        0.66562        0.70388
        0.85275        0.93372        1.02870        1.03247        1.05499
        1.06769        1.09248        1.09677        1.11276        1.14912
        1.15716        1.16149        1.20715        1.22128        1.22964
        1.23818        1.24576        1.28589        1.31897        1.32769
        1.33104        1.35127        1.36687        1.40342        1.43887
        1.45491        1.51104        1.62211        1.65661        1.71278
        1.76927        1.78290        1.81196        1.81897        1.83207
        1.84332        1.88063        1.88968        1.90180        1.90904
        1.93086        1.95243        1.96022        2.01120        2.01962
        2.04496        2.09488        2.33084        2.37497        2.51572
        2.52661        2.55003        2.56508        2.59204        2.59379
        2.61754        2.67899        2.71919        2.76093        2.77395
        2.82036        2.82301        2.85498        2.89283        2.90815
        2.93668        2.94796        2.98656        3.00721        3.00949
        3.01928        3.03474        3.05507        3.10921        3.16808
        3.22264        3.32054        3.35113        3.36486        3.41636
        3.49776        3.62956        3.72062        3.75786        3.76833
        3.83236        3.93369        3.94365        3.94531        3.95881
        4.66656        5.24968        5.28667       37.11192
 Time used in FCKEIG, thr_jaco:   5.96D-02  1.50D-02  1.01D-07
 CPU and wall times used in FCKEIG, THR_FCKEIG:   5.97D-02  1.50D-02  2.16D-05
 -----------------------------------------------------------------------------

 *** DIIS iteration number    8
 RDSUPM called. NFMAT, ISYMDM(1:NFMAT)                     1
                     1

 ITDIIS, energy, error norm, change in energy, scr.thr., difden:
@ DIIS iter.   8    -360.723373780        3.37347D-04   -4.68D-07  -20    F

 (DIIS_RED) Control Parameters C2DIIS =         F NEVC =    8


 (DIIS_RED) B matrix:

               Column   1     Column   2     Column   3     Column   4     Column   5     Column   6
       1      12.71581028
       2       1.37510036     0.78536513
       3       0.61688020     0.02363490     0.12413370
       4       0.03949630     0.06751718    -0.00725431     0.00973431
       5       0.00958559     0.00452065     0.00376294     0.00076151     0.00043105
       6      -0.00219793    -0.00033388     0.00037937     0.00017297     0.00005276     0.00004322
       7       0.00077593     0.00005937     0.00008625     0.00000488     0.00002770    -0.00000062
       8       0.00000775    -0.00000575     0.00000611    -0.00000007     0.00000110     0.00000105

               Column   7     Column   8
       7       0.00000465
       8       0.00000022     0.00000011
    ==== End of matrix output ====

 DIIS C vector; C2DIIS = F, LAMBDA = -7.15D-08
    0.000006   -0.000204    0.000049    0.001745    0.006505   -0.043472   -0.083693    1.119063
* Read MO coefficients from SIRIUS.RST with label "NEWORB  " and header info: 20Dec18  DIIS   8
      Virial theorem: -V/T =      2.003920
@    MULPOP   N      -0.91; H       0.25; H       0.25; H       0.26; O      -0.85; O      -0.78; O      -0.94; O      -0.81; H       0.46; H       0.45; 
@             H       0.44; H       0.37; H       0.44; H       0.52; H       0.42; H       0.43; 

 DIIS Fock eigenvalues in symmetry 1
      -20.57356      -20.53794      -20.53653      -20.51749      -15.51245
       -1.34342       -1.31413       -1.29084       -1.26860       -1.13256
       -0.71121       -0.68212       -0.65472       -0.64969       -0.62029
       -0.60085       -0.58286       -0.55710       -0.54130       -0.52764
       -0.50996       -0.47832       -0.47317       -0.46156       -0.41443
        0.09496        0.12642        0.14146        0.21230        0.24512
        0.26522        0.27894        0.30687        0.31961        0.34474
        0.35943        0.36619        0.37375        0.41744        0.43171
        0.45001        0.45678        0.53274        0.66561        0.70388
        0.85276        0.93372        1.02870        1.03246        1.05499
        1.06769        1.09248        1.09676        1.11276        1.14912
        1.15716        1.16148        1.20715        1.22127        1.22964
        1.23818        1.24575        1.28589        1.31897        1.32769
        1.33104        1.35127        1.36687        1.40342        1.43886
        1.45490        1.51104        1.62211        1.65660        1.71278
        1.76928        1.78289        1.81197        1.81896        1.83207
        1.84332        1.88063        1.88967        1.90179        1.90904
        1.93086        1.95243        1.96022        2.01120        2.01961
        2.04496        2.09487        2.33084        2.37496        2.51571
        2.52659        2.55004        2.56509        2.59203        2.59378
        2.61754        2.67899        2.71919        2.76093        2.77394
        2.82035        2.82301        2.85497        2.89283        2.90814
        2.93669        2.94795        2.98656        3.00721        3.00948
        3.01928        3.03473        3.05506        3.10919        3.16808
        3.22263        3.32053        3.35113        3.36486        3.41636
        3.49775        3.62955        3.72060        3.75786        3.76834
        3.83235        3.93367        3.94364        3.94530        3.95882
        4.66654        5.24967        5.28666       37.11190
 Time used in FCKEIG, thr_jaco:   6.01D-02  1.50D-02  1.58D-08
 CPU and wall times used in FCKEIG, THR_FCKEIG:   6.02D-02  1.50D-02  3.37D-06
 -----------------------------------------------------------------------------

 *** DIIS iteration number    9
 RDSUPM called. NFMAT, ISYMDM(1:NFMAT)                     1
                     1

 ITDIIS, energy, error norm, change in energy, scr.thr., difden:
@ DIIS iter.   9    -360.723373796        9.10292D-05   -1.68D-08  -20    F

 (DIIS_RED) Control Parameters C2DIIS =         F NEVC =    8


 (DIIS_RED) B matrix:

               Column   1     Column   2     Column   3     Column   4     Column   5     Column   6
       1       0.00000001
       2       0.00000512     0.78536513
       3      -0.00000168     0.02363490     0.12413370
       4       0.00000056     0.06751718    -0.00725431     0.00973431
       5       0.00000009     0.00452065     0.00376294     0.00076151     0.00043105
       6       0.00000005    -0.00033388     0.00037937     0.00017297     0.00005276     0.00004322
       7       0.00000008     0.00005937     0.00008625     0.00000488     0.00002770    -0.00000062
       8       0.00000002    -0.00000575     0.00000611    -0.00000007     0.00000110     0.00000105

               Column   7     Column   8
       7       0.00000465
       8       0.00000022     0.00000011
    ==== End of matrix output ====

 DIIS C vector; C2DIIS = F, LAMBDA = -4.47D-09
    1.166970    0.000059   -0.000193   -0.001047    0.005592    0.000754   -0.041488   -0.130646
* Read MO coefficients from SIRIUS.RST with label "NEWORB  " and header info: 20Dec18  DIIS   9
      Virial theorem: -V/T =      2.003920
@    MULPOP   N      -0.91; H       0.25; H       0.25; H       0.26; O      -0.85; O      -0.78; O      -0.94; O      -0.81; H       0.46; H       0.45; 
@             H       0.44; H       0.37; H       0.44; H       0.52; H       0.42; H       0.43; 

 DIIS Fock eigenvalues in symmetry 1
      -20.57358      -20.53792      -20.53653      -20.51749      -15.51245
       -1.34342       -1.31413       -1.29083       -1.26860       -1.13256
       -0.71121       -0.68211       -0.65472       -0.64968       -0.62029
       -0.60085       -0.58288       -0.55711       -0.54130       -0.52763
       -0.50997       -0.47832       -0.47317       -0.46156       -0.41443
        0.09496        0.12642        0.14146        0.21230        0.24512
        0.26522        0.27894        0.30686        0.31961        0.34474
        0.35943        0.36619        0.37375        0.41744        0.43171
        0.45001        0.45678        0.53274        0.66561        0.70388
        0.85275        0.93372        1.02870        1.03246        1.05499
        1.06769        1.09248        1.09676        1.11276        1.14912
        1.15716        1.16148        1.20714        1.22128        1.22964
        1.23818        1.24576        1.28589        1.31897        1.32769
        1.33104        1.35127        1.36687        1.40343        1.43886
        1.45490        1.51104        1.62211        1.65660        1.71278
        1.76927        1.78290        1.81196        1.81897        1.83207
        1.84332        1.88063        1.88968        1.90179        1.90904
        1.93086        1.95243        1.96022        2.01120        2.01961
        2.04496        2.09487        2.33084        2.37496        2.51572
        2.52660        2.55004        2.56509        2.59203        2.59379
        2.61754        2.67899        2.71919        2.76093        2.77394
        2.82035        2.82301        2.85497        2.89283        2.90814
        2.93670        2.94795        2.98656        3.00721        3.00948
        3.01928        3.03473        3.05506        3.10919        3.16807
        3.22263        3.32053        3.35113        3.36486        3.41636
        3.49775        3.62955        3.72060        3.75787        3.76834
        3.83235        3.93368        3.94365        3.94530        3.95882
        4.66654        5.24967        5.28666       37.11190
 Time used in FCKEIG, thr_jaco:   5.93D-02  1.50D-02  4.26D-09
 CPU and wall times used in FCKEIG, THR_FCKEIG:   5.94D-02  1.50D-02  9.10D-07
 -----------------------------------------------------------------------------

 *** DIIS iteration number   10
 RDSUPM called. NFMAT, ISYMDM(1:NFMAT)                     1
                     1

 ITDIIS, energy, error norm, change in energy, scr.thr., difden:
@ DIIS iter.  10    -360.723373798        2.81337D-05   -1.26D-09  -20    F

 (DIIS_RED) Control Parameters C2DIIS =         F NEVC =    8


 (DIIS_RED) B matrix:

               Column   1     Column   2     Column   3     Column   4     Column   5     Column   6
       1       0.00000001
       2       0.00000000     0.00000000
       3      -0.00000168    -0.00000029     0.12413370
       4       0.00000056    -0.00000002    -0.00725431     0.00973431
       5       0.00000009    -0.00000003     0.00376294     0.00076151     0.00043105
       6       0.00000005     0.00000001     0.00037937     0.00017297     0.00005276     0.00004322
       7       0.00000008     0.00000000     0.00008625     0.00000488     0.00002770    -0.00000062
       8       0.00000002     0.00000000     0.00000611    -0.00000007     0.00000110     0.00000105

               Column   7     Column   8
       7       0.00000465
       8       0.00000022     0.00000011
    ==== End of matrix output ====

 DIIS C vector; C2DIIS = F, LAMBDA = -5.03D-10
    0.132006    0.941257    0.000002   -0.000029   -0.000118    0.001836    0.002415   -0.077370
* Read MO coefficients from SIRIUS.RST with label "NEWORB  " and header info: 20Dec18  DIIS  10
      Virial theorem: -V/T =      2.003920
@    MULPOP   N      -0.91; H       0.25; H       0.25; H       0.26; O      -0.85; O      -0.78; O      -0.94; O      -0.81; H       0.46; H       0.45; 
@             H       0.44; H       0.37; H       0.44; H       0.52; H       0.42; H       0.43; 

 DIIS Fock eigenvalues in symmetry 1
      -20.57357      -20.53793      -20.53653      -20.51749      -15.51245
       -1.34342       -1.31413       -1.29083       -1.26860       -1.13256
       -0.71121       -0.68212       -0.65472       -0.64968       -0.62029
       -0.60085       -0.58287       -0.55711       -0.54130       -0.52763
       -0.50997       -0.47832       -0.47317       -0.46156       -0.41443
        0.09496        0.12642        0.14146        0.21230        0.24512
        0.26522        0.27894        0.30686        0.31961        0.34474
        0.35943        0.36619        0.37375        0.41744        0.43171
        0.45001        0.45678        0.53274        0.66561        0.70388
        0.85275        0.93372        1.02870        1.03246        1.05499
        1.06769        1.09249        1.09676        1.11276        1.14912
        1.15716        1.16148        1.20714        1.22128        1.22964
        1.23818        1.24576        1.28589        1.31897        1.32769
        1.33104        1.35127        1.36687        1.40343        1.43886
        1.45490        1.51104        1.62211        1.65660        1.71278
        1.76927        1.78290        1.81196        1.81896        1.83207
        1.84332        1.88063        1.88967        1.90179        1.90904
        1.93086        1.95243        1.96022        2.01120        2.01961
        2.04496        2.09487        2.33084        2.37496        2.51572
        2.52659        2.55004        2.56509        2.59203        2.59379
        2.61754        2.67899        2.71919        2.76093        2.77394
        2.82035        2.82301        2.85497        2.89283        2.90814
        2.93670        2.94795        2.98656        3.00721        3.00948
        3.01928        3.03473        3.05506        3.10919        3.16807
        3.22263        3.32053        3.35113        3.36486        3.41636
        3.49775        3.62955        3.72060        3.75787        3.76834
        3.83235        3.93367        3.94365        3.94530        3.95882
        4.66654        5.24967        5.28666       37.11190
 Time used in FCKEIG, thr_jaco:   5.89D-02  1.50D-02  1.32D-09
 CPU and wall times used in FCKEIG, THR_FCKEIG:   5.90D-02  1.50D-02  2.81D-07
 -----------------------------------------------------------------------------

 *** DIIS iteration number   11
 RDSUPM called. NFMAT, ISYMDM(1:NFMAT)                     1
                     1

 ITDIIS, energy, error norm, change in energy, scr.thr., difden:
@ DIIS iter.  11    -360.723373798        1.04486D-05   -7.95D-11  -20    F

 (DIIS_RED) Control Parameters C2DIIS =         F NEVC =    8


 (DIIS_RED) B matrix:

               Column   1     Column   2     Column   3     Column   4     Column   5     Column   6
       1       0.00000001
       2       0.00000000     0.00000000
       3       0.00000000    -0.00000000     0.00000000
       4       0.00000056    -0.00000002     0.00000004     0.00973431
       5       0.00000009    -0.00000003    -0.00000001     0.00076151     0.00043105
       6       0.00000005     0.00000001     0.00000001     0.00017297     0.00005276     0.00004322
       7       0.00000008     0.00000000    -0.00000000     0.00000488     0.00002770    -0.00000062
       8       0.00000002     0.00000000     0.00000000    -0.00000007     0.00000110     0.00000105

               Column   7     Column   8
       7       0.00000465
       8       0.00000022     0.00000011
    ==== End of matrix output ====

 DIIS C vector; C2DIIS = F, LAMBDA = -3.76D-11
   -0.088360    0.195743    0.894543    0.000012   -0.000228    0.000361    0.003412   -0.005482
* Read MO coefficients from SIRIUS.RST with label "NEWORB  " and header info: 20Dec18  DIIS  11
      Virial theorem: -V/T =      2.003920
@    MULPOP   N      -0.91; H       0.25; H       0.25; H       0.26; O      -0.85; O      -0.78; O      -0.94; O      -0.81; H       0.46; H       0.45; 
@             H       0.44; H       0.37; H       0.44; H       0.52; H       0.42; H       0.43; 

 DIIS Fock eigenvalues in symmetry 1
      -20.57357      -20.53793      -20.53653      -20.51749      -15.51245
       -1.34342       -1.31413       -1.29083       -1.26860       -1.13256
       -0.71121       -0.68212       -0.65472       -0.64968       -0.62029
       -0.60085       -0.58287       -0.55711       -0.54130       -0.52763
       -0.50997       -0.47832       -0.47317       -0.46156       -0.41443
        0.09496        0.12642        0.14146        0.21230        0.24512
        0.26522        0.27894        0.30686        0.31961        0.34474
        0.35943        0.36619        0.37375        0.41744        0.43171
        0.45001        0.45678        0.53274        0.66561        0.70388
        0.85275        0.93372        1.02870        1.03246        1.05499
        1.06769        1.09249        1.09676        1.11276        1.14912
        1.15716        1.16148        1.20714        1.22128        1.22964
        1.23818        1.24576        1.28589        1.31897        1.32769
        1.33104        1.35127        1.36687        1.40343        1.43886
        1.45490        1.51104        1.62211        1.65660        1.71278
        1.76927        1.78290        1.81196        1.81896        1.83207
        1.84332        1.88063        1.88967        1.90179        1.90904
        1.93086        1.95243        1.96022        2.01120        2.01961
        2.04496        2.09487        2.33084        2.37496        2.51572
        2.52659        2.55004        2.56509        2.59203        2.59378
        2.61754        2.67899        2.71919        2.76093        2.77394
        2.82034        2.82301        2.85497        2.89283        2.90814
        2.93670        2.94795        2.98656        3.00721        3.00948
        3.01928        3.03473        3.05506        3.10919        3.16807
        3.22263        3.32053        3.35113        3.36486        3.41636
        3.49775        3.62955        3.72060        3.75787        3.76834
        3.83235        3.93367        3.94365        3.94530        3.95882
        4.66654        5.24967        5.28666       37.11190
 Time used in FCKEIG, thr_jaco:   1.07D-01  3.00D-02  4.89D-10
 CPU and wall times used in FCKEIG, THR_FCKEIG:   1.07D-01  3.00D-02  1.04D-07
 -----------------------------------------------------------------------------

 *** DIIS iteration number   12
 RDSUPM called. NFMAT, ISYMDM(1:NFMAT)                     1
                     1

 ITDIIS, energy, error norm, change in energy, scr.thr., difden:
@ DIIS iter.  12    -360.723373798        2.24448D-06   -7.45D-12  -20    F

 (DIIS_RED) Control Parameters C2DIIS =         F NEVC =    8


 (DIIS_RED) B matrix:

               Column   1     Column   2     Column   3     Column   4     Column   5     Column   6
       1     8.286311D-09
       2     7.256554D-10   7.915039D-10
       3     5.223439D-10  -4.357283D-11   1.091742D-10
       4     2.886229D-11   3.472388D-11   6.682976D-12   5.037706D-12
       5     9.083232D-08  -2.805114D-08  -5.083502D-09  -9.045488D-10   4.310460D-04
       6     5.373933D-08   7.971928D-09   6.209267D-09   1.880965D-09   5.276142D-05   4.322299D-05
       7     7.725944D-08   5.949643D-10  -1.579133D-09  -3.495258D-10   2.769635D-05  -6.229585D-07
       8     1.975139D-08   4.613099D-09   6.916357D-10   8.054726D-11   1.096180D-06   1.054767D-06

               Column   7     Column   8
       7     4.648737D-06
       8     2.214534D-07   1.138031D-07
    ==== End of matrix output ====

 DIIS C vector; C2DIIS = F, LAMBDA = -2.26D-12
    0.010119   -0.098420   -0.173637    1.257344    0.000054   -0.000235   -0.000736    0.005511
* Read MO coefficients from SIRIUS.RST with label "NEWORB  " and header info: 20Dec18  DIIS  12
      Virial theorem: -V/T =      2.003920
@    MULPOP   N      -0.91; H       0.25; H       0.25; H       0.26; O      -0.85; O      -0.78; O      -0.94; O      -0.81; H       0.46; H       0.45; 
@             H       0.44; H       0.37; H       0.44; H       0.52; H       0.42; H       0.43; 

 DIIS Fock eigenvalues in symmetry 1
      -20.57357      -20.53793      -20.53653      -20.51749      -15.51245
       -1.34342       -1.31413       -1.29083       -1.26860       -1.13256
       -0.71121       -0.68212       -0.65472       -0.64968       -0.62029
       -0.60085       -0.58287       -0.55711       -0.54130       -0.52763
       -0.50997       -0.47832       -0.47317       -0.46156       -0.41443
        0.09496        0.12642        0.14146        0.21230        0.24512
        0.26522        0.27894        0.30686        0.31961        0.34474
        0.35943        0.36619        0.37375        0.41744        0.43171
        0.45001        0.45678        0.53274        0.66561        0.70387
        0.85275        0.93372        1.02870        1.03246        1.05499
        1.06769        1.09249        1.09676        1.11276        1.14912
        1.15716        1.16148        1.20714        1.22128        1.22964
        1.23818        1.24576        1.28589        1.31897        1.32769
        1.33104        1.35127        1.36687        1.40343        1.43886
        1.45490        1.51104        1.62211        1.65660        1.71278
        1.76927        1.78290        1.81196        1.81896        1.83207
        1.84332        1.88063        1.88967        1.90179        1.90904
        1.93086        1.95243        1.96022        2.01120        2.01961
        2.04496        2.09487        2.33084        2.37496        2.51572
        2.52659        2.55004        2.56509        2.59203        2.59378
        2.61754        2.67899        2.71919        2.76093        2.77394
        2.82034        2.82301        2.85497        2.89283        2.90814
        2.93670        2.94795        2.98656        3.00721        3.00948
        3.01928        3.03473        3.05506        3.10919        3.16807
        3.22263        3.32053        3.35113        3.36486        3.41636
        3.49775        3.62955        3.72060        3.75787        3.76834
        3.83235        3.93367        3.94365        3.94530        3.95882
        4.66654        5.24967        5.28666       37.11190
 Time used in FCKEIG, thr_jaco:   5.84D-02  1.40D-02  3.75D-10
 CPU and wall times used in FCKEIG, THR_FCKEIG:   5.84D-02  1.40D-02  8.00D-08
 -----------------------------------------------------------------------------

 *** DIIS iteration number   13
 RDSUPM called. NFMAT, ISYMDM(1:NFMAT)                     1
                     1

 ITDIIS, energy, error norm, change in energy, scr.thr., difden:
@ DIIS iter.  13    -360.723373798        7.41334D-07   -2.61D-12  -20    F

 (DIIS_RED) Control Parameters C2DIIS =         F NEVC =    8


 (DIIS_RED) B matrix:

               Column   1     Column   2     Column   3     Column   4     Column   5     Column   6
       1     8.286311D-09
       2     7.256554D-10   7.915039D-10
       3     5.223439D-10  -4.357283D-11   1.091742D-10
       4     2.886229D-11   3.472388D-11   6.682976D-12   5.037706D-12
       5     6.822850D-12   3.305508D-12   1.691681D-12   3.382300D-13   5.495767D-13
       6     5.373933D-08   7.971928D-09   6.209267D-09   1.880965D-09  -6.740897D-10   4.322299D-05
       7     7.725944D-08   5.949643D-10  -1.579133D-09  -3.495258D-10  -9.344471D-11  -6.229585D-07
       8     1.975139D-08   4.613099D-09   6.916357D-10   8.054726D-11  -6.289733D-12   1.054767D-06

               Column   7     Column   8
       7     4.648737D-06
       8     2.214534D-07   1.138031D-07
    ==== End of matrix output ====

[...]
       3       0.28892579    -0.37515616     0.88078360
    ==== End of matrix output ====


 CCSD  Transition strength matrix for state nr. 13 of symmetry 1
 CCSD  excitation energy:15.11952886

 Gauge: length

               Column   1     Column   2     Column   3
       1     9.169976D-08  -3.060531D-06  -1.500593D-06
       2    -3.060531D-06   1.014040D-04   4.983543D-05
       3    -1.500593D-06   4.983543D-05   2.447342D-05
    ==== End of matrix output ====

 Principal values of diagonalized transition strength matrix:

             a.u.               
 1      -0.00000002
 2      -0.00000000
 3       0.00012598

 Principal axis of diagonalized transition strength matrix:


               Column   1     Column   2     Column   3
       1      -0.19550535     0.98032908    -0.02706556
       2      -0.43724896    -0.06243013     0.89717101
       3       0.87783313     0.18723612     0.44085330
    ==== End of matrix output ====


 CCSD   oscillator strength matrix for state nr. 13 of symmetry 1
 CCSD  excitation energy:15.11952886


               Column   1     Column   2     Column   3
       1       0.00000092    -0.00003085    -0.00001513
       2      -0.00003085     0.00102212     0.00050233
       3      -0.00001513     0.00050233     0.00024668
    ==== End of matrix output ====

 Principal values of diagonalized oscillator strength matrix:

             a.u.               
 1      -0.00000016
 2      -0.00000000
 3       0.00126988

 Principal axis of diagonalized oscillator strength matrix:


               Column   1     Column   2     Column   3
       1      -0.19550535     0.98032908    -0.02706556
       2      -0.43724896    -0.06243013     0.89717101
       3       0.87783313     0.18723612     0.44085330
    ==== End of matrix output ====


 CCSD  Transition strength matrix for state nr. 14 of symmetry 1
 CCSD  excitation energy:15.12339970

 Gauge: length

               Column   1     Column   2     Column   3
       1     9.601541D-07  -1.801417D-05   9.282838D-06
       2    -1.801417D-05   3.377784D-04  -1.741256D-04
       3     9.282838D-06  -1.741256D-04   8.974036D-05
    ==== End of matrix output ====

 Principal values of diagonalized transition strength matrix:

             a.u.               
 1      -0.00000002
 2       0.00000000
 3       0.00042850

 Principal axis of diagonalized transition strength matrix:


               Column   1     Column   2     Column   3
       1       0.15458250     0.98684473    -0.04734696
       2       0.45917731    -0.02932912     0.88786035
       3       0.87479166    -0.15898832    -0.45767048
    ==== End of matrix output ====


 CCSD   oscillator strength matrix for state nr. 14 of symmetry 1
 CCSD  excitation energy:15.12339970


               Column   1     Column   2     Column   3
       1       0.00000968    -0.00018162     0.00009359
       2      -0.00018162     0.00340557    -0.00175558
       3       0.00009359    -0.00175558     0.00090479
    ==== End of matrix output ====

 Principal values of diagonalized oscillator strength matrix:

             a.u.               
 1      -0.00000018
 2      -0.00000000
 3       0.00432022

 Principal axis of diagonalized oscillator strength matrix:


               Column   1     Column   2     Column   3
       1       0.15458250     0.98684473    -0.04734696
       2       0.45917731    -0.02932912     0.88786035
       3       0.87479166    -0.15898832    -0.45767048
    ==== End of matrix output ====


 CCSD  Transition strength matrix for state nr. 15 of symmetry 1
 CCSD  excitation energy:15.14043876

 Gauge: length

               Column   1     Column   2     Column   3
       1     8.396361D-08  -2.907278D-06   2.904869D-07
       2    -2.907278D-06   9.954757D-05  -9.960710D-06
       3     2.904869D-07  -9.960710D-06   9.964843D-07
    ==== End of matrix output ====

 Principal values of diagonalized transition strength matrix:

             a.u.               
 1      -0.00000000
 2      -0.00000000
 3       0.00010063

 Principal axis of diagonalized transition strength matrix:


               Column   1     Column   2     Column   3
       1       0.91551413    -0.40123580    -0.02904686
       2       0.06643668     0.07958757     0.99461147
       3       0.39676196     0.91251063    -0.09952032
    ==== End of matrix output ====


 CCSD   oscillator strength matrix for state nr. 15 of symmetry 1
 CCSD  excitation energy:15.14043876


               Column   1     Column   2     Column   3
       1       0.00000085    -0.00002934     0.00000293
       2      -0.00002934     0.00100480    -0.00010054
       3       0.00000293    -0.00010054     0.00001006
    ==== End of matrix output ====

 Principal values of diagonalized oscillator strength matrix:

             a.u.               
 1      -0.00000001
 2       0.00000000
 3       0.00101571

 Principal axis of diagonalized oscillator strength matrix:


               Column   1     Column   2     Column   3
       1       0.91551413    -0.40123580    -0.02904686
       2       0.06643668     0.07958757     0.99461147
       3       0.39676196     0.91251063    -0.09952032
    ==== End of matrix output ====

  Total time for    135 linear response residues:      17.06 seconds.
  

 *******************************************************************************
 *******************************************************************************
 *                                                                             *
 *                                                                             *
 *                   SUMMARY OF COUPLED CLUSTER CALCULATION                    *
 *                                                                             *
 *                                                                             *
 *******************************************************************************
 *******************************************************************************

                                                                                
                                                                                
            Total SCF   energy:                  -360.7233737978                
            Total MP2   energy:                  -361.7413413278                
            Total CCSD  energy:                  -361.7866438711                
                                                                                
                                                                                
            Total SCF   energy:                  -360.7233737978                
            Total RSTAR energy:                  -361.7866438711                
            Total CCSD  energy:                  -361.7866920968                
                                                                                
                                                                                
            Total SCF   energy:                  -360.7233737978                
            Total RSTAR energy:                  -361.7866920968                
            Total CCSD  energy:                  -361.7866946304                
                                                                                
                                                                                
            Total SCF   energy:                  -360.7233737978                
            Total RSTAR energy:                  -361.7866946304                
            Total CCSD  energy:                  -361.7866947861                
                                                                                
                                                                                
            Total SCF   energy:                  -360.7233737978                
            Total RSTAR energy:                  -361.7866947861                
            Total CCSD  energy:                  -361.7866947963                
            CCSD Total  energy:                  -362.2487577390                
            CCSD E(PE-CC)     :                    -0.4572399509                
                                                                                
                                                                                
 +=============================================================================+
 |  sym. | Exci.  |        CCSD       Excitation energies            | ||T1||  |
 |(spin, |        +------------------------------------------------------------+
 | spat) |        |     Hartree    |       eV.      |     cm-1       |    %    |
 +=============================================================================+
 | ^1A   |    1   |    14.8069625  |     402.91795  |   3249752.612  |  88.32  |
 | ^1A   |    2   |    14.8640161  |     404.47045  |   3262274.426  |  88.65  |
 | ^1A   |    3   |    14.8817380  |     404.95269  |   3266163.923  |  88.51  |
 | ^1A   |    4   |    14.9051311  |     405.58925  |   3271298.118  |  88.43  |
 | ^1A   |    5   |    14.9249021  |     406.12725  |   3275637.354  |  88.09  |
 | ^1A   |    6   |    14.9506956  |     406.82912  |   3281298.378  |  88.23  |
 | ^1A   |    7   |    14.9615467  |     407.12439  |   3283679.907  |  88.45  |
 | ^1A   |    8   |    14.9880146  |     407.84462  |   3289488.952  |  88.65  |
 | ^1A   |    9   |    14.9981165  |     408.11951  |   3291706.068  |  88.70  |
 | ^1A   |   10   |    15.0299250  |     408.98506  |   3298687.213  |  88.19  |
 | ^1A   |   11   |    15.0385216  |     409.21899  |   3300573.960  |  88.05  |
 | ^1A   |   12   |    15.1051448  |     411.03190  |   3315196.056  |  87.52  |
 | ^1A   |   13   |    15.1195289  |     411.42331  |   3318352.991  |  87.78  |
 | ^1A   |   14   |    15.1233997  |     411.52864  |   3319202.543  |  87.86  |
 | ^1A   |   15   |    15.1404388  |     411.99230  |   3322942.185  |  87.84  |
 +=============================================================================+
                                                                                
                                                                                
     Total energies in Hartree:                                                 
             1 ^1A       -346.9845552637                                        
             2 ^1A       -346.9275016775                                        
             3 ^1A       -346.9097798288                                        
             4 ^1A       -346.8863867125                                        
             5 ^1A       -346.8666156987                                        
             6 ^1A       -346.8408221747                                        
             7 ^1A       -346.8299711304                                        
             8 ^1A       -346.8035031723                                        
             9 ^1A       -346.7934012504                                        
            10 ^1A       -346.7615928131                                        
            11 ^1A       -346.7529961611                                        
            12 ^1A       -346.6863729881                                        
            13 ^1A       -346.6719889330                                        
            14 ^1A       -346.6681180925                                        
            15 ^1A       -346.6510790272                                        
                                                                                
                                                                                
 +=============================================================================+
 |  sym. | Exci.  |        CCSD       Length   Gauge Oscillator Strength       |
 |(spin, |        +------------------------------------------------------------+
 | spat) |        | Dipole Strength(a.u.) | Oscillator strength  | Direction   |
 +=============================================================================+
 | ^1A   |    1   |        0.0003622      |      0.0035758       |  (Y,Z)      |
 | ^1A   |    2   |        0.0019547      |      0.0193702       |  (Y,Z)      |
 | ^1A   |    3   |        0.0013171      |      0.0130667       |  (Y,Z)      |
 | ^1A   |    4   |        0.0013892      |      0.0138046       |  (Y,Z)      |
 | ^1A   |    5   |        0.0006689      |      0.0066551       |  (Y,Z)      |
 | ^1A   |    6   |        0.0011943      |      0.0119034       |  (Y,Z)      |
 | ^1A   |    7   |        0.0005352      |      0.0053383       |  (Y,Z)      |
 | ^1A   |    8   |        0.0014908      |      0.0148962       |  (Y,Z)      |
 | ^1A   |    9   |        0.0018839      |      0.0188370       |  (Y,Z)      |
 | ^1A   |   10   |        0.0009723      |      0.0097426       |  (Y,Z)      |
 | ^1A   |   11   |        0.0005206      |      0.0052191       |  (Y,Z)      |
 | ^1A   |   12   |        0.0000765      |      0.0007709       |  (Y,Z)      |
 | ^1A   |   13   |        0.0001260      |      0.0012697       |  (Y,Z)      |
 | ^1A   |   14   |        0.0004285      |      0.0043200       |  (Y,Z)      |
 | ^1A   |   15   |        0.0001006      |      0.0010157       |  (Y,Z)      |
 +=============================================================================+

  1 a.u. =        27.21138 eV.  
  1 a.u. =    219474.62934 cm-1.
  

 *******************************************************************************
 *******************************************************************************
 *                                                                             *
 *                                                                             *
 *                      END OF COUPLED CLUSTER CALCULATION                     *
 *                                                                             *
 *                                                                             *
 *******************************************************************************
 *******************************************************************************


 CPU and wall time for CC :  130010.743   43238.694

 
     Date and time (Linux)  : Thu Dec 20 17:49:55 2018
     Host name              : s71p34.deic.sdu.dk                      


                      .-------------------------------------.
                      | End of Coupled Cluster Section (CC) |
                      `-------------------------------------'

  Total CPU  time used in DALTON:  36 hours 10 minutes 18 seconds
  Total wall time used in DALTON:  12 hours  2 minutes 16 seconds

 
     Date and time (Linux)  : Thu Dec 20 17:49:55 2018
     Host name              : s71p34.deic.sdu.dk                      
  

 +---------------------------------------------------------+ 
 | List of selected calculated molecular properties (a.u.) | 
 +---------------------------------------------------------+ 

  Properties are read from unit number                      4

 CCSD       properties :
 #  1 1 PE-CCSD  Ground state Energy =    -362.2487577390
 #  2 1 E(PE-CC) Ground state Energy =      -0.4572399509
 #  3 1 Sy: 1 Sp: 1 Exc:  1 E_tot:   -346.9845552637 w:     14.8069625244 E_grs:   -361.7915177880
 #  4 1 Exctot   Excited state Energy =    -346.9845552637
 #  5 1 Sy: 1 Sp: 1 Exc:  2 E_tot:   -346.9275016775 w:     14.8640161105 E_grs:   -361.7915177880
 #  6 1 Exctot   Excited state Energy =    -346.9275016775
 #  7 1 Sy: 1 Sp: 1 Exc:  3 E_tot:   -346.9097798288 w:     14.8817379592 E_grs:   -361.7915177880
 #  8 1 Exctot   Excited state Energy =    -346.9097798288
 #  9 1 Sy: 1 Sp: 1 Exc:  4 E_tot:   -346.8863867125 w:     14.9051310755 E_grs:   -361.7915177880
 # 10 1 Exctot   Excited state Energy =    -346.8863867125
 # 11 1 Sy: 1 Sp: 1 Exc:  5 E_tot:   -346.8666156987 w:     14.9249020893 E_grs:   -361.7915177880
 # 12 1 Exctot   Excited state Energy =    -346.8666156987
 # 13 1 Sy: 1 Sp: 1 Exc:  6 E_tot:   -346.8408221747 w:     14.9506956133 E_grs:   -361.7915177880
 # 14 1 Exctot   Excited state Energy =    -346.8408221747
 # 15 1 Sy: 1 Sp: 1 Exc:  7 E_tot:   -346.8299711304 w:     14.9615466576 E_grs:   -361.7915177880
 # 16 1 Exctot   Excited state Energy =    -346.8299711304
 # 17 1 Sy: 1 Sp: 1 Exc:  8 E_tot:   -346.8035031723 w:     14.9880146158 E_grs:   -361.7915177880
 # 18 1 Exctot   Excited state Energy =    -346.8035031723
 # 19 1 Sy: 1 Sp: 1 Exc:  9 E_tot:   -346.7934012504 w:     14.9981165377 E_grs:   -361.7915177880
 # 20 1 Exctot   Excited state Energy =    -346.7934012504
 # 21 1 Sy: 1 Sp: 1 Exc: 10 E_tot:   -346.7615928131 w:     15.0299249749 E_grs:   -361.7915177880
 # 22 1 Exctot   Excited state Energy =    -346.7615928131
 # 23 1 Sy: 1 Sp: 1 Exc: 11 E_tot:   -346.7529961611 w:     15.0385216269 E_grs:   -361.7915177880
 # 24 1 Exctot   Excited state Energy =    -346.7529961611
 # 25 1 Sy: 1 Sp: 1 Exc: 12 E_tot:   -346.6863729881 w:     15.1051447999 E_grs:   -361.7915177880
 # 26 1 Exctot   Excited state Energy =    -346.6863729881
 # 27 1 Sy: 1 Sp: 1 Exc: 13 E_tot:   -346.6719889330 w:     15.1195288550 E_grs:   -361.7915177880
 # 28 1 Exctot   Excited state Energy =    -346.6719889330
 # 29 1 Sy: 1 Sp: 1 Exc: 14 E_tot:   -346.6681180925 w:     15.1233996955 E_grs:   -361.7915177880
 # 30 1 Exctot   Excited state Energy =    -346.6681180925
 # 31 1 Sy: 1 Sp: 1 Exc: 15 E_tot:   -346.6510790272 w:     15.1404387609 E_grs:   -361.7915177880
 # 32 1 Exctot   Excited state Energy =    -346.6510790272
 # 33 1 |<O|XDIPLEN |i(14.806963)>| =     0.00834423
 # 35 1 |<O|XDIPLEN |i(14.864016)>| =     0.01777428
 # 37 1 |<O|XDIPLEN |i(14.881738)>| =     0.03459188
 # 39 1 |<O|XDIPLEN |i(14.905131)>| =     0.01037356
 # 41 1 |<O|XDIPLEN |i(14.924902)>| =     0.02414397
 # 43 1 |<O|XDIPLEN |i(14.950696)>| =     0.01019385
 # 45 1 |<O|XDIPLEN |i(14.961547)>| =     0.01765110
 # 47 1 |<O|XDIPLEN |i(14.988015)>| =     0.00131583
 # 49 1 |<O|XDIPLEN |i(14.998117)>| =     0.04211209
 # 51 1 |<O|XDIPLEN |i(15.029925)>| =     0.01366369
 # 53 1 |<O|XDIPLEN |i(15.038522)>| =     0.00415082
 # 55 1 |<O|XDIPLEN |i(15.105145)>| =     0.00215493
 # 57 1 |<O|XDIPLEN |i(15.119529)>| =     0.00030282
 # 59 1 |<O|XDIPLEN |i(15.123400)>| =     0.00097987
 # 61 1 |<O|XDIPLEN |i(15.140439)>| =     0.00028976
 # 63 1 |<O|YDIPLEN |i(14.806963)>| =     0.01390344
 # 65 1 |<O|YDIPLEN |i(14.864016)>| =     0.00563594
 # 67 1 |<O|YDIPLEN |i(14.881738)>| =     0.00795990
 # 69 1 |<O|YDIPLEN |i(14.905131)>| =     0.03575214
 # 71 1 |<O|YDIPLEN |i(14.924902)>| =     0.00097004
 # 73 1 |<O|YDIPLEN |i(14.950696)>| =     0.01490474
 # 75 1 |<O|YDIPLEN |i(14.961547)>| =     0.01350142
 # 77 1 |<O|YDIPLEN |i(14.988015)>| =     0.00288636
 # 79 1 |<O|YDIPLEN |i(14.998117)>| =     0.00235693
 # 81 1 |<O|YDIPLEN |i(15.029925)>| =     0.02707878
 # 83 1 |<O|YDIPLEN |i(15.038522)>| =     0.01502537
 # 85 1 |<O|YDIPLEN |i(15.105145)>| =     0.00353790
 # 87 1 |<O|YDIPLEN |i(15.119529)>| =     0.01006996
 # 89 1 |<O|YDIPLEN |i(15.123400)>| =     0.01837875
 # 91 1 |<O|YDIPLEN |i(15.140439)>| =     0.00997735
 # 93 1 |<O|ZDIPLEN |i(14.806963)>| =     0.00996564
 # 95 1 |<O|ZDIPLEN |i(14.864016)>| =     0.04008801
 # 97 1 |<O|ZDIPLEN |i(14.881738)>| =     0.00755640
 # 99 1 |<O|ZDIPLEN |i(14.905131)>| =     0.00184864
 #101 1 |<O|ZDIPLEN |i(14.924902)>| =     0.00921903
 #103 1 |<O|ZDIPLEN |i(14.950696)>| =     0.02946524
 #105 1 |<O|ZDIPLEN |i(14.961547)>| =     0.00643058
 #107 1 |<O|ZDIPLEN |i(14.988015)>| =     0.03848047
 #109 1 |<O|ZDIPLEN |i(14.998117)>| =     0.01024449
 #111 1 |<O|ZDIPLEN |i(15.029925)>| =     0.00723639
 #113 1 |<O|ZDIPLEN |i(15.038522)>| =     0.01666081
 #115 1 |<O|ZDIPLEN |i(15.105145)>| =     0.00770641
 #117 1 |<O|ZDIPLEN |i(15.119529)>| =     0.00494706
 #119 1 |<O|ZDIPLEN |i(15.123400)>| =     0.00947314
 #121 1 |<O|ZDIPLEN |i(15.140439)>| =     0.00099824

 THE_END   
