

     ************************************************************************
     *************** Dalton - An Electronic Structure Program ***************
     ************************************************************************

    This is output from DALTON release Dalton2017.alpha (2016)
         ( Web site: http://daltonprogram.org )

   ----------------------------------------------------------------------------

    NOTE:
     
    Dalton is an experimental code for the evaluation of molecular
    properties using (MC)SCF, DFT, CI, and CC wave functions.
    The authors accept no responsibility for the performance of
    the code or for the correctness of the results.
     
    The code (in whole or part) is provided under a licence and
    is not to be reproduced for further distribution without
    the written permission of the authors or their representatives.
     
    See the home page "http://daltonprogram.org" for further information.
     
    If results obtained with this code are published,
    the appropriate citations would be both of:
     
       K. Aidas, C. Angeli, K. L. Bak, V. Bakken, R. Bast,
       L. Boman, O. Christiansen, R. Cimiraglia, S. Coriani,
       P. Dahle, E. K. Dalskov, U. Ekstroem,
       T. Enevoldsen, J. J. Eriksen, P. Ettenhuber, B. Fernandez,
       L. Ferrighi, H. Fliegl, L. Frediani, K. Hald, A. Halkier,
       C. Haettig, H. Heiberg, T. Helgaker, A. C. Hennum,
       H. Hettema, E. Hjertenaes, S. Hoest, I.-M. Hoeyvik,
       M. F. Iozzi, B. Jansik, H. J. Aa. Jensen, D. Jonsson,
       P. Joergensen, J. Kauczor, S. Kirpekar,
       T. Kjaergaard, W. Klopper, S. Knecht, R. Kobayashi, H. Koch,
       J. Kongsted, A. Krapp, K. Kristensen, A. Ligabue,
       O. B. Lutnaes, J. I. Melo, K. V. Mikkelsen, R. H. Myhre,
       C. Neiss, C. B. Nielsen, P. Norman, J. Olsen,
       J. M. H. Olsen, A. Osted, M. J. Packer, F. Pawlowski,
       T. B. Pedersen, P. F. Provasi, S. Reine, Z. Rinkevicius,
       T. A. Ruden, K. Ruud, V. Rybkin, P. Salek, C. C. M. Samson,
       A. Sanchez de Meras, T. Saue, S. P. A. Sauer,
       B. Schimmelpfennig, K. Sneskov, A. H. Steindal,
       K. O. Sylvester-Hvid, P. R. Taylor, A. M. Teale,
       E. I. Tellgren, D. P. Tew, A. J. Thorvaldsen, L. Thoegersen,
       O. Vahtras, M. A. Watson, D. J. D. Wilson, M. Ziolkowski
       and H. Agren,
       "The Dalton quantum chemistry program system",
       WIREs Comput. Mol. Sci. 2014, 4:269–284 (doi: 10.1002/wcms.1172)
     
    and
     
       Dalton, a Molecular Electronic Structure Program,
       Release Dalton2017.alpha (2016), see http://daltonprogram.org
   ----------------------------------------------------------------------------

    Authors in alphabetical order (major contribution(s) in parenthesis):

  Kestutis Aidas,           Vilnius University,           Lithuania   (QM/MM)
  Celestino Angeli,         University of Ferrara,        Italy       (NEVPT2)
  Keld L. Bak,              UNI-C,                        Denmark     (AOSOPPA, non-adiabatic coupling, magnetic properties)
  Vebjoern Bakken,          University of Oslo,           Norway      (DALTON; geometry optimizer, symmetry detection)
  Radovan Bast,             UiT The Arctic U. of Norway,  Norway      (DALTON installation and execution frameworks)
  Pablo Baudin,             University of Valencia,       Spain       (Cholesky excitation energies)
  Linus Boman,              NTNU,                         Norway      (Cholesky decomposition and subsystems)
  Ove Christiansen,         Aarhus University,            Denmark     (CC module)
  Renzo Cimiraglia,         University of Ferrara,        Italy       (NEVPT2)
  Sonia Coriani,            University of Trieste,        Italy       (CC module, MCD in RESPONS)
  Janusz Cukras,            University of Trieste,        Italy       (MChD in RESPONS)
  Paal Dahle,               University of Oslo,           Norway      (Parallelization)
  Erik K. Dalskov,          UNI-C,                        Denmark     (SOPPA)
  Thomas Enevoldsen,        Univ. of Southern Denmark,    Denmark     (SOPPA)
  Janus J. Eriksen,         Aarhus University,            Denmark     (Polarizable embedding model, TDA)
  Rasmus Faber,             University of Copenhagen,     Denmark     (Vib.avg. NMR with SOPPA, parallel AO-SOPPA)
  Berta Fernandez,          U. of Santiago de Compostela, Spain       (doublet spin, ESR in RESPONS)
  Lara Ferrighi,            Aarhus University,            Denmark     (PCM Cubic response)
  Heike Fliegl,             University of Oslo,           Norway      (CCSD(R12))
  Luca Frediani,            UiT The Arctic U. of Norway,  Norway      (PCM)
  Bin Gao,                  UiT The Arctic U. of Norway,  Norway      (Gen1Int library)
  Christof Haettig,         Ruhr-University Bochum,       Germany     (CC module)
  Kasper Hald,              Aarhus University,            Denmark     (CC module)
  Asger Halkier,            Aarhus University,            Denmark     (CC module)
  Frederik Beyer Hansen,    University of Copenhagen,     Denmark     (Parallel AO-SOPPA)
  Erik D. Hedegaard,        Univ. of Southern Denmark,    Denmark     (Polarizable embedding model, QM/MM)
  Hanne Heiberg,            University of Oslo,           Norway      (geometry analysis, selected one-electron integrals)
  Trygve Helgaker,          University of Oslo,           Norway      (DALTON; ABACUS, ERI, DFT modules, London, and much more)
  Alf Christian Hennum,     University of Oslo,           Norway      (Parity violation)
  Hinne Hettema,            University of Auckland,       New Zealand (quadratic response in RESPONS; SIRIUS supersymmetry)
  Eirik Hjertenaes,         NTNU,                         Norway      (Cholesky decomposition)
  Pi A. B. Haase,           University of Copenhagen,     Denmark     (Triplet AO-SOPPA)
  Maria Francesca Iozzi,    University of Oslo,           Norway      (RPA)
  Brano Jansik              Technical Univ. of Ostrava    Czech Rep.  (DFT cubic response)
  Hans Joergen Aa. Jensen,  Univ. of Southern Denmark,    Denmark     (DALTON; SIRIUS, RESPONS, ABACUS modules, London, and much more)
  Dan Jonsson,              UiT The Arctic U. of Norway,  Norway      (cubic response in RESPONS module)
  Poul Joergensen,          Aarhus University,            Denmark     (RESPONS, ABACUS, and CC modules)
  Maciej Kaminski,          University of Warsaw,         Poland      (CPPh in RESPONS)
  Joanna Kauczor,           Linkoeping University,        Sweden      (Complex polarization propagator (CPP) module)
  Sheela Kirpekar,          Univ. of Southern Denmark,    Denmark     (Mass-velocity & Darwin integrals)
  Wim Klopper,              KIT Karlsruhe,                Germany     (R12 code in CC, SIRIUS, and ABACUS modules)
  Stefan Knecht,            ETH Zurich,                   Switzerland (Parallel CI and MCSCF)
  Rika Kobayashi,           Australian National Univ.,    Australia   (DIIS in CC, London in MCSCF)
  Henrik Koch,              NTNU,                         Norway      (CC module, Cholesky decomposition)
  Jacob Kongsted,           Univ. of Southern Denmark,    Denmark     (Polarizable embedding model, QM/MM)
  Andrea Ligabue,           University of Modena,         Italy       (CTOCD, AOSOPPA)
  Nanna H. List             Univ. of Southern Denmark,    Denmark     (Polarizable embedding model)
  Ola B. Lutnaes,           University of Oslo,           Norway      (DFT Hessian)
  Juan I. Melo,             University of Buenos Aires,   Argentina   (LRESC, Relativistic Effects on NMR Shieldings)
  Kurt V. Mikkelsen,        University of Copenhagen,     Denmark     (MC-SCRF and QM/MM)
  Rolf H. Myhre,            NTNU,                         Norway      (Cholesky, subsystems and ECC2)
  Christian Neiss,          Univ. Erlangen-Nuernberg,     Germany     (CCSD(R12))
  Christian B. Nielsen,     University of Copenhagen,     Denmark     (QM/MM)
  Patrick Norman,           Linkoeping University,        Sweden      (Cubic response and complex frequency response in RESPONS)
  Jeppe Olsen,              Aarhus University,            Denmark     (SIRIUS CI/density modules)
  Jogvan Magnus H. Olsen,   Univ. of Southern Denmark,    Denmark     (Polarizable embedding model, QM/MM)
  Anders Osted,             Copenhagen University,        Denmark     (QM/MM)
  Martin J. Packer,         University of Sheffield,      UK          (SOPPA)
  Filip Pawlowski,          Kazimierz Wielki University,  Poland      (CC3)
  Morten N. Pedersen,       Univ. of Southern Denmark,    Denmark     (Polarizable embedding model)
  Thomas B. Pedersen,       University of Oslo,           Norway      (Cholesky decomposition)
  Patricio F. Provasi,      University of Northeastern,   Argentina   (Analysis of coupling constants in localized orbitals)
  Zilvinas Rinkevicius,     KTH Stockholm,                Sweden      (open-shell DFT, ESR)
  Elias Rudberg,            KTH Stockholm,                Sweden      (DFT grid and basis info)
  Torgeir A. Ruden,         University of Oslo,           Norway      (Numerical derivatives in ABACUS)
  Kenneth Ruud,             UiT The Arctic U. of Norway,  Norway      (DALTON; ABACUS magnetic properties and much more)
  Pawel Salek,              KTH Stockholm,                Sweden      (DALTON; DFT code)
  Claire C. M. Samson       University of Karlsruhe       Germany     (Boys localization, r12 integrals in ERI)
  Alfredo Sanchez de Meras, University of Valencia,       Spain       (CC module, Cholesky decomposition)
  Trond Saue,               Paul Sabatier University,     France      (direct Fock matrix construction)
  Stephan P. A. Sauer,      University of Copenhagen,     Denmark     (SOPPA(CCSD), SOPPA prop., AOSOPPA, vibrational g-factors)
  Bernd Schimmelpfennig,    Forschungszentrum Karlsruhe,  Germany     (AMFI module)
  Kristian Sneskov,         Aarhus University,            Denmark     (Polarizable embedding model, QM/MM)
  Arnfinn H. Steindal,      UiT The Arctic U. of Norway,  Norway      (parallel QM/MM, Polarizable embedding model)
  Casper Steinmann,         Univ. of Southern Denmark,    Denmark     (QFIT, Polarizable embedding model)
  K. O. Sylvester-Hvid,     University of Copenhagen,     Denmark     (MC-SCRF)
  Peter R. Taylor,          VLSCI/Univ. of Melbourne,     Australia   (Symmetry handling ABACUS, integral transformation)
  Andrew M. Teale,          University of Nottingham,     England     (DFT-AC, DFT-D)
  David P. Tew,             University of Bristol,        England     (CCSD(R12))
  Olav Vahtras,             KTH Stockholm,                Sweden      (triplet response, spin-orbit, ESR, TDDFT, open-shell DFT)
  David J. Wilson,          La Trobe University,          Australia   (DFT Hessian and DFT magnetizabilities)
  Hans Agren,               KTH Stockholm,                Sweden      (SIRIUS module, RESPONS, MC-SCRF solvation model)
 --------------------------------------------------------------------------------

     Date and time (Linux)  : Thu Dec 20 05:47:38 2018
     Host name              : s71p34.deic.sdu.dk                      

 * Work memory size             :  2048000000 = 15.259 gigabytes.

 * Directories for basis set searches:
   1) /work/sdujk/reinholdt/ECP-Sonia/mixed-basis_small
   2) /gpfs/gss1/work/sdujk/reinholdt/Programs/dalton-private/pe-cvs/basis


Compilation information
-----------------------

 Who compiled             | reinholdt
 Host                     | fe1.deic.sdu.dk
 System                   | Linux-3.10.0-327.36.3.el7.x86_64
 CMake generator          | Unix Makefiles
 Processor                | x86_64
 64-bit integers          | ON
 MPI                      | OFF
 Fortran compiler         | /opt/sys/apps/intel/2018.05/compilers_and_librarie
                          | s_2018.3.222/linux/bin/intel64/ifort
 Fortran compiler version | ifort (IFORT) 18.0.3 20180410
 C compiler               | /opt/sys/apps/intel/2018.05/compilers_and_librarie
                          | s_2018.3.222/linux/bin/intel64/icc
 C compiler version       | icc (ICC) 18.0.3 20180410
 C++ compiler             | /opt/sys/apps/intel/2018.05/compilers_and_librarie
                          | s_2018.3.222/linux/bin/intel64/icpc
 C++ compiler version     | icpc (ICC) 18.0.3 20180410
 Static linking           | OFF
 Last Git revision        | 252a54078a0f9a1f0a59b3262fa4a57829155fe9
 Git branch               | pe/cc-cvs
 Configuration time       | 2018-12-09 12:09:40.474621


   Content of the .dal input file
 ----------------------------------

**DALTON
.RUN WAVE FUNCTIONS
.PEQM
**INTEGRALS
.DIPLEN
**WAVE FUNCTIONS
.CC
*PRINT
!To check the origin of excit
.PRINTL
   0 11
*SCF INP
.THRESH
1.0D-7
*CC INP
.CCSD
.THRLEQ
 1.0D-9
.THRENR
 1.0D-10
.FROIMP
4
0
.PRINT
 1
.MAX IT
 1200
.MAXRED
 1200
.MXLRV
1199
*PECC
*CCEXCI
.NCCEXC
 15
.CVSEPARA
1
1
*CCLRSD
.DIPOLE
**END OF DALTON INPUT


   Content of the .mol file
 ----------------------------

ATOMBASIS


Atomtypes=5 Charge=1 Nosymm Angstrom
   7.00000    1    Basis=6-311++G**
N          0.000000        0.000000        0.000000
   1.00000    4    Basis=6-311++G**
H         -0.112056        0.826728       -0.621615
H          0.861780       -0.386913       -0.433710
H         -0.830681       -0.681981        0.014581
H          0.326220        0.231556        0.925057
   8.00000    4    Basis=6-31G**
O          0.232816        2.105672       -1.793888
O         -2.413538       -1.137317       -0.152441
O          2.309668       -0.154431        1.652299
O          2.255505       -1.317352       -1.498130
   1.00000    8    Basis=6-31G**
H         -0.261784        2.028034       -2.700384
H          1.198413        2.216169       -2.069678
H         -2.512175       -2.113269       -0.337352
H         -3.091959       -0.666527        0.410825
H          2.707529        0.669763        1.328129
H          2.328645        0.007792        2.619872
H          2.387514       -2.270762       -1.217689
H          3.119135       -0.823974       -1.305614
Charge=8.0   Atoms=59    Basis=pointcharge ECP=pe_ecp
  1       -5.839844        2.362814       -5.400453
  2        2.982671        2.066879       -2.502284
  3        3.984900        4.584000       -2.352445
  4       -6.061978       -3.756432       -5.378298
  5        2.854035        2.350672        0.505114
  6       -6.046130        4.564501       -3.995925
  7       -0.855137       -5.086892        3.932618
  8        4.440689       -1.931346        5.453022
  9        5.458106       -5.614364        2.267959
 10        0.159642        2.732544        6.107567
 11       -4.326003        0.363713        1.098686
 12        4.214025       -5.732541       -5.294787
 13        1.661895       -1.775293       -4.326776
 14       -5.629423        0.653012       -1.722252
 15        5.169536       -2.348799       -3.187936
 16        5.515225        3.407323        1.194581
 17        4.019875        3.887227        6.126514
 18       -0.975212        3.898908        0.147971
 19        5.364769        0.527547        1.405705
 20        1.087751        5.928706       -3.208780
 21       -4.868698       -2.691993        2.039274
 22       -0.104770       -2.804653        2.540523
 23       -1.407160        1.261913        4.437994
 24       -4.033892       -4.838483       -2.931241
 25       -0.740588        4.506384       -4.452598
 26        5.756527       -3.040404       -0.228992
 27       -1.916001       -4.086319       -5.801899
 28        3.064556        5.879839        0.821084
 29       -2.902947       -0.053772       -2.811745
 30        1.635290       -4.678526        5.070699
 31       -0.064920       -0.315465       -5.616153
 32        1.741663        0.284620        4.510263
 33       -2.492211        2.332612        2.217135
 34       -4.062271       -5.267097        0.991444
 35       -3.258469        5.754201       -5.394018
 36        3.783114       -3.712098        3.349004
 37       -3.962625        3.997348        5.012482
 38       -2.471166       -3.980042       -0.738910
 39        5.106601        0.442884        4.282915
 40        3.209896       -2.526499        0.924306
 41        1.550238        4.660046        4.717197
 42        4.405880        0.114341       -1.038834
 43       -3.356091        1.436905       -5.946093
 44       -5.044631       -1.670101        4.764273
 45        5.043126       -0.068228       -4.490298
 46        1.312400        4.355751        1.859199
 47       -1.192529        1.483941       -3.971966
 48       -1.453373       -2.012164        4.934075
 49        0.649164       -4.216719       -4.804971
 50       -3.609778       -2.365332       -4.328358
 51        2.744373        1.687144       -5.201457
 52        5.733138        4.574759        4.145633
 53        3.376987       -4.510223       -2.602172
 54        1.671494       -4.514868       -0.419536
 55        6.014687       -5.556510       -1.862735
 56       -3.137196        4.384972       -2.708982
 57       -2.447866        5.204233        2.937591
 58       -5.285137        4.872088       -0.428326
 59       -0.560746       -6.019430       -1.073272


       *******************************************************************
       *********** Output from DALTON general input processing ***********
       *******************************************************************

 --------------------------------------------------------------------------------
   Overall default print level:    0
   Print level for DALTON.STAT:    1

    HERMIT 1- and 2-electron integral sections will be executed
    "Old" integral transformation used (limited to max 255 basis functions)
    Wave function sections will be executed (SIRIUS module)
    Environment is modeled using polarizable embedding scheme (PE library)
 --------------------------------------------------------------------------------


   ****************************************************************************
   *************** Output of molecule and basis set information ***************
   ****************************************************************************


    The two title cards from your ".mol" input:
    ------------------------------------------------------------------------
 1:                                                                         
 2:                                                                         
    ------------------------------------------------------------------------

  Coordinates are entered in Angstrom and converted to atomic units.
          - Conversion factor : 1 bohr = 0.52917721 A

  Atomic type no.    1
  --------------------
  Nuclear charge:   7.00000
  Number of symmetry independent centers:    1
  Number of basis sets to read;    2
  The basis set is "6-311++G**" from the basis set library.
  Basis set file used for this atomic type with Z =   7 :
     "/gpfs/gss1/work/sdujk/reinholdt/Programs/dalton-private/pe-cvs/basis/6-311++G**"

  Info about the basis set file: your basis has no documentation.
  Basis set: 6-311++G**                                                                      

  Atomic type no.    2
  --------------------
  Nuclear charge:   1.00000
  Number of symmetry independent centers:    4
  Number of basis sets to read;    2
  The basis set is "6-311++G**" from the basis set library.
  Basis set file used for this atomic type with Z =   1 :
     "/gpfs/gss1/work/sdujk/reinholdt/Programs/dalton-private/pe-cvs/basis/6-311++G**"

  Info about the basis set file: your basis has no documentation.
  Basis set: 6-311++G**                                                                      

  Atomic type no.    3
  --------------------
  Nuclear charge:   8.00000
  Number of symmetry independent centers:    4
  Number of basis sets to read;    2
  The basis set is "6-31G**" from the basis set library.
  Basis set file used for this atomic type with Z =   8 :
     "/gpfs/gss1/work/sdujk/reinholdt/Programs/dalton-private/pe-cvs/basis/6-31G**"

  Info about the basis set file: your basis has no documentation.
  Basis set: 6-31G**                                                                         

  Atomic type no.    4
  --------------------
  Nuclear charge:   1.00000
  Number of symmetry independent centers:    8
  Number of basis sets to read;    2
  The basis set is "6-31G**" from the basis set library.
  Basis set file used for this atomic type with Z =   1 :
     "/gpfs/gss1/work/sdujk/reinholdt/Programs/dalton-private/pe-cvs/basis/6-31G**"

  Info about the basis set file: your basis has no documentation.
  Basis set: 6-31G**                                                                         

  Atomic type no.    5
  --------------------
  Nuclear charge:   8.00000
  Number of symmetry independent centers:   59
  Number of basis sets to read;    2
     "/work/sdujk/reinholdt/ECP-Sonia/mixed-basis_small/ecp_data/pe_ecp"
     Pseudo potential parameters for ECP type  1.
     -----------------------------------------------
     Atomic charge  :  8.0
     Effectiv charge:  0.0
     Core electrons :    8
     Max angular mom:    2
  This is a point charge without basis functions.


                         SYMGRP: Point group information
                         -------------------------------

@    Point group: C1 


                                 Isotopic Masses
                                 ---------------

                           N          14.003074
                           H           1.007825
                           H           1.007825
                           H           1.007825
                           H           1.007825
                           O          15.994915
                           O          15.994915
                           O          15.994915
                           O          15.994915
                           H           1.007825
                           H           1.007825
                           H           1.007825
                           H           1.007825
                           H           1.007825
                           H           1.007825
                           H           1.007825
                           H           1.007825

                       Total mass:    90.076634 amu
                       Natural abundance:  98.500 %

 Center-of-mass coordinates (a.u.):    0.929533   -0.189299   -0.673000


  Atoms and basis sets
  --------------------

  Number of atom types :    5
  Total number of atoms:   76

  label    atoms   charge   prim   cont     basis
  ----------------------------------------------------------------------
  N           1    7.0000    35    22      [12s6p1d|5s4p1d]                                   
  H           4    1.0000     9     7      [6s1p|4s1p]                                        
  O           4    8.0000    27    14      [10s4p1d|3s2p1d]                                   
  H           8    1.0000     7     5      [4s1p|2s1p]                                        
   5         59    0.0000     0     0      Point Charge                                       
  ----------------------------------------------------------------------
  total:     76   51.0000   235   146
  ----------------------------------------------------------------------
  Spherical harmonic basis used.

  Threshold for neglecting AO integrals:  1.00D-12


  Cartesian Coordinates (a.u.)
  ----------------------------

  Total number of coordinates:  228
  N       :     1  x   0.0000000000    2  y   0.0000000000    3  z   0.0000000000
  H       :     4  x  -0.2117551507    5  y   1.5622894999    6  z  -1.1746821052
  H       :     7  x   1.6285281800    8  y  -0.7311596042    9  z  -0.8195931177
  H       :    10  x  -1.5697595872   11  y  -1.2887573124   12  z   0.0275540966
  H       :    13  x   0.6164664565   14  y   0.4375774226   15  z   1.7481043800
  O       :    16  x   0.4399584775   17  y   3.9791433891   18  z  -3.3899570189
  O       :    19  x  -4.5609258123   20  y  -2.1492176473   21  z  -0.2880717402
  O       :    22  x   4.3646399597   23  y  -0.2918322952   24  z   3.1223925866
  O       :    25  x   4.2622867236   26  y  -2.4894344902   27  z  -2.8310553996
  H       :    28  x  -0.4947000639   29  y   3.8324288322   30  z  -5.1029861923
  H       :    31  x   2.2646723546   32  y   4.1879524567   33  z  -3.9111245869
  H       :    34  x  -4.7473227281   35  y  -3.9934996384   36  z  -0.6375028877
  H       :    37  x  -5.8429556997   38  y  -1.2595534849   39  z   0.7763467353
  H       :    40  x   5.1164882855   41  y   1.2656686387   42  z   2.5098000687
  H       :    43  x   4.4005012923   44  y   0.0147247460   45  z   4.9508405625
  H       :    46  x   4.5117475796   47  y  -4.2911182750   48  z  -2.3010987154
  H       :    49  x   5.8943108969   50  y  -1.5570851941   51  z  -2.4672528850
    1     :    52  x -11.0357057727   53  y   4.4650713443   54  z -10.2053771209
    2     :    55  x   5.6364313110   56  y   3.9058352435   57  z  -4.7286314470
    3     :    58  x   7.5303696355   59  y   8.6625045570   60  z  -4.4454767741
    4     :    61  x -11.4554781957   62  y  -7.0986276872   63  z -10.1635102386
    5     :    64  x   5.3933445011   65  y   4.4421262897   66  z   0.9545271219
    6     :    67  x -11.4255298161   68  y   8.6256567873   69  z  -7.5512038660
    7     :    70  x  -1.6159747293   71  y  -9.6128327074   72  z   7.4315709742
    8     :    73  x   8.3916860163   74  y  -3.6497149926   75  z  10.3047181336
    9     :    76  x  10.3143255012   77  y -10.6096103260   78  z   4.2858213727
   10     :    79  x   0.3016796580   80  y   5.1637597845   81  z  11.5416289200
   11     :    82  x  -8.1749608859   83  y   0.6873179581   84  z   2.0762156374
   12     :    85  x   7.9633531339   86  y -10.8329324903   87  z -10.0056973202
   13     :    88  x   3.1405263985   89  y  -3.3548175616   90  z  -8.1764216442
   14     :    91  x -10.6380677117   92  y   1.2340138363   93  z  -3.2545845982
   15     :    94  x   9.7690072333   95  y  -4.4385868327   96  z  -6.0243259440
   16     :    97  x  10.4222647677   98  y   6.4389072894   99  z   2.2574309241
   17     :   100  x   7.5964628067  101  y   7.3457944157  102  z  11.5774335609
   18     :   103  x  -1.8428835938  104  y   7.3678683065  105  z   0.2796246644
   19     :   106  x  10.1379441339  107  y   0.9969193481  108  z   2.6563974625
   20     :   109  x   2.0555514822  110  y  11.2036306156  111  z  -6.0637153954
   21     :   112  x  -9.2005058053  113  y  -5.0871295004  114  z   3.8536693538
   22     :   115  x  -0.1979866061  116  y  -5.3000260456  117  z   4.8008926842
   23     :   118  x  -2.6591470140  119  y   2.3846699636  120  z   8.3865932044
   24     :   121  x  -7.6229510978  122  y  -9.1434077304  123  z  -5.5392426964
   25     :   124  x  -1.3995084915  125  y   8.5158315741  126  z  -8.4141907647
   26     :   127  x  10.8782594611  128  y  -5.7455308693  129  z  -0.4327321648
   27     :   130  x  -3.6207171452  131  y  -7.7220237694  132  z -10.9640001149
   28     :   133  x   5.7911715347  134  y  11.1112853691  135  z   1.5516238856
   29     :   136  x  -5.4857747854  137  y  -0.1016143532  138  z  -5.3134279833
   30     :   139  x   3.0902502349  140  y  -8.8411328087  141  z   9.5822323723
   31     :   142  x  -0.1226810200  143  y  -0.5961424520  144  z -10.6129910461
   32     :   145  x   3.2912660720  146  y   0.5378538497  147  z   8.5231618217
   33     :   148  x  -4.7095962357  149  y   4.4079978359  150  z   4.1897779321
   34     :   151  x  -7.6765796355  152  y  -9.9533708038  153  z   1.8735576283
   35     :   154  x  -6.1576139968  155  y  10.8738639582  156  z -10.1932167333
   36     :   157  x   7.1490493596  158  y  -7.0148485691  159  z   6.3287003515
   37     :   160  x  -7.4882759861  161  y   7.5538929463  162  z   9.4722181865
   38     :   163  x  -4.6698269494  164  y  -7.5211893460  165  z  -1.3963375310
   39     :   166  x   9.6500773196  167  y   0.8369294651  168  z   8.0935363666
   40     :   169  x   6.0658243297  170  y  -4.7743911651  171  z   1.7466851957
   41     :   172  x   2.9295252486  173  y   8.8062106699  174  z   8.9142104076
   42     :   175  x   8.3259065396  176  y   0.2160731749  177  z  -1.9631117493
   43     :   178  x  -6.3420928406  179  y   2.7153569176  180  z -11.2364872837
   44     :   181  x  -9.5329709917  182  y  -3.1560334911  183  z   9.0031711547
   45     :   184  x   9.5301269538  185  y  -0.1289322341  186  z  -8.4854334396
   46     :   187  x   2.4800765664  188  y   8.2311764587  189  z   3.5133769219
   47     :   190  x  -2.2535532061  191  y   2.8042420756  192  z  -7.5059279178
   48     :   193  x  -2.7464769275  194  y  -3.8024388786  195  z   9.3240504302
   49     :   196  x   1.2267421702  197  y  -7.9684440561  198  z  -9.0800792285
   50     :   199  x  -6.8214917920  200  y  -4.4698296747  201  z  -8.1794111909
   51     :   202  x   5.1861133548  203  y   3.1882400934  204  z  -9.8293291809
   52     :   205  x  10.8340606568  206  y   8.6450415978  207  z   7.8341109847
   53     :   208  x   6.3815805577  209  y  -8.5230862326  210  z  -4.9173924101
   54     :   211  x   3.1586658796  212  y  -8.5318640105  213  z  -0.7928081396
   55     :   214  x  11.3661111576  215  y -10.5002821108  216  z  -3.5200589934
   56     :   217  x  -5.9284412404  218  y   8.2863961458  219  z  -5.1192340575
   57     :   220  x  -4.6257963307  221  y   9.8345750607  222  z   5.5512424572
   58     :   223  x  -9.9874614631  224  y   9.2069119769  225  z  -0.8094188322
   59     :   226  x  -1.0596563657  227  y -11.3750741286  228  z  -2.0281901376

  Max    interatomic separation is   17.2985 Angstrom (   32.6895 Bohr)
  between atoms   69 and   21, " 52   " and "  4   ".

  Min HX interatomic separation is    0.9709 Angstrom (    1.8348 Bohr)

  Min YX interatomic separation is    2.5437 Angstrom (    4.8070 Bohr)


  Bond distances (Angstrom):
  --------------------------

                  atom 1     atom 2       distance
                  ------     ------       --------
  bond distance:  H          N            1.040404
  bond distance:  H          N            1.039457
  bond distance:  H          N            1.074868
  bond distance:  H          N            1.007853
  bond distance:  H          O            1.035564
  bond distance:  H          O            1.010271
  bond distance:  H          O            0.998200
  bond distance:  H          O            0.999583
  bond distance:  H          O            0.970915
  bond distance:  H          O            0.981261
  bond distance:  H          O            1.002529
  bond distance:  H          O            1.013085


  Bond angles (degrees):
  ----------------------

                  atom 1     atom 2     atom 3         angle
                  ------     ------     ------         -----
  bond angle:     H          N          H             97.804
  bond angle:     H          N          H            115.407
  bond angle:     H          N          H            113.621
  bond angle:     H          N          H            114.218
  bond angle:     H          N          H            101.545
  bond angle:     H          N          H            112.549
  bond angle:     H          O          H            103.046
  bond angle:     H          O          H            119.855
  bond angle:     H          O          H            100.426
  bond angle:     H          O          H            107.322




 Principal moments of inertia (u*A**2) and principal axes
 --------------------------------------------------------

   IA     282.370064          0.988279    0.003964    0.152606
   IB     392.125874         -0.105994   -0.701597    0.704646
   IC     470.084327         -0.109861    0.712563    0.692954


 Rotational constants
 --------------------

               A                   B                   C

           1789.7754           1288.8183           1075.0816 MHz
            0.059700            0.042990            0.035861 cm-1


@  Nuclear repulsion energy :  203.429446796516 Hartree

  Reading potential input file for polarizable embedding calculation
 
    .------------------------------------------------.
    | Information from polarizable embedding library |
    `------------------------------------------------´

      Number of classical sites:    177

      Multipole moments upto 0th order.

      Dipole-dipole polarizabilities.

      Iterative solver for induced moments will be used
      with convergence threshold: 1.0E-08
      Total charge of classical region:    0.0000
 

  Number of floating/multiple basis set orbitals :   59


                     .---------------------------------------.
                     | Starting in Integral Section (HERMIT) |
                     `---------------------------------------'



 ***************************************************************************************
 ****************** Output from **INTEGRALS input processing (HERMIT) ******************
 ***************************************************************************************



    *************************************************************************
    ****************** Output from HERMIT input processing ******************
    *************************************************************************


 Default print level:        1

 * Nuclear model: Point charge

 Calculation of one- and two-electron Hamiltonian integrals.

 The following one-electron property integrals are calculated as requested:
          - overlap integrals
          - dipole length integrals

 Center of mass  (bohr):      0.929532560839     -0.189298777579     -0.672999514538
 Operator center (bohr):      0.000000000000      0.000000000000      0.000000000000
 Gauge origin    (bohr):      0.000000000000      0.000000000000      0.000000000000
 Dipole origin   (bohr):      0.000000000000      0.000000000000      0.000000000000


     ************************************************************************
     ************************** Output from HERINT **************************
     ************************************************************************



                      Nuclear contribution to dipole moments
                      --------------------------------------

                 au               Debye          C m (/(10**-30)

      x     47.61389660       121.02244589       403.68742661
      y     -9.43126026       -23.97187095       -79.96155443
      z    -33.49512722       -85.13611595      -283.98351485


  Time used in ONEDRV     is       3.96 seconds

 Threshold for neglecting two-electron integrals:  1.00D-12
 HERMIT - Number of two-electron integrals written:    32615476 ( 56.6% )
 HERMIT - Megabytes written:                            373.468

  Time used in TWOINT     is       6.18 seconds
  Total CPU  time used in HERMIT:  10.40 seconds
  Total wall time used in HERMIT:   9.45 seconds


                        .----------------------------------.
                        | End of Integral Section (HERMIT) |
                        `----------------------------------'



                   .--------------------------------------------.
                   | Starting in Wave Function Section (SIRIUS) |
                   `--------------------------------------------'

 INPUT: SIMPLE =  F
NCCEXCI for singlet:   15
 CCSD_INPUT: core-val requested
 Requested number of core orbs per sym
                     1
 Indices of requested core orbs
                     1

 *** Output from Huckel module :

     Using EWMO model:          T
     Using EHT  model:          F
     Number of Huckel orbitals each symmetry:   37

 EWMO - Energy Weighted Maximum Overlap - is a Huckel type method,
        which normally is better than Extended Huckel Theory.
 Reference: Linderberg and Ohrn, Propagators in Quantum Chemistry (Wiley, 1973)

 Huckel EWMO eigenvalues for symmetry :  1
          -20.684779     -20.684501     -20.684233     -20.684118     -15.675603
           -1.813351      -1.618700      -1.595818      -1.575744      -1.480393
           -0.831393      -0.813496      -0.793122      -0.781569      -0.768643
           -0.757463      -0.740639      -0.696764      -0.670003      -0.649121
           -0.634528      -0.610394      -0.581192      -0.562200      -0.555478
           -0.267485      -0.251157      -0.248472      -0.231626      -0.189137
           -0.183689      -0.177472      -0.176552      -0.174364      -0.151309
           -0.142151      -0.139142

 **********************************************************************
 *SIRIUS* a direct, restricted step, second order MCSCF program       *
 **********************************************************************

 
     Date and time (Linux)  : Thu Dec 20 05:47:49 2018
     Host name              : s71p34.deic.sdu.dk                      

 Title lines from ".mol" input file:
                                                                             
                                                                             

 Print level on unit LUPRI =   2 is   0
 Print level on unit LUW4  =   2 is  11

@    (Integral direct) CC calculation.

@    This is a combination run starting with
@              a restricted, closed shell Hartree-Fock calculation


 Initial molecular orbitals are obtained according to
 ".MOSTART EWMO  " input option

@    QM part is embedded in an environment :

@         Model: PE

     Wave function specification
     ============================

     For the specification of the Coupled Cluster: see later.


     Wave function environment is modeled using the
     polarizable embedding model (PE library).

@    Wave function type        --- PE-CC ---
@    Number of closed shell electrons          50
@    Number of electrons in active shells       0
@    Total charge of the molecule               1

@    Spin multiplicity and 2 M_S                1         0
@    Total number of symmetries                 1 (point group: C1 )
@    Reference state symmetry                   1 (irrep name : A  )

     Orbital specifications
     ======================
@    Abelian symmetry species          All |    1
@                                          |  A  
                                       --- |  ---
@    Occupied SCF orbitals              25 |   25
@    Secondary orbitals                121 |  121
@    Total number of orbitals          146 |  146
@    Number of basis functions         146 |  146

     Optimization information
     ========================
@    Number of configurations                 1
@    Number of orbital rotations           3025
     ------------------------------------------
@    Total number of variables             3026

     Maximum number of Fock   iterations      0
     Maximum number of DIIS   iterations     60
     Maximum number of QC-SCF iterations     60
     Threshold for SCF convergence     1.00D-07


 Changes of defaults for CC:
 ---------------------------


 -Implicit frozen core calculation
 -Excitation energies calculated
 -One-photon absorption strengths will be calculated
 -Oscillator strengths calculated
  
* Read MO coefficients from SIRIUS.RST with label "NEWORB  " and header info: 20Dec18  REORTHO 


 ***********************************************
 ***** DIIS acceleration of SCF iterations *****
 ***********************************************

 C1-DIIS algorithm; max error vectors =    8
 -----------------------------------------------------------------------------

 *** DIIS iteration number    1
 RDSUPM called. NFMAT, ISYMDM(1:NFMAT)                     1
                     1

Calculating AOSUPINT
     (Precalculated AO two-electron integrals are transformed to P-supermatrix elements.
      Threshold for discarding integrals :  1.00D-12 )
  CPU  time used in FORMSUP    is   2.73 seconds
  WALL time used in FORMSUP    is   4.24 seconds

 ITDIIS, energy, error norm, change in energy, scr.thr., difden:
@ DIIS iter.   1    -360.121809833        3.72802D+00   -3.60D+02  -20    F

 (DIIS_RED) Control Parameters C2DIIS =         F NEVC =    1


 (DIIS_RED) B matrix:

               Column   1
       1      13.89810042
    ==== End of matrix output ====

 DIIS C vector; C2DIIS = F, LAMBDA = -1.39D+01
    1.000000
* Read MO coefficients from SIRIUS.RST with label "NEWORB  " and header info: 20Dec18  DIIS   1
      Virial theorem: -V/T =      2.005794
@    MULPOP   N      -0.20; H       0.22; H       0.19; H       0.19; H       0.19; O      -0.47; O      -0.47; O      -0.51; O      -0.51; H       0.29; 
@             H       0.29; H       0.30; H       0.29; H       0.30; H       0.29; H       0.29; H       0.30; 
   1  Level shift: doubly occupied orbital energies shifted by -2.00D-01

 DIIS Fock eigenvalues in symmetry 1
      -20.87884      -20.86914      -20.85160      -20.82797      -16.45505
       -1.73358       -1.68279       -1.64234       -1.63587       -1.60652
       -1.21745       -1.20654       -1.18117       -1.04691       -1.03636
       -1.01505       -0.97162       -0.93415       -0.89090       -0.88495
       -0.88059       -0.86813       -0.86190       -0.85098       -0.82711
       -0.02924        0.01868        0.03586        0.05075        0.09692
        0.10738        0.11222        0.12171        0.15278        0.18286
        0.19318        0.20400        0.21337        0.22856        0.24173
        0.26816        0.26992        0.28274        0.29752        0.30282
        0.45708        0.47095        0.49457        0.67602        0.71225
        0.73204        0.75650        0.83400        0.87345        0.89430
        0.92649        0.93737        0.95841        0.97105        0.98245
        1.00206        1.02670        1.03101        1.07304        1.08450
        1.10496        1.14249        1.17543        1.18380        1.21150
        1.23822        1.25166        1.26712        1.27651        1.30653
        1.43480        1.44481        1.47713        1.51650        1.54823
        1.59338        1.61390        1.63350        1.63949        1.65939
        1.67310        1.67836        1.68420        1.69406        1.71959
        1.72337        1.76717        1.77403        1.83277        2.00484
        2.04156        2.09919        2.12676        2.25582        2.29260
        2.32868        2.35415        2.36873        2.38549        2.40332
        2.40889        2.41437        2.45688        2.55672        2.56885
        2.57654        2.62194        2.64071        2.64433        2.68138
        2.70041        2.71359        2.73427        2.77386        2.77644
        2.78709        2.79399        2.80264        2.84969        2.86041
        2.90362        3.04029        3.09215        3.11631        3.13714
        3.15118        3.15535        3.17323        3.19418        3.54592
        3.56875        3.58015        3.68095        3.68685        3.72921
        3.77240        3.77679        4.66081        4.82274        4.86831
       36.40566
 Time used in FCKEIG, thr_jaco:   8.03D-02  3.30D-02  1.69D-04
 CPU and wall times used in FCKEIG, THR_FCKEIG:   8.04D-02  3.30D-02  3.73D-02
 -----------------------------------------------------------------------------

 *** DIIS iteration number    2
 RDSUPM called. NFMAT, ISYMDM(1:NFMAT)                     1
                     1

 ITDIIS, energy, error norm, change in energy, scr.thr., difden:
@ DIIS iter.   2    -361.019933405        1.10344D+00   -8.98D-01  -20    F

 (DIIS_RED) Control Parameters C2DIIS =         F NEVC =    2


 (DIIS_RED) B matrix:

               Column   1     Column   2
       1      13.89810042
       2       1.14763914     1.21757792
    ==== End of matrix output ====

 DIIS C vector; C2DIIS = F, LAMBDA = -1.22D+00
    0.005455    0.994545
* Read MO coefficients from SIRIUS.RST with label "NEWORB  " and header info: 20Dec18  DIIS   2
      Virial theorem: -V/T =      2.003362
@    MULPOP   N      -0.91; H       0.42; H       0.40; H       0.40; H       0.37; O      -0.68; O      -0.69; O      -0.66; O      -0.67; H       0.41; 
@             H       0.36; H       0.39; H       0.40; H       0.36; H       0.36; H       0.34; H       0.40; 
   2  Level shift: doubly occupied orbital energies shifted by -1.00D-01

 DIIS Fock eigenvalues in symmetry 1
      -20.80241      -20.79512      -20.77997      -20.77194      -15.61159
       -1.56385       -1.53134       -1.53091       -1.50242       -1.37965
       -0.91390       -0.91332       -0.89424       -0.88925       -0.87971
       -0.85082       -0.84105       -0.81769       -0.77778       -0.75824
       -0.74977       -0.73926       -0.72365       -0.71368       -0.69383
        0.00877        0.04222        0.06064        0.07463        0.14403
        0.14612        0.15300        0.17835        0.20676        0.23231
        0.25324        0.25877        0.26067        0.28598        0.29754
        0.30380        0.31962        0.33079        0.34666        0.36633
        0.53657        0.54776        0.56632        0.78000        0.86256
        0.87354        0.91034        0.92561        0.93055        0.96832
        0.98665        0.99937        1.00792        1.02263        1.04544
        1.05867        1.08087        1.09172        1.11386        1.12838
        1.15266        1.18549        1.21301        1.21766        1.26217
        1.26831        1.30048        1.32042        1.33531        1.36935
        1.50959        1.51652        1.57115        1.59816        1.62392
        1.64956        1.66294        1.69013        1.69242        1.71819
        1.72238        1.73248        1.74383        1.74824        1.75998
        1.78041        1.83633        1.87503        1.91018        2.11952
        2.15189        2.20416        2.25066        2.35497        2.36517
        2.39571        2.41629        2.42418        2.44071        2.47058
        2.48159        2.50319        2.59786        2.61293        2.61772
        2.67101        2.70946        2.71679        2.72165        2.80042
        2.81082        2.82108        2.82615        2.83411        2.84840
        2.87741        2.88877        2.92292        2.94352        2.98297
        3.00350        3.14588        3.18751        3.19570        3.21861
        3.25752        3.37510        3.42452        3.44905        3.61014
        3.63898        3.64507        3.72811        3.73304        3.76653
        3.80835        3.82510        5.06668        5.22787        5.27103
       37.13186
 Time used in FCKEIG, thr_jaco:   9.20D-02  2.50D-02  5.02D-05
 CPU and wall times used in FCKEIG, THR_FCKEIG:   9.21D-02  2.50D-02  1.10D-02
 -----------------------------------------------------------------------------

 *** DIIS iteration number    3
 RDSUPM called. NFMAT, ISYMDM(1:NFMAT)                     1
                     1

 ITDIIS, energy, error norm, change in energy, scr.thr., difden:
@ DIIS iter.   3    -361.095902662        3.87280D-01   -7.60D-02  -20    F

 (DIIS_RED) Control Parameters C2DIIS =         F NEVC =    3


 (DIIS_RED) B matrix:

               Column   1     Column   2     Column   3
       1      13.89810042
       2       1.14763914     1.21757792
       3       0.85864971    -0.04514630     0.14998594
    ==== End of matrix output ====

 DIIS C vector; C2DIIS = F, LAMBDA = -7.47D-02
   -0.063555    0.154954    0.908601
* Read MO coefficients from SIRIUS.RST with label "NEWORB  " and header info: 20Dec18  DIIS   3
      Virial theorem: -V/T =      2.005008
@    MULPOP   N      -0.77; H       0.41; H       0.38; H       0.39; H       0.33; O      -0.81; O      -0.81; O      -0.76; O      -0.78; H       0.47; 
@             H       0.41; H       0.43; H       0.46; H       0.41; H       0.40; H       0.38; H       0.45; 
   3  Level shift: doubly occupied orbital energies shifted by -5.00D-02

 DIIS Fock eigenvalues in symmetry 1
      -20.72568      -20.70656      -20.70020      -20.67821      -15.77755
       -1.50074       -1.46619       -1.46215       -1.43247       -1.38190
       -0.87054       -0.86395       -0.84861       -0.84571       -0.82376
       -0.81949       -0.77994       -0.75443       -0.70953       -0.69221
       -0.68465       -0.67150       -0.65169       -0.64646       -0.62038
        0.01244        0.04384        0.06446        0.07838        0.14777
        0.15070        0.15759        0.17872        0.21281        0.23738
        0.25691        0.26213        0.26758        0.29173        0.30372
        0.31040        0.32356        0.34037        0.34605        0.36695
        0.53634        0.54335        0.56479        0.77904        0.85137
        0.85810        0.89597        0.92541        0.93740        0.97801
        0.99652        1.00674        1.01959        1.03602        1.05592
        1.07025        1.09215        1.10431        1.12953        1.14359
        1.15504        1.19840        1.22377        1.23037        1.27579
        1.28022        1.31664        1.33322        1.34266        1.37593
        1.51912        1.52687        1.57892        1.60774        1.63497
        1.66271        1.68041        1.70710        1.71102        1.73299
        1.73874        1.74901        1.75820        1.75901        1.77726
        1.79453        1.84728        1.87976        1.91789        2.12074
        2.15482        2.20777        2.24774        2.36768        2.37223
        2.41182        2.43177        2.43942        2.45532        2.48282
        2.49466        2.50688        2.58972        2.63276        2.63741
        2.68228        2.71826        2.72748        2.73450        2.80716
        2.81636        2.83586        2.83868        2.84707        2.85931
        2.88539        2.88645        2.91518        2.95415        2.97918
        2.98047        3.15887        3.20024        3.21162        3.22596
        3.25920        3.33188        3.37874        3.40358        3.62753
        3.65410        3.66243        3.74337        3.75004        3.78650
        3.82819        3.84114        4.97964        5.14114        5.18515
       36.92246
 Time used in FCKEIG, thr_jaco:   8.27D-02  2.10D-02  1.76D-05
 CPU and wall times used in FCKEIG, THR_FCKEIG:   8.28D-02  2.10D-02  3.87D-03
 -----------------------------------------------------------------------------

 *** DIIS iteration number    4
 RDSUPM called. NFMAT, ISYMDM(1:NFMAT)                     1
                     1

 ITDIIS, energy, error norm, change in energy, scr.thr., difden:
@ DIIS iter.   4    -361.106498083        7.85402D-02   -1.06D-02  -20    F

 (DIIS_RED) Control Parameters C2DIIS =         F NEVC =    4


 (DIIS_RED) B matrix:

               Column   1     Column   2     Column   3     Column   4
       1      13.89810042
       2       1.14763914     1.21757792
       3       0.85864971    -0.04514630     0.14998594
       4       0.09186191     0.05320279     0.00977009     0.00616856
    ==== End of matrix output ====

 DIIS C vector; C2DIIS = F, LAMBDA = -3.69D-03
    0.001386   -0.049853   -0.071309    1.119776
* Read MO coefficients from SIRIUS.RST with label "NEWORB  " and header info: 20Dec18  DIIS   4
      Virial theorem: -V/T =      2.004771
@    MULPOP   N      -0.83; H       0.42; H       0.39; H       0.41; H       0.35; O      -0.83; O      -0.83; O      -0.79; O      -0.80; H       0.48; 
@             H       0.42; H       0.45; H       0.47; H       0.42; H       0.41; H       0.39; H       0.47; 
   4  Level shift: doubly occupied orbital energies shifted by -1.25D-02

 DIIS Fock eigenvalues in symmetry 1
      -20.69617      -20.67946      -20.67470      -20.65570      -15.71826
       -1.46689       -1.43157       -1.42774       -1.39924       -1.33534
       -0.82576       -0.81883       -0.81423       -0.80992       -0.78876
       -0.77383       -0.74630       -0.71839       -0.67254       -0.65537
       -0.64795       -0.63346       -0.61327       -0.60791       -0.58329
        0.01365        0.04436        0.06447        0.07962        0.14969
        0.15316        0.15902        0.18074        0.21168        0.23790
        0.25766        0.26317        0.26614        0.29195        0.30380
        0.31060        0.32543        0.33954        0.34944        0.36939
        0.54068        0.54808        0.56958        0.78378        0.85627
        0.86375        0.90222        0.92633        0.93680        0.97892
        0.99592        1.00669        1.01806        1.03410        1.05573
        1.06907        1.09069        1.10418        1.12958        1.14433
        1.15756        1.19807        1.22317        1.23025        1.27537
        1.27964        1.31464        1.33104        1.34331        1.37449
        1.51985        1.52787        1.58216        1.61071        1.63673
        1.66317        1.67924        1.70499        1.70978        1.73188
        1.73778        1.74859        1.75762        1.76015        1.77661
        1.79373        1.84870        1.88316        1.92110        2.12631
        2.15943        2.21195        2.25372        2.36650        2.37432
        2.41102        2.43069        2.43727        2.45369        2.48039
        2.49046        2.50833        2.59408        2.63051        2.63460
        2.68196        2.71979        2.72762        2.73382        2.81174
        2.81769        2.83426        2.83758        2.84560        2.85869
        2.88631        2.88933        2.91876        2.95625        2.98234
        2.98516        3.15752        3.19924        3.20975        3.22597
        3.26129        3.34124        3.38839        3.41307        3.62462
        3.65052        3.65833        3.74152        3.74822        3.78482
        3.82551        3.83861        4.99244        5.15421        5.19817
       36.94417
 Time used in FCKEIG, thr_jaco:   8.28D-02  2.10D-02  3.57D-06
 CPU and wall times used in FCKEIG, THR_FCKEIG:   8.30D-02  2.10D-02  7.85D-04
 -----------------------------------------------------------------------------

 *** DIIS iteration number    5
 RDSUPM called. NFMAT, ISYMDM(1:NFMAT)                     1
                     1

 ITDIIS, energy, error norm, change in energy, scr.thr., difden:
@ DIIS iter.   5    -361.107349289        2.60758D-02   -8.51D-04  -20    F

 (DIIS_RED) Control Parameters C2DIIS =         F NEVC =    5


 (DIIS_RED) B matrix:

               Column   1     Column   2     Column   3     Column   4     Column   5
       1      13.89810042
       2       1.14763914     1.21757792
       3       0.85864971    -0.04514630     0.14998594
       4       0.09186191     0.05320279     0.00977009     0.00616856
       5       0.01592630     0.00567425     0.00436378     0.00084440     0.00067995
    ==== End of matrix output ====

 DIIS C vector; C2DIIS = F, LAMBDA = -4.96D-04
    0.002216   -0.012015   -0.047130    0.093753    0.963175
* Read MO coefficients from SIRIUS.RST with label "NEWORB  " and header info: 20Dec18  DIIS   5
      Virial theorem: -V/T =      2.004501
@    MULPOP   N      -0.82; H       0.42; H       0.39; H       0.40; H       0.34; O      -0.85; O      -0.85; O      -0.80; O      -0.81; H       0.49; 
@             H       0.43; H       0.46; H       0.48; H       0.43; H       0.42; H       0.40; H       0.48; 

 DIIS Fock eigenvalues in symmetry 1
      -20.67986      -20.66056      -20.65457      -20.63444      -15.70309
       -1.45288       -1.41637       -1.41278       -1.38354       -1.32148
       -0.81211       -0.80507       -0.80003       -0.79634       -0.77455
       -0.75979       -0.73147       -0.70488       -0.65803       -0.64056
       -0.63300       -0.61876       -0.59757       -0.59236       -0.56703
        0.01402        0.04459        0.06473        0.08004        0.15014
        0.15369        0.15952        0.18128        0.21196        0.23840
        0.25820        0.26385        0.26664        0.29252        0.30440
        0.31119        0.32633        0.34037        0.35019        0.37023
        0.54146        0.54888        0.57026        0.78462        0.85722
        0.86468        0.90323        0.92703        0.93749        0.98007
        0.99670        1.00751        1.01904        1.03502        1.05668
        1.07013        1.09174        1.10582        1.13154        1.14631
        1.15941        1.19981        1.22432        1.23196        1.27708
        1.28152        1.31651        1.33286        1.34457        1.37613
        1.52102        1.52936        1.58375        1.61192        1.63824
        1.66450        1.68066        1.70604        1.71110        1.73325
        1.73961        1.75026        1.75928        1.76158        1.77823
        1.79508        1.85012        1.88455        1.92245        2.12744
        2.16079        2.21328        2.25474        2.36696        2.37588
        2.41263        2.43177        2.43788        2.45465        2.48075
        2.49042        2.50967        2.59526        2.63178        2.63600
        2.68274        2.72044        2.72850        2.73466        2.81269
        2.81857        2.83485        2.83834        2.84620        2.85958
        2.88714        2.89024        2.91970        2.95716        2.98328
        2.98623        3.15814        3.20006        3.21038        3.22656
        3.26197        3.34259        3.38976        3.41446        3.62544
        3.65147        3.65899        3.74252        3.74947        3.78606
        3.82707        3.83928        4.99415        5.15586        5.19981
       36.94677
 Time used in FCKEIG, thr_jaco:   6.05D-02  1.70D-02  1.19D-06
 CPU and wall times used in FCKEIG, THR_FCKEIG:   6.06D-02  1.70D-02  2.61D-04
 -----------------------------------------------------------------------------

 *** DIIS iteration number    6
 RDSUPM called. NFMAT, ISYMDM(1:NFMAT)                     1
                     1

 ITDIIS, energy, error norm, change in energy, scr.thr., difden:
@ DIIS iter.   6    -361.107420292        9.63904D-03   -7.10D-05  -20    F

 (DIIS_RED) Control Parameters C2DIIS =         F NEVC =    6


 (DIIS_RED) B matrix:

               Column   1     Column   2     Column   3     Column   4     Column   5     Column   6
       1      13.89810042
       2       1.14763914     1.21757792
       3       0.85864971    -0.04514630     0.14998594
       4       0.09186191     0.05320279     0.00977009     0.00616856
       5       0.01592630     0.00567425     0.00436378     0.00084440     0.00067995
       6      -0.00460260    -0.00018915     0.00033310     0.00044808     0.00000377     0.00009291
    ==== End of matrix output ====

 DIIS C vector; C2DIIS = F, LAMBDA = -2.47D-05
    0.000598    0.005329    0.001413   -0.144937    0.143258    0.994339
* Read MO coefficients from SIRIUS.RST with label "NEWORB  " and header info: 20Dec18  DIIS   6
      Virial theorem: -V/T =      2.004722
@    MULPOP   N      -0.82; H       0.42; H       0.39; H       0.40; H       0.34; O      -0.85; O      -0.85; O      -0.81; O      -0.81; H       0.49; 
@             H       0.43; H       0.46; H       0.48; H       0.43; H       0.42; H       0.40; H       0.48; 

 DIIS Fock eigenvalues in symmetry 1
      -20.68089      -20.66244      -20.65706      -20.63732      -15.70434
       -1.45308       -1.41716       -1.41328       -1.38441       -1.32178
       -0.81254       -0.80538       -0.80089       -0.79664       -0.77507
       -0.76004       -0.73230       -0.70540       -0.65874       -0.64144
       -0.63393       -0.61888       -0.59801       -0.59276       -0.56768
        0.01403        0.04461        0.06468        0.08002        0.15014
        0.15366        0.15948        0.18125        0.21185        0.23832
        0.25809        0.26371        0.26646        0.29236        0.30423
        0.31090        0.32610        0.34004        0.34995        0.36995
        0.54141        0.54886        0.57018        0.78453        0.85701
        0.86448        0.90303        0.92682        0.93724        0.97974
        0.99637        1.00720        1.01868        1.03480        1.05644
        1.06974        1.09147        1.10537        1.13118        1.14601
        1.15904        1.19923        1.22405        1.23146        1.27652
        1.28094        1.31590        1.33226        1.34429        1.37565
        1.52082        1.52902        1.58341        1.61167        1.63786
        1.66421        1.68012        1.70574        1.71073        1.73284
        1.73906        1.74974        1.75873        1.76124        1.77780
        1.79473        1.84975        1.88425        1.92224        2.12724
        2.16064        2.21310        2.25459        2.36654        2.37551
        2.41213        2.43130        2.43750        2.45439        2.48035
        2.49020        2.50928        2.59488        2.63128        2.63541
        2.68252        2.72017        2.72814        2.73417        2.81255
        2.81827        2.83451        2.83793        2.84589        2.85921
        2.88684        2.88989        2.91945        2.95694        2.98288
        2.98592        3.15767        3.19959        3.21002        3.22625
        3.26177        3.34222        3.38936        3.41401        3.62506
        3.65096        3.65864        3.74184        3.74878        3.78559
        3.82636        3.83898        4.99359        5.15529        5.19922
       36.94554
 Time used in FCKEIG, thr_jaco:   5.68D-02  1.90D-02  4.38D-07
 CPU and wall times used in FCKEIG, THR_FCKEIG:   5.69D-02  1.90D-02  9.64D-05
 -----------------------------------------------------------------------------

 *** DIIS iteration number    7
 RDSUPM called. NFMAT, ISYMDM(1:NFMAT)                     1
                     1

 ITDIIS, energy, error norm, change in energy, scr.thr., difden:
@ DIIS iter.   7    -361.107430140        1.81318D-03   -9.85D-06  -20    F

 (DIIS_RED) Control Parameters C2DIIS =         F NEVC =    7


 (DIIS_RED) B matrix:

               Column   1     Column   2     Column   3     Column   4     Column   5     Column   6
       1      13.89810042
       2       1.14763914     1.21757792
       3       0.85864971    -0.04514630     0.14998594
       4       0.09186191     0.05320279     0.00977009     0.00616856
       5       0.01592630     0.00567425     0.00436378     0.00084440     0.00067995
       6      -0.00460260    -0.00018915     0.00033310     0.00044808     0.00000377     0.00009291
       7       0.00028544     0.00015874     0.00001115     0.00000928     0.00003408     0.00000009

               Column   7
       7       0.00000329
    ==== End of matrix output ====

 DIIS C vector; C2DIIS = F, LAMBDA = -7.82D-07
   -0.000243   -0.000421    0.002705    0.023320   -0.095113   -0.123987    1.193739
* Read MO coefficients from SIRIUS.RST with label "NEWORB  " and header info: 20Dec18  DIIS   7
      Virial theorem: -V/T =      2.004669
@    MULPOP   N      -0.82; H       0.42; H       0.39; H       0.40; H       0.34; O      -0.85; O      -0.85; O      -0.81; O      -0.82; H       0.50; 
@             H       0.43; H       0.46; H       0.48; H       0.43; H       0.42; H       0.40; H       0.48; 

 DIIS Fock eigenvalues in symmetry 1
      -20.68089      -20.66224      -20.65681      -20.63691      -15.70405
       -1.45305       -1.41703       -1.41317       -1.38424       -1.32162
       -0.81241       -0.80526       -0.80083       -0.79659       -0.77499
       -0.75991       -0.73218       -0.70545       -0.65871       -0.64137
       -0.63385       -0.61881       -0.59786       -0.59262       -0.56747
        0.01407        0.04464        0.06471        0.08007        0.15018
        0.15372        0.15954        0.18131        0.21188        0.23835
        0.25814        0.26376        0.26649        0.29241        0.30427
        0.31095        0.32617        0.34010        0.35004        0.37002
        0.54150        0.54896        0.57029        0.78463        0.85711
        0.86459        0.90315        0.92689        0.93729        0.97979
        0.99641        1.00726        1.01874        1.03483        1.05650
        1.06980        1.09152        1.10547        1.13127        1.14609
        1.15917        1.19934        1.22411        1.23157        1.27662
        1.28104        1.31597        1.33233        1.34434        1.37573
        1.52090        1.52913        1.58354        1.61178        1.63797
        1.66428        1.68019        1.70577        1.71078        1.73291
        1.73916        1.74983        1.75882        1.76133        1.77788
        1.79479        1.84985        1.88437        1.92234        2.12738
        2.16075        2.21321        2.25472        2.36657        2.37561
        2.41221        2.43135        2.43754        2.45442        2.48037
        2.49020        2.50937        2.59501        2.63134        2.63548
        2.68256        2.72023        2.72820        2.73423        2.81265
        2.81834        2.83454        2.83798        2.84593        2.85926
        2.88690        2.88998        2.91955        2.95702        2.98296
        2.98605        3.15770        3.19964        3.21006        3.22630
        3.26185        3.34239        3.38954        3.41419        3.62509
        3.65100        3.65865        3.74190        3.74883        3.78564
        3.82645        3.83899        4.99378        5.15550        5.19943
       36.94583
 Time used in FCKEIG, thr_jaco:   5.41D-02  1.70D-02  8.24D-08
 CPU and wall times used in FCKEIG, THR_FCKEIG:   5.59D-02  1.70D-02  1.81D-05
 -----------------------------------------------------------------------------

 *** DIIS iteration number    8
 RDSUPM called. NFMAT, ISYMDM(1:NFMAT)                     1
                     1

 ITDIIS, energy, error norm, change in energy, scr.thr., difden:
@ DIIS iter.   8    -361.107430497        3.10999D-04   -3.57D-07  -20    F

 (DIIS_RED) Control Parameters C2DIIS =         F NEVC =    8


 (DIIS_RED) B matrix:

               Column   1     Column   2     Column   3     Column   4     Column   5     Column   6
       1      13.89810042
       2       1.14763914     1.21757792
       3       0.85864971    -0.04514630     0.14998594
       4       0.09186191     0.05320279     0.00977009     0.00616856
       5       0.01592630     0.00567425     0.00436378     0.00084440     0.00067995
       6      -0.00460260    -0.00018915     0.00033310     0.00044808     0.00000377     0.00009291
       7       0.00028544     0.00015874     0.00001115     0.00000928     0.00003408     0.00000009
       8       0.00013710    -0.00004442     0.00002125    -0.00000045     0.00000125     0.00000065

               Column   7     Column   8
       7       0.00000329
       8       0.00000026     0.00000010
    ==== End of matrix output ====

 DIIS C vector; C2DIIS = F, LAMBDA = -6.81D-08
   -0.000007   -0.000074   -0.000342    0.002373    0.003267   -0.017792   -0.101363    1.113939
* Read MO coefficients from SIRIUS.RST with label "NEWORB  " and header info: 20Dec18  DIIS   8
      Virial theorem: -V/T =      2.004681
@    MULPOP   N      -0.82; H       0.42; H       0.39; H       0.40; H       0.34; O      -0.85; O      -0.85; O      -0.81; O      -0.82; H       0.50; 
@             H       0.43; H       0.46; H       0.48; H       0.43; H       0.42; H       0.40; H       0.48; 

 DIIS Fock eigenvalues in symmetry 1
      -20.68079      -20.66222      -20.65677      -20.63699      -15.70407
       -1.45301       -1.41701       -1.41316       -1.38425       -1.32163
       -0.81242       -0.80527       -0.80081       -0.79657       -0.77498
       -0.75992       -0.73218       -0.70543       -0.65872       -0.64139
       -0.63387       -0.61877       -0.59785       -0.59261       -0.56748
        0.01407        0.04464        0.06471        0.08006        0.15018
        0.15372        0.15954        0.18131        0.21188        0.23835
        0.25814        0.26376        0.26649        0.29241        0.30427
        0.31096        0.32617        0.34009        0.35003        0.37001
        0.54150        0.54896        0.57028        0.78463        0.85710
        0.86458        0.90314        0.92689        0.93729        0.97979
        0.99642        1.00726        1.01874        1.03484        1.05650
        1.06979        1.09153        1.10546        1.13127        1.14611
        1.15916        1.19934        1.22413        1.23157        1.27662
        1.28104        1.31597        1.33233        1.34435        1.37572
        1.52091        1.52913        1.58354        1.61177        1.63796
        1.66429        1.68019        1.70579        1.71079        1.73291
        1.73915        1.74982        1.75881        1.76133        1.77788
        1.79480        1.84985        1.88437        1.92234        2.12736
        2.16075        2.21321        2.25470        2.36657        2.37561
        2.41221        2.43136        2.43754        2.45444        2.48037
        2.49021        2.50936        2.59499        2.63134        2.63547
        2.68257        2.72023        2.72820        2.73423        2.81264
        2.81834        2.83454        2.83797        2.84593        2.85926
        2.88690        2.88997        2.91954        2.95701        2.98296
        2.98604        3.15771        3.19964        3.21006        3.22630
        3.26185        3.34237        3.38952        3.41417        3.62509
        3.65100        3.65866        3.74191        3.74884        3.78565
        3.82644        3.83902        4.99376        5.15548        5.19941
       36.94580
 Time used in FCKEIG, thr_jaco:   6.73D-02  1.70D-02  1.41D-08
 CPU and wall times used in FCKEIG, THR_FCKEIG:   6.74D-02  1.70D-02  3.11D-06
 -----------------------------------------------------------------------------

 *** DIIS iteration number    9
 RDSUPM called. NFMAT, ISYMDM(1:NFMAT)                     1
                     1

 ITDIIS, energy, error norm, change in energy, scr.thr., difden:
@ DIIS iter.   9    -361.107430508        1.19674D-04   -1.15D-08  -20    F

 (DIIS_RED) Control Parameters C2DIIS =         F NEVC =    8


 (DIIS_RED) B matrix:

               Column   1     Column   2     Column   3     Column   4     Column   5     Column   6
       1       0.00000001
       2       0.00000341     1.21757792
       3      -0.00000249    -0.04514630     0.14998594
       4       0.00000001     0.05320279     0.00977009     0.00616856
       5       0.00000004     0.00567425     0.00436378     0.00084440     0.00067995
       6       0.00000004    -0.00018915     0.00033310     0.00044808     0.00000377     0.00009291
       7       0.00000007     0.00015874     0.00001115     0.00000928     0.00003408     0.00000009
       8       0.00000001    -0.00004442     0.00002125    -0.00000045     0.00000125     0.00000065

               Column   7     Column   8
       7       0.00000329
       8       0.00000026     0.00000010
    ==== End of matrix output ====

 DIIS C vector; C2DIIS = F, LAMBDA = -8.33D-09
    0.861487    0.000017   -0.000120   -0.000669    0.005323    0.001773   -0.086078    0.218267
* Read MO coefficients from SIRIUS.RST with label "NEWORB  " and header info: 20Dec18  DIIS   9
      Virial theorem: -V/T =      2.004681
@    MULPOP   N      -0.82; H       0.42; H       0.39; H       0.40; H       0.34; O      -0.85; O      -0.85; O      -0.81; O      -0.82; H       0.50; 
@             H       0.43; H       0.46; H       0.48; H       0.43; H       0.42; H       0.40; H       0.48; 

 DIIS Fock eigenvalues in symmetry 1
      -20.68084      -20.66222      -20.65679      -20.63694      -15.70407
       -1.45303       -1.41702       -1.41316       -1.38424       -1.32163
       -0.81242       -0.80527       -0.80081       -0.79657       -0.77498
       -0.75992       -0.73217       -0.70545       -0.65872       -0.64139
       -0.63387       -0.61879       -0.59785       -0.59261       -0.56747
        0.01407        0.04464        0.06471        0.08006        0.15018
        0.15372        0.15954        0.18131        0.21188        0.23835
        0.25814        0.26376        0.26649        0.29241        0.30427
        0.31096        0.32617        0.34010        0.35003        0.37001
        0.54150        0.54896        0.57028        0.78463        0.85710
        0.86458        0.90314        0.92689        0.93729        0.97979
        0.99642        1.00726        1.01874        1.03484        1.05650
        1.06979        1.09153        1.10547        1.13127        1.14610
        1.15916        1.19934        1.22412        1.23157        1.27662
        1.28104        1.31597        1.33233        1.34434        1.37572
        1.52090        1.52913        1.58354        1.61177        1.63796
        1.66428        1.68019        1.70578        1.71079        1.73291
        1.73916        1.74983        1.75881        1.76133        1.77788
        1.79480        1.84985        1.88436        1.92233        2.12736
        2.16074        2.21321        2.25470        2.36657        2.37561
        2.41221        2.43136        2.43754        2.45443        2.48037
        2.49020        2.50936        2.59499        2.63134        2.63548
        2.68256        2.72023        2.72820        2.73423        2.81264
        2.81833        2.83454        2.83798        2.84593        2.85927
        2.88690        2.88997        2.91954        2.95701        2.98296
        2.98604        3.15771        3.19964        3.21006        3.22630
        3.26185        3.34237        3.38952        3.41417        3.62509
        3.65100        3.65865        3.74190        3.74884        3.78565
        3.82645        3.83901        4.99376        5.15548        5.19941
       36.94580
 Time used in FCKEIG, thr_jaco:   9.53D-02  2.60D-02  5.44D-09
 CPU and wall times used in FCKEIG, THR_FCKEIG:   9.54D-02  2.60D-02  1.20D-06
 -----------------------------------------------------------------------------

 *** DIIS iteration number   10
 RDSUPM called. NFMAT, ISYMDM(1:NFMAT)                     1
                     1

 ITDIIS, energy, error norm, change in energy, scr.thr., difden:
@ DIIS iter.  10    -361.107430510        3.56992D-05   -1.12D-09  -20    F

 (DIIS_RED) Control Parameters C2DIIS =         F NEVC =    8


 (DIIS_RED) B matrix:

               Column   1     Column   2     Column   3     Column   4     Column   5     Column   6
       1       0.00000001
       2      -0.00000000     0.00000000
       3      -0.00000249    -0.00000081     0.14998594
       4       0.00000001     0.00000008     0.00977009     0.00616856
       5       0.00000004    -0.00000005     0.00436378     0.00084440     0.00067995
       6       0.00000004     0.00000003     0.00033310     0.00044808     0.00000377     0.00009291
       7       0.00000007     0.00000001     0.00001115     0.00000928     0.00003408     0.00000009
       8       0.00000001     0.00000001     0.00002125    -0.00000045     0.00000125     0.00000065

               Column   7     Column   8
       7       0.00000329
       8       0.00000026     0.00000010
    ==== End of matrix output ====

 DIIS C vector; C2DIIS = F, LAMBDA = -3.54D-10
    0.056359    1.061251    0.000037   -0.000150   -0.000205    0.001132    0.009020   -0.127445
* Read MO coefficients from SIRIUS.RST with label "NEWORB  " and header info: 20Dec18  DIIS  10
      Virial theorem: -V/T =      2.004681
@    MULPOP   N      -0.82; H       0.42; H       0.39; H       0.40; H       0.34; O      -0.85; O      -0.85; O      -0.81; O      -0.82; H       0.50; 
@             H       0.43; H       0.46; H       0.48; H       0.43; H       0.42; H       0.40; H       0.48; 

 DIIS Fock eigenvalues in symmetry 1
      -20.68083      -20.66222      -20.65678      -20.63695      -15.70407
       -1.45302       -1.41702       -1.41316       -1.38424       -1.32163
       -0.81242       -0.80527       -0.80081       -0.79657       -0.77498
       -0.75992       -0.73217       -0.70545       -0.65873       -0.64139
       -0.63387       -0.61879       -0.59785       -0.59261       -0.56747
        0.01407        0.04464        0.06471        0.08006        0.15018
        0.15372        0.15954        0.18131        0.21188        0.23835
        0.25814        0.26376        0.26649        0.29241        0.30427
        0.31096        0.32617        0.34010        0.35003        0.37001
        0.54150        0.54896        0.57028        0.78463        0.85710
        0.86458        0.90314        0.92689        0.93729        0.97979
        0.99642        1.00726        1.01874        1.03484        1.05650
        1.06979        1.09153        1.10546        1.13127        1.14610
        1.15916        1.19934        1.22412        1.23157        1.27662
        1.28104        1.31597        1.33233        1.34434        1.37572
        1.52090        1.52913        1.58354        1.61177        1.63796
        1.66428        1.68019        1.70578        1.71079        1.73291
        1.73916        1.74983        1.75881        1.76133        1.77788
        1.79480        1.84985        1.88436        1.92233        2.12737
        2.16074        2.21321        2.25470        2.36657        2.37561
        2.41221        2.43136        2.43754        2.45444        2.48037
        2.49020        2.50936        2.59499        2.63134        2.63548
        2.68257        2.72023        2.72820        2.73423        2.81264
        2.81833        2.83454        2.83797        2.84593        2.85926
        2.88690        2.88997        2.91954        2.95701        2.98296
        2.98604        3.15771        3.19964        3.21006        3.22630
        3.26185        3.34237        3.38952        3.41417        3.62509
        3.65100        3.65865        3.74190        3.74884        3.78565
        3.82644        3.83901        4.99376        5.15548        5.19941
       36.94580
 Time used in FCKEIG, thr_jaco:   7.77D-02  1.90D-02  1.62D-09
 CPU and wall times used in FCKEIG, THR_FCKEIG:   7.78D-02  1.90D-02  3.57D-07
 -----------------------------------------------------------------------------

 *** DIIS iteration number   11
 RDSUPM called. NFMAT, ISYMDM(1:NFMAT)                     1
                     1

 ITDIIS, energy, error norm, change in energy, scr.thr., difden:
@ DIIS iter.  11    -361.107430510        6.13335D-06   -1.35D-10  -20    F

 (DIIS_RED) Control Parameters C2DIIS =         F NEVC =    8


 (DIIS_RED) B matrix:

               Column   1     Column   2     Column   3     Column   4     Column   5     Column   6
       1       0.00000001
       2      -0.00000000     0.00000000
       3       0.00000000     0.00000000     0.00000000
       4       0.00000001     0.00000008     0.00000003     0.00616856
       5       0.00000004    -0.00000005    -0.00000003     0.00084440     0.00067995
       6       0.00000004     0.00000003     0.00000001     0.00044808     0.00000377     0.00009291
       7       0.00000007     0.00000001    -0.00000000     0.00000928     0.00003408     0.00000009
       8       0.00000001     0.00000001     0.00000000    -0.00000045     0.00000125     0.00000065

               Column   7     Column   8
       7       0.00000329
       8       0.00000026     0.00000010
    ==== End of matrix output ====

 DIIS C vector; C2DIIS = F, LAMBDA = -1.72D-11
   -0.043069   -0.077332    1.116690    0.000029   -0.000131   -0.000263    0.002895    0.001180
* Read MO coefficients from SIRIUS.RST with label "NEWORB  " and header info: 20Dec18  DIIS  11
      Virial theorem: -V/T =      2.004681
[...]
       3      -0.05810377     0.07402591     0.99556221
    ==== End of matrix output ====


 CCSD  Transition strength matrix for state nr. 13 of symmetry 1
 CCSD  excitation energy:15.17736442

 Gauge: length

               Column   1     Column   2     Column   3
       1     2.171727D-05  -1.756342D-05  -1.147388D-05
       2    -1.756342D-05   1.419893D-05   9.284312D-06
       3    -1.147388D-05   9.284312D-06   6.057050D-06
    ==== End of matrix output ====

 Principal values of diagonalized transition strength matrix:

             a.u.               
 1      -0.00000001
 2      -0.00000000
 3       0.00004198

 Principal axis of diagonalized transition strength matrix:


               Column   1     Column   2     Column   3
       1      -0.10854339     0.68624310     0.71922787
       2      -0.63431113     0.50926331    -0.58163586
       3       0.76541997     0.51934697    -0.38001447
    ==== End of matrix output ====


 CCSD   oscillator strength matrix for state nr. 13 of symmetry 1
 CCSD  excitation energy:15.17736442


               Column   1     Column   2     Column   3
       1     2.197406D-04  -1.777109D-04  -1.160955D-04
       2    -1.777109D-04   1.436683D-04   9.394093D-05
       3    -1.160955D-04   9.394093D-05   6.128670D-05
    ==== End of matrix output ====

 Principal values of diagonalized oscillator strength matrix:

             a.u.               
 1      -0.00000010
 2      -0.00000000
 3       0.00042480

 Principal axis of diagonalized oscillator strength matrix:


               Column   1     Column   2     Column   3
       1      -0.10854339     0.68624310     0.71922787
       2      -0.63431113     0.50926331    -0.58163586
       3       0.76541997     0.51934697    -0.38001447
    ==== End of matrix output ====


 CCSD  Transition strength matrix for state nr. 14 of symmetry 1
 CCSD  excitation energy:15.20037818

 Gauge: length

               Column   1     Column   2     Column   3
       1     4.387801D-05   9.893081D-07   2.691108D-05
       2     9.893081D-07   1.255192D-08   6.105477D-07
       3     2.691108D-05   6.105477D-07   1.650353D-05
    ==== End of matrix output ====

 Principal values of diagonalized transition strength matrix:

             a.u.               
 1      -0.00000001
 2       0.00000000
 3       0.00006040

 Principal axis of diagonalized transition strength matrix:


               Column   1     Column   2     Column   3
       1       0.14822888    -0.50162444     0.85229169
       2       0.94947016     0.31326665     0.01924612
       3      -0.27664889     0.80637269     0.52271261
    ==== End of matrix output ====


 CCSD   oscillator strength matrix for state nr. 14 of symmetry 1
 CCSD  excitation energy:15.20037818


               Column   1     Column   2     Column   3
       1     4.446415D-04   1.002524D-05   2.727058D-04
       2     1.002524D-05   1.271960D-07   6.187038D-06
       3     2.727058D-04   6.187038D-06   1.672399D-04
    ==== End of matrix output ====

 Principal values of diagonalized oscillator strength matrix:

             a.u.               
 1      -0.00000011
 2       0.00000000
 3       0.00061212

 Principal axis of diagonalized oscillator strength matrix:


               Column   1     Column   2     Column   3
       1       0.14822888    -0.50162444     0.85229169
       2       0.94947016     0.31326665     0.01924612
       3      -0.27664889     0.80637269     0.52271261
    ==== End of matrix output ====


 CCSD  Transition strength matrix for state nr. 15 of symmetry 1
 CCSD  excitation energy:15.20891901

 Gauge: length

               Column   1     Column   2     Column   3
       1     1.303721D-05   7.743011D-06  -1.187987D-05
       2     7.743011D-06   4.598410D-06  -7.053091D-06
       3    -1.187987D-05  -7.053091D-06   1.080285D-05
    ==== End of matrix output ====

 Principal values of diagonalized transition strength matrix:

             a.u.               
 1      -0.00000001
 2      -0.00000000
 3       0.00002845

 Principal axis of diagonalized transition strength matrix:


               Column   1     Column   2     Column   3
       1       0.59166623    -0.43765793     0.67704254
       2       0.20074654     0.89334144     0.40204714
       3       0.78078928     0.10196377    -0.61641828
    ==== End of matrix output ====


 CCSD   oscillator strength matrix for state nr. 15 of symmetry 1
 CCSD  excitation energy:15.20891901


               Column   1     Column   2     Column   3
       1     1.321879D-04   7.850855D-05  -1.204533D-04
       2     7.850855D-05   4.662456D-05  -7.151326D-05
       3    -1.204533D-04  -7.151326D-05   1.095331D-04
    ==== End of matrix output ====

 Principal values of diagonalized oscillator strength matrix:

             a.u.               
 1      -0.00000013
 2      -0.00000000
 3       0.00028848

 Principal axis of diagonalized oscillator strength matrix:


               Column   1     Column   2     Column   3
       1       0.59166623    -0.43765793     0.67704254
       2       0.20074654     0.89334144     0.40204714
       3       0.78078928     0.10196377    -0.61641828
    ==== End of matrix output ====

  Total time for    135 linear response residues:      14.56 seconds.
  

 *******************************************************************************
 *******************************************************************************
 *                                                                             *
 *                                                                             *
 *                   SUMMARY OF COUPLED CLUSTER CALCULATION                    *
 *                                                                             *
 *                                                                             *
 *******************************************************************************
 *******************************************************************************

                                                                                
                                                                                
            Total SCF   energy:                  -361.1074305097                
            Total MP2   energy:                  -362.1319280793                
            Total CCSD  energy:                  -362.1788491170                
                                                                                
                                                                                
            Total SCF   energy:                  -361.1074305097                
            Total RSTAR energy:                  -362.1788491170                
            Total CCSD  energy:                  -362.1788842824                
                                                                                
                                                                                
            Total SCF   energy:                  -361.1074305097                
            Total RSTAR energy:                  -362.1788842824                
            Total CCSD  energy:                  -362.1788858091                
                                                                                
                                                                                
            Total SCF   energy:                  -361.1074305097                
            Total RSTAR energy:                  -362.1788858091                
            Total CCSD  energy:                  -362.1788858874                
                                                                                
                                                                                
            Total SCF   energy:                  -361.1074305097                
            Total RSTAR energy:                  -362.1788858874                
            Total CCSD  energy:                  -362.1788858917                
            CCSD Total  energy:                  -362.5956276734                
            CCSD E(PE-CC)     :                    -0.4127383953                
                                                                                
                                                                                
 +=============================================================================+
 |  sym. | Exci.  |        CCSD       Excitation energies            | ||T1||  |
 |(spin, |        +------------------------------------------------------------+
 | spat) |        |     Hartree    |       eV.      |     cm-1       |    %    |
 +=============================================================================+
 | ^1A   |    1   |    14.9075134  |     405.65407  |   3271820.968  |  88.54  |
 | ^1A   |    2   |    14.9560862  |     406.97581  |   3282481.466  |  88.84  |
 | ^1A   |    3   |    14.9770727  |     407.54688  |   3287087.474  |  88.53  |
 | ^1A   |    4   |    14.9988673  |     408.13994  |   3291870.843  |  88.73  |
 | ^1A   |    5   |    15.0064017  |     408.34496  |   3293524.440  |  88.27  |
 | ^1A   |    6   |    15.0204210  |     408.72645  |   3296601.334  |  88.21  |
 | ^1A   |    7   |    15.0277692  |     408.92640  |   3298214.076  |  88.30  |
 | ^1A   |    8   |    15.0606417  |     409.82091  |   3305428.750  |  88.41  |
 | ^1A   |    9   |    15.0912235  |     410.65308  |   3312140.683  |  88.60  |
 | ^1A   |   10   |    15.1095952  |     411.15300  |   3316172.813  |  88.82  |
 | ^1A   |   11   |    15.1245369  |     411.55958  |   3319452.120  |  88.53  |
 | ^1A   |   12   |    15.1567564  |     412.43632  |   3326523.491  |  87.92  |
 | ^1A   |   13   |    15.1773644  |     412.99709  |   3331046.430  |  88.00  |
 | ^1A   |   14   |    15.2003782  |     413.62333  |   3336097.367  |  87.72  |
 | ^1A   |   15   |    15.2089190  |     413.85574  |   3337971.863  |  87.59  |
 +=============================================================================+
                                                                                
                                                                                
     Total energies in Hartree:                                                 
             1 ^1A       -347.2753759216                                        
             2 ^1A       -347.2268031180                                        
             3 ^1A       -347.2058166028                                        
             4 ^1A       -347.1840219699                                        
             5 ^1A       -347.1764876253                                        
             6 ^1A       -347.1624682690                                        
             7 ^1A       -347.1551200733                                        
             8 ^1A       -347.1222476007                                        
             9 ^1A       -347.0916657817                                        
            10 ^1A       -347.0732940443                                        
            11 ^1A       -347.0583524227                                        
            12 ^1A       -347.0261328862                                        
            13 ^1A       -347.0055248599                                        
            14 ^1A       -346.9825110966                                        
            15 ^1A       -346.9739702656                                        
                                                                                
                                                                                
 +=============================================================================+
 |  sym. | Exci.  |        CCSD       Length   Gauge Oscillator Strength       |
 |(spin, |        +------------------------------------------------------------+
 | spat) |        | Dipole Strength(a.u.) | Oscillator strength  | Direction   |
 +=============================================================================+
 | ^1A   |    1   |        0.0002744      |      0.0027274       |  (Y,Z)      |
 | ^1A   |    2   |        0.0026408      |      0.0263308       |  (Y,Z)      |
 | ^1A   |    3   |        0.0016953      |      0.0169268       |  (Y,Z)      |
 | ^1A   |    4   |        0.0019516      |      0.0195146       |  (Y,Z)      |
 | ^1A   |    5   |        0.0005288      |      0.0052899       |  (Y,Z)      |
 | ^1A   |    6   |        0.0005672      |      0.0056801       |  (Y,Z)      |
 | ^1A   |    7   |        0.0011332      |      0.0113535       |  (Y,Z)      |
 | ^1A   |    8   |        0.0004086      |      0.0041030       |  (Y,Z)      |
 | ^1A   |    9   |        0.0015068      |      0.0151595       |  (Y,Z)      |
 | ^1A   |   10   |        0.0027668      |      0.0278699       |  (Y,Z)      |
 | ^1A   |   11   |        0.0015866      |      0.0159974       |  (Y,Z)      |
 | ^1A   |   12   |        0.0001543      |      0.0015592       |  (Y,Z)      |
 | ^1A   |   13   |        0.0000420      |      0.0004247       |  (Y,Z)      |
 | ^1A   |   14   |        0.0000604      |      0.0006120       |  (Y,Z)      |
 | ^1A   |   15   |        0.0000284      |      0.0002883       |  (Y,Z)      |
 +=============================================================================+

  1 a.u. =        27.21138 eV.  
  1 a.u. =    219474.62934 cm-1.
  

 *******************************************************************************
 *******************************************************************************
 *                                                                             *
 *                                                                             *
 *                      END OF COUPLED CLUSTER CALCULATION                     *
 *                                                                             *
 *                                                                             *
 *******************************************************************************
 *******************************************************************************


 CPU and wall time for CC :  136416.132   50676.521

 
     Date and time (Linux)  : Thu Dec 20 19:54:06 2018
     Host name              : s71p34.deic.sdu.dk                      


                      .-------------------------------------.
                      | End of Coupled Cluster Section (CC) |
                      `-------------------------------------'

  Total CPU  time used in DALTON:  37 hours 57 minutes 20 seconds
  Total wall time used in DALTON:  14 hours  6 minutes 28 seconds

 
     Date and time (Linux)  : Thu Dec 20 19:54:06 2018
     Host name              : s71p34.deic.sdu.dk                      
  

 +---------------------------------------------------------+ 
 | List of selected calculated molecular properties (a.u.) | 
 +---------------------------------------------------------+ 

  Properties are read from unit number                      4

 CCSD       properties :
 #  1 1 PE-CCSD  Ground state Energy =    -362.5956276734
 #  2 1 E(PE-CC) Ground state Energy =      -0.4127383953
 #  3 1 Sy: 1 Sp: 1 Exc:  1 E_tot:   -347.2753759216 w:     14.9075133565 E_grs:   -362.1828892781
 #  4 1 Exctot   Excited state Energy =    -347.2753759216
 #  5 1 Sy: 1 Sp: 1 Exc:  2 E_tot:   -347.2268031180 w:     14.9560861601 E_grs:   -362.1828892781
 #  6 1 Exctot   Excited state Energy =    -347.2268031180
 #  7 1 Sy: 1 Sp: 1 Exc:  3 E_tot:   -347.2058166028 w:     14.9770726752 E_grs:   -362.1828892781
 #  8 1 Exctot   Excited state Energy =    -347.2058166028
 #  9 1 Sy: 1 Sp: 1 Exc:  4 E_tot:   -347.1840219699 w:     14.9988673082 E_grs:   -362.1828892781
 # 10 1 Exctot   Excited state Energy =    -347.1840219699
 # 11 1 Sy: 1 Sp: 1 Exc:  5 E_tot:   -347.1764876253 w:     15.0064016528 E_grs:   -362.1828892781
 # 12 1 Exctot   Excited state Energy =    -347.1764876253
 # 13 1 Sy: 1 Sp: 1 Exc:  6 E_tot:   -347.1624682690 w:     15.0204210091 E_grs:   -362.1828892781
 # 14 1 Exctot   Excited state Energy =    -347.1624682690
 # 15 1 Sy: 1 Sp: 1 Exc:  7 E_tot:   -347.1551200733 w:     15.0277692048 E_grs:   -362.1828892781
 # 16 1 Exctot   Excited state Energy =    -347.1551200733
 # 17 1 Sy: 1 Sp: 1 Exc:  8 E_tot:   -347.1222476007 w:     15.0606416774 E_grs:   -362.1828892781
 # 18 1 Exctot   Excited state Energy =    -347.1222476007
 # 19 1 Sy: 1 Sp: 1 Exc:  9 E_tot:   -347.0916657817 w:     15.0912234964 E_grs:   -362.1828892781
 # 20 1 Exctot   Excited state Energy =    -347.0916657817
 # 21 1 Sy: 1 Sp: 1 Exc: 10 E_tot:   -347.0732940443 w:     15.1095952337 E_grs:   -362.1828892781
 # 22 1 Exctot   Excited state Energy =    -347.0732940443
 # 23 1 Sy: 1 Sp: 1 Exc: 11 E_tot:   -347.0583524227 w:     15.1245368554 E_grs:   -362.1828892781
 # 24 1 Exctot   Excited state Energy =    -347.0583524227
 # 25 1 Sy: 1 Sp: 1 Exc: 12 E_tot:   -347.0261328862 w:     15.1567563919 E_grs:   -362.1828892781
 # 26 1 Exctot   Excited state Energy =    -347.0261328862
 # 27 1 Sy: 1 Sp: 1 Exc: 13 E_tot:   -347.0055248599 w:     15.1773644182 E_grs:   -362.1828892781
 # 28 1 Exctot   Excited state Energy =    -347.0055248599
 # 29 1 Sy: 1 Sp: 1 Exc: 14 E_tot:   -346.9825110966 w:     15.2003781815 E_grs:   -362.1828892781
 # 30 1 Exctot   Excited state Energy =    -346.9825110966
 # 31 1 Sy: 1 Sp: 1 Exc: 15 E_tot:   -346.9739702656 w:     15.2089190125 E_grs:   -362.1828892781
 # 32 1 Exctot   Excited state Energy =    -346.9739702656
 # 33 1 |<O|XDIPLEN |i(14.907513)>| =     0.00505027
 # 35 1 |<O|XDIPLEN |i(14.956086)>| =     0.00185879
 # 37 1 |<O|XDIPLEN |i(14.977073)>| =     0.03543779
 # 39 1 |<O|XDIPLEN |i(14.998867)>| =     0.02686952
 # 41 1 |<O|XDIPLEN |i(15.006402)>| =     0.01792220
 # 43 1 |<O|XDIPLEN |i(15.020421)>| =     0.02203621
 # 45 1 |<O|XDIPLEN |i(15.027769)>| =     0.00685875
 # 47 1 |<O|XDIPLEN |i(15.060642)>| =     0.01016237
 # 49 1 |<O|XDIPLEN |i(15.091223)>| =     0.00325142
 # 51 1 |<O|XDIPLEN |i(15.109595)>| =     0.04127790
 # 53 1 |<O|XDIPLEN |i(15.124537)>| =     0.02118438
 # 55 1 |<O|XDIPLEN |i(15.156756)>| =     0.00080745
 # 57 1 |<O|XDIPLEN |i(15.177364)>| =     0.00466018
 # 59 1 |<O|XDIPLEN |i(15.200378)>| =     0.00662405
 # 61 1 |<O|XDIPLEN |i(15.208919)>| =     0.00361071
 # 63 1 |<O|YDIPLEN |i(14.907513)>| =     0.00094021
 # 65 1 |<O|YDIPLEN |i(14.956086)>| =     0.03202420
 # 67 1 |<O|YDIPLEN |i(14.977073)>| =     0.00341556
 # 69 1 |<O|YDIPLEN |i(14.998867)>| =     0.02962481
 # 71 1 |<O|YDIPLEN |i(15.006402)>| =     0.00972818
 # 73 1 |<O|YDIPLEN |i(15.020421)>| =     0.00884672
 # 75 1 |<O|YDIPLEN |i(15.027769)>| =     0.02754467
 # 77 1 |<O|YDIPLEN |i(15.060642)>| =     0.01700914
 # 79 1 |<O|YDIPLEN |i(15.091223)>| =     0.02076844
 # 81 1 |<O|YDIPLEN |i(15.109595)>| =     0.02956403
 # 83 1 |<O|YDIPLEN |i(15.124537)>| =     0.02646385
 # 85 1 |<O|YDIPLEN |i(15.156756)>| =     0.00084408
 # 87 1 |<O|YDIPLEN |i(15.177364)>| =     0.00376815
 # 89 1 |<O|YDIPLEN |i(15.200378)>| =     0.00011204
 # 91 1 |<O|YDIPLEN |i(15.208919)>| =     0.00214439
 # 93 1 |<O|ZDIPLEN |i(14.907513)>| =     0.01574944
 # 95 1 |<O|ZDIPLEN |i(14.956086)>| =     0.04014730
 # 97 1 |<O|ZDIPLEN |i(14.977073)>| =     0.02068245
 # 99 1 |<O|ZDIPLEN |i(14.998867)>| =     0.01876178
 #101 1 |<O|ZDIPLEN |i(15.006402)>| =     0.01062660
 #103 1 |<O|ZDIPLEN |i(15.020421)>| =     0.00183775
 #105 1 |<O|ZDIPLEN |i(15.027769)>| =     0.01809688
 #107 1 |<O|ZDIPLEN |i(15.060642)>| =     0.00400802
 #109 1 |<O|ZDIPLEN |i(15.091223)>| =     0.03263264
 #111 1 |<O|ZDIPLEN |i(15.109595)>| =     0.01374321
 #113 1 |<O|ZDIPLEN |i(15.124537)>| =     0.02091549
 #115 1 |<O|ZDIPLEN |i(15.156756)>| =     0.01236718
 #117 1 |<O|ZDIPLEN |i(15.177364)>| =     0.00246111
 #119 1 |<O|ZDIPLEN |i(15.200378)>| =     0.00406245
 #121 1 |<O|ZDIPLEN |i(15.208919)>| =     0.00328677

 THE_END   
