

     ************************************************************************
     *************** Dalton - An Electronic Structure Program ***************
     ************************************************************************

    This is output from DALTON release Dalton2017.alpha (2016)
         ( Web site: http://daltonprogram.org )

   ----------------------------------------------------------------------------

    NOTE:
     
    Dalton is an experimental code for the evaluation of molecular
    properties using (MC)SCF, DFT, CI, and CC wave functions.
    The authors accept no responsibility for the performance of
    the code or for the correctness of the results.
     
    The code (in whole or part) is provided under a licence and
    is not to be reproduced for further distribution without
    the written permission of the authors or their representatives.
     
    See the home page "http://daltonprogram.org" for further information.
     
    If results obtained with this code are published,
    the appropriate citations would be both of:
     
       K. Aidas, C. Angeli, K. L. Bak, V. Bakken, R. Bast,
       L. Boman, O. Christiansen, R. Cimiraglia, S. Coriani,
       P. Dahle, E. K. Dalskov, U. Ekstroem,
       T. Enevoldsen, J. J. Eriksen, P. Ettenhuber, B. Fernandez,
       L. Ferrighi, H. Fliegl, L. Frediani, K. Hald, A. Halkier,
       C. Haettig, H. Heiberg, T. Helgaker, A. C. Hennum,
       H. Hettema, E. Hjertenaes, S. Hoest, I.-M. Hoeyvik,
       M. F. Iozzi, B. Jansik, H. J. Aa. Jensen, D. Jonsson,
       P. Joergensen, J. Kauczor, S. Kirpekar,
       T. Kjaergaard, W. Klopper, S. Knecht, R. Kobayashi, H. Koch,
       J. Kongsted, A. Krapp, K. Kristensen, A. Ligabue,
       O. B. Lutnaes, J. I. Melo, K. V. Mikkelsen, R. H. Myhre,
       C. Neiss, C. B. Nielsen, P. Norman, J. Olsen,
       J. M. H. Olsen, A. Osted, M. J. Packer, F. Pawlowski,
       T. B. Pedersen, P. F. Provasi, S. Reine, Z. Rinkevicius,
       T. A. Ruden, K. Ruud, V. Rybkin, P. Salek, C. C. M. Samson,
       A. Sanchez de Meras, T. Saue, S. P. A. Sauer,
       B. Schimmelpfennig, K. Sneskov, A. H. Steindal,
       K. O. Sylvester-Hvid, P. R. Taylor, A. M. Teale,
       E. I. Tellgren, D. P. Tew, A. J. Thorvaldsen, L. Thoegersen,
       O. Vahtras, M. A. Watson, D. J. D. Wilson, M. Ziolkowski
       and H. Agren,
       "The Dalton quantum chemistry program system",
       WIREs Comput. Mol. Sci. 2014, 4:269–284 (doi: 10.1002/wcms.1172)
     
    and
     
       Dalton, a Molecular Electronic Structure Program,
       Release Dalton2017.alpha (2016), see http://daltonprogram.org
   ----------------------------------------------------------------------------

    Authors in alphabetical order (major contribution(s) in parenthesis):

  Kestutis Aidas,           Vilnius University,           Lithuania   (QM/MM)
  Celestino Angeli,         University of Ferrara,        Italy       (NEVPT2)
  Keld L. Bak,              UNI-C,                        Denmark     (AOSOPPA, non-adiabatic coupling, magnetic properties)
  Vebjoern Bakken,          University of Oslo,           Norway      (DALTON; geometry optimizer, symmetry detection)
  Radovan Bast,             UiT The Arctic U. of Norway,  Norway      (DALTON installation and execution frameworks)
  Pablo Baudin,             University of Valencia,       Spain       (Cholesky excitation energies)
  Linus Boman,              NTNU,                         Norway      (Cholesky decomposition and subsystems)
  Ove Christiansen,         Aarhus University,            Denmark     (CC module)
  Renzo Cimiraglia,         University of Ferrara,        Italy       (NEVPT2)
  Sonia Coriani,            University of Trieste,        Italy       (CC module, MCD in RESPONS)
  Janusz Cukras,            University of Trieste,        Italy       (MChD in RESPONS)
  Paal Dahle,               University of Oslo,           Norway      (Parallelization)
  Erik K. Dalskov,          UNI-C,                        Denmark     (SOPPA)
  Thomas Enevoldsen,        Univ. of Southern Denmark,    Denmark     (SOPPA)
  Janus J. Eriksen,         Aarhus University,            Denmark     (Polarizable embedding model, TDA)
  Rasmus Faber,             University of Copenhagen,     Denmark     (Vib.avg. NMR with SOPPA, parallel AO-SOPPA)
  Berta Fernandez,          U. of Santiago de Compostela, Spain       (doublet spin, ESR in RESPONS)
  Lara Ferrighi,            Aarhus University,            Denmark     (PCM Cubic response)
  Heike Fliegl,             University of Oslo,           Norway      (CCSD(R12))
  Luca Frediani,            UiT The Arctic U. of Norway,  Norway      (PCM)
  Bin Gao,                  UiT The Arctic U. of Norway,  Norway      (Gen1Int library)
  Christof Haettig,         Ruhr-University Bochum,       Germany     (CC module)
  Kasper Hald,              Aarhus University,            Denmark     (CC module)
  Asger Halkier,            Aarhus University,            Denmark     (CC module)
  Frederik Beyer Hansen,    University of Copenhagen,     Denmark     (Parallel AO-SOPPA)
  Erik D. Hedegaard,        Univ. of Southern Denmark,    Denmark     (Polarizable embedding model, QM/MM)
  Hanne Heiberg,            University of Oslo,           Norway      (geometry analysis, selected one-electron integrals)
  Trygve Helgaker,          University of Oslo,           Norway      (DALTON; ABACUS, ERI, DFT modules, London, and much more)
  Alf Christian Hennum,     University of Oslo,           Norway      (Parity violation)
  Hinne Hettema,            University of Auckland,       New Zealand (quadratic response in RESPONS; SIRIUS supersymmetry)
  Eirik Hjertenaes,         NTNU,                         Norway      (Cholesky decomposition)
  Pi A. B. Haase,           University of Copenhagen,     Denmark     (Triplet AO-SOPPA)
  Maria Francesca Iozzi,    University of Oslo,           Norway      (RPA)
  Brano Jansik              Technical Univ. of Ostrava    Czech Rep.  (DFT cubic response)
  Hans Joergen Aa. Jensen,  Univ. of Southern Denmark,    Denmark     (DALTON; SIRIUS, RESPONS, ABACUS modules, London, and much more)
  Dan Jonsson,              UiT The Arctic U. of Norway,  Norway      (cubic response in RESPONS module)
  Poul Joergensen,          Aarhus University,            Denmark     (RESPONS, ABACUS, and CC modules)
  Maciej Kaminski,          University of Warsaw,         Poland      (CPPh in RESPONS)
  Joanna Kauczor,           Linkoeping University,        Sweden      (Complex polarization propagator (CPP) module)
  Sheela Kirpekar,          Univ. of Southern Denmark,    Denmark     (Mass-velocity & Darwin integrals)
  Wim Klopper,              KIT Karlsruhe,                Germany     (R12 code in CC, SIRIUS, and ABACUS modules)
  Stefan Knecht,            ETH Zurich,                   Switzerland (Parallel CI and MCSCF)
  Rika Kobayashi,           Australian National Univ.,    Australia   (DIIS in CC, London in MCSCF)
  Henrik Koch,              NTNU,                         Norway      (CC module, Cholesky decomposition)
  Jacob Kongsted,           Univ. of Southern Denmark,    Denmark     (Polarizable embedding model, QM/MM)
  Andrea Ligabue,           University of Modena,         Italy       (CTOCD, AOSOPPA)
  Nanna H. List             Univ. of Southern Denmark,    Denmark     (Polarizable embedding model)
  Ola B. Lutnaes,           University of Oslo,           Norway      (DFT Hessian)
  Juan I. Melo,             University of Buenos Aires,   Argentina   (LRESC, Relativistic Effects on NMR Shieldings)
  Kurt V. Mikkelsen,        University of Copenhagen,     Denmark     (MC-SCRF and QM/MM)
  Rolf H. Myhre,            NTNU,                         Norway      (Cholesky, subsystems and ECC2)
  Christian Neiss,          Univ. Erlangen-Nuernberg,     Germany     (CCSD(R12))
  Christian B. Nielsen,     University of Copenhagen,     Denmark     (QM/MM)
  Patrick Norman,           Linkoeping University,        Sweden      (Cubic response and complex frequency response in RESPONS)
  Jeppe Olsen,              Aarhus University,            Denmark     (SIRIUS CI/density modules)
  Jogvan Magnus H. Olsen,   Univ. of Southern Denmark,    Denmark     (Polarizable embedding model, QM/MM)
  Anders Osted,             Copenhagen University,        Denmark     (QM/MM)
  Martin J. Packer,         University of Sheffield,      UK          (SOPPA)
  Filip Pawlowski,          Kazimierz Wielki University,  Poland      (CC3)
  Morten N. Pedersen,       Univ. of Southern Denmark,    Denmark     (Polarizable embedding model)
  Thomas B. Pedersen,       University of Oslo,           Norway      (Cholesky decomposition)
  Patricio F. Provasi,      University of Northeastern,   Argentina   (Analysis of coupling constants in localized orbitals)
  Zilvinas Rinkevicius,     KTH Stockholm,                Sweden      (open-shell DFT, ESR)
  Elias Rudberg,            KTH Stockholm,                Sweden      (DFT grid and basis info)
  Torgeir A. Ruden,         University of Oslo,           Norway      (Numerical derivatives in ABACUS)
  Kenneth Ruud,             UiT The Arctic U. of Norway,  Norway      (DALTON; ABACUS magnetic properties and much more)
  Pawel Salek,              KTH Stockholm,                Sweden      (DALTON; DFT code)
  Claire C. M. Samson       University of Karlsruhe       Germany     (Boys localization, r12 integrals in ERI)
  Alfredo Sanchez de Meras, University of Valencia,       Spain       (CC module, Cholesky decomposition)
  Trond Saue,               Paul Sabatier University,     France      (direct Fock matrix construction)
  Stephan P. A. Sauer,      University of Copenhagen,     Denmark     (SOPPA(CCSD), SOPPA prop., AOSOPPA, vibrational g-factors)
  Bernd Schimmelpfennig,    Forschungszentrum Karlsruhe,  Germany     (AMFI module)
  Kristian Sneskov,         Aarhus University,            Denmark     (Polarizable embedding model, QM/MM)
  Arnfinn H. Steindal,      UiT The Arctic U. of Norway,  Norway      (parallel QM/MM, Polarizable embedding model)
  Casper Steinmann,         Univ. of Southern Denmark,    Denmark     (QFIT, Polarizable embedding model)
  K. O. Sylvester-Hvid,     University of Copenhagen,     Denmark     (MC-SCRF)
  Peter R. Taylor,          VLSCI/Univ. of Melbourne,     Australia   (Symmetry handling ABACUS, integral transformation)
  Andrew M. Teale,          University of Nottingham,     England     (DFT-AC, DFT-D)
  David P. Tew,             University of Bristol,        England     (CCSD(R12))
  Olav Vahtras,             KTH Stockholm,                Sweden      (triplet response, spin-orbit, ESR, TDDFT, open-shell DFT)
  David J. Wilson,          La Trobe University,          Australia   (DFT Hessian and DFT magnetizabilities)
  Hans Agren,               KTH Stockholm,                Sweden      (SIRIUS module, RESPONS, MC-SCRF solvation model)
 --------------------------------------------------------------------------------

     Date and time (Linux)  : Thu Dec 20 05:47:38 2018
     Host name              : s71p34.deic.sdu.dk                      

 * Work memory size             :  2048000000 = 15.259 gigabytes.

 * Directories for basis set searches:
   1) /work/sdujk/reinholdt/ECP-Sonia/mixed-basis_small
   2) /gpfs/gss1/work/sdujk/reinholdt/Programs/dalton-private/pe-cvs/basis


Compilation information
-----------------------

 Who compiled             | reinholdt
 Host                     | fe1.deic.sdu.dk
 System                   | Linux-3.10.0-327.36.3.el7.x86_64
 CMake generator          | Unix Makefiles
 Processor                | x86_64
 64-bit integers          | ON
 MPI                      | OFF
 Fortran compiler         | /opt/sys/apps/intel/2018.05/compilers_and_librarie
                          | s_2018.3.222/linux/bin/intel64/ifort
 Fortran compiler version | ifort (IFORT) 18.0.3 20180410
 C compiler               | /opt/sys/apps/intel/2018.05/compilers_and_librarie
                          | s_2018.3.222/linux/bin/intel64/icc
 C compiler version       | icc (ICC) 18.0.3 20180410
 C++ compiler             | /opt/sys/apps/intel/2018.05/compilers_and_librarie
                          | s_2018.3.222/linux/bin/intel64/icpc
 C++ compiler version     | icpc (ICC) 18.0.3 20180410
 Static linking           | OFF
 Last Git revision        | 252a54078a0f9a1f0a59b3262fa4a57829155fe9
 Git branch               | pe/cc-cvs
 Configuration time       | 2018-12-09 12:09:40.474621


   Content of the .dal input file
 ----------------------------------

**DALTON
.RUN WAVE FUNCTIONS
.PEQM
**INTEGRALS
.DIPLEN
**WAVE FUNCTIONS
.CC
*PRINT
!To check the origin of excit
.PRINTL
   0 11
*SCF INP
.THRESH
1.0D-7
*CC INP
.CCSD
.THRLEQ
 1.0D-9
.THRENR
 1.0D-10
.FROIMP
4
0
.PRINT
 1
.MAX IT
 1200
.MAXRED
 1200
.MXLRV
1199
*PECC
*CCEXCI
.NCCEXC
 15
.CVSEPARA
1
1
*CCLRSD
.DIPOLE
**END OF DALTON INPUT


   Content of the .mol file
 ----------------------------

ATOMBASIS


Atomtypes=4 Charge=1 Nosymm Angstrom
   7.00000    1    Basis=6-311++G**
N          0.000000        0.000000        0.000000
   1.00000    4    Basis=6-311++G**
H         -0.112056        0.826728       -0.621615
H          0.861780       -0.386913       -0.433710
H         -0.830681       -0.681981        0.014581
H          0.326220        0.231556        0.925057
   8.00000    4    Basis=6-31G**
O          0.232816        2.105672       -1.793888
O         -2.413538       -1.137317       -0.152441
O          2.309668       -0.154431        1.652299
O          2.255505       -1.317352       -1.498130
   1.00000    8    Basis=6-31G**
H         -0.261784        2.028034       -2.700384
H          1.198413        2.216169       -2.069678
H         -2.512175       -2.113269       -0.337352
H         -3.091959       -0.666527        0.410825
H          2.707529        0.669763        1.328129
H          2.328645        0.007792        2.619872
H          2.387514       -2.270762       -1.217689
H          3.119135       -0.823974       -1.305614


       *******************************************************************
       *********** Output from DALTON general input processing ***********
       *******************************************************************

 --------------------------------------------------------------------------------
   Overall default print level:    0
   Print level for DALTON.STAT:    1

    HERMIT 1- and 2-electron integral sections will be executed
    "Old" integral transformation used (limited to max 255 basis functions)
    Wave function sections will be executed (SIRIUS module)
    Environment is modeled using polarizable embedding scheme (PE library)
 --------------------------------------------------------------------------------


   ****************************************************************************
   *************** Output of molecule and basis set information ***************
   ****************************************************************************


    The two title cards from your ".mol" input:
    ------------------------------------------------------------------------
 1:                                                                         
 2:                                                                         
    ------------------------------------------------------------------------

  Coordinates are entered in Angstrom and converted to atomic units.
          - Conversion factor : 1 bohr = 0.52917721 A

  Atomic type no.    1
  --------------------
  Nuclear charge:   7.00000
  Number of symmetry independent centers:    1
  Number of basis sets to read;    2
  The basis set is "6-311++G**" from the basis set library.
  Basis set file used for this atomic type with Z =   7 :
     "/gpfs/gss1/work/sdujk/reinholdt/Programs/dalton-private/pe-cvs/basis/6-311++G**"

  Info about the basis set file: your basis has no documentation.
  Basis set: 6-311++G**                                                                      

  Atomic type no.    2
  --------------------
  Nuclear charge:   1.00000
  Number of symmetry independent centers:    4
  Number of basis sets to read;    2
  The basis set is "6-311++G**" from the basis set library.
  Basis set file used for this atomic type with Z =   1 :
     "/gpfs/gss1/work/sdujk/reinholdt/Programs/dalton-private/pe-cvs/basis/6-311++G**"

  Info about the basis set file: your basis has no documentation.
  Basis set: 6-311++G**                                                                      

  Atomic type no.    3
  --------------------
  Nuclear charge:   8.00000
  Number of symmetry independent centers:    4
  Number of basis sets to read;    2
  The basis set is "6-31G**" from the basis set library.
  Basis set file used for this atomic type with Z =   8 :
     "/gpfs/gss1/work/sdujk/reinholdt/Programs/dalton-private/pe-cvs/basis/6-31G**"

  Info about the basis set file: your basis has no documentation.
  Basis set: 6-31G**                                                                         

  Atomic type no.    4
  --------------------
  Nuclear charge:   1.00000
  Number of symmetry independent centers:    8
  Number of basis sets to read;    2
  The basis set is "6-31G**" from the basis set library.
  Basis set file used for this atomic type with Z =   1 :
     "/gpfs/gss1/work/sdujk/reinholdt/Programs/dalton-private/pe-cvs/basis/6-31G**"

  Info about the basis set file: your basis has no documentation.
  Basis set: 6-31G**                                                                         


                         SYMGRP: Point group information
                         -------------------------------

@    Point group: C1 


                                 Isotopic Masses
                                 ---------------

                           N          14.003074
                           H           1.007825
                           H           1.007825
                           H           1.007825
                           H           1.007825
                           O          15.994915
                           O          15.994915
                           O          15.994915
                           O          15.994915
                           H           1.007825
                           H           1.007825
                           H           1.007825
                           H           1.007825
                           H           1.007825
                           H           1.007825
                           H           1.007825
                           H           1.007825

                       Total mass:    90.076634 amu
                       Natural abundance:  98.500 %

 Center-of-mass coordinates (a.u.):    0.929533   -0.189299   -0.673000


  Atoms and basis sets
  --------------------

  Number of atom types :    4
  Total number of atoms:   17

  label    atoms   charge   prim   cont     basis
  ----------------------------------------------------------------------
  N           1    7.0000    35    22      [12s6p1d|5s4p1d]                                   
  H           4    1.0000     9     7      [6s1p|4s1p]                                        
  O           4    8.0000    27    14      [10s4p1d|3s2p1d]                                   
  H           8    1.0000     7     5      [4s1p|2s1p]                                        
  ----------------------------------------------------------------------
  total:     17   51.0000   235   146
  ----------------------------------------------------------------------
  Spherical harmonic basis used.

  Threshold for neglecting AO integrals:  1.00D-12


  Cartesian Coordinates (a.u.)
  ----------------------------

  Total number of coordinates:   51
  N       :     1  x   0.0000000000    2  y   0.0000000000    3  z   0.0000000000
  H       :     4  x  -0.2117551507    5  y   1.5622894999    6  z  -1.1746821052
  H       :     7  x   1.6285281800    8  y  -0.7311596042    9  z  -0.8195931177
  H       :    10  x  -1.5697595872   11  y  -1.2887573124   12  z   0.0275540966
  H       :    13  x   0.6164664565   14  y   0.4375774226   15  z   1.7481043800
  O       :    16  x   0.4399584775   17  y   3.9791433891   18  z  -3.3899570189
  O       :    19  x  -4.5609258123   20  y  -2.1492176473   21  z  -0.2880717402
  O       :    22  x   4.3646399597   23  y  -0.2918322952   24  z   3.1223925866
  O       :    25  x   4.2622867236   26  y  -2.4894344902   27  z  -2.8310553996
  H       :    28  x  -0.4947000639   29  y   3.8324288322   30  z  -5.1029861923
  H       :    31  x   2.2646723546   32  y   4.1879524567   33  z  -3.9111245869
  H       :    34  x  -4.7473227281   35  y  -3.9934996384   36  z  -0.6375028877
  H       :    37  x  -5.8429556997   38  y  -1.2595534849   39  z   0.7763467353
  H       :    40  x   5.1164882855   41  y   1.2656686387   42  z   2.5098000687
  H       :    43  x   4.4005012923   44  y   0.0147247460   45  z   4.9508405625
  H       :    46  x   4.5117475796   47  y  -4.2911182750   48  z  -2.3010987154
  H       :    49  x   5.8943108969   50  y  -1.5570851941   51  z  -2.4672528850

  Max    interatomic separation is    6.4458 Angstrom (   12.1808 Bohr)
  between atoms   17 and   13, "H     " and "H     ".

  Min HX interatomic separation is    0.9709 Angstrom (    1.8348 Bohr)

  Min YX interatomic separation is    2.6724 Angstrom (    5.0502 Bohr)


  Bond distances (Angstrom):
  --------------------------

                  atom 1     atom 2       distance
                  ------     ------       --------
  bond distance:  H          N            1.040404
  bond distance:  H          N            1.039457
  bond distance:  H          N            1.074868
  bond distance:  H          N            1.007853
  bond distance:  H          O            1.035564
  bond distance:  H          O            1.010271
  bond distance:  H          O            0.998200
  bond distance:  H          O            0.999583
  bond distance:  H          O            0.970915
  bond distance:  H          O            0.981261
  bond distance:  H          O            1.002529
  bond distance:  H          O            1.013085


  Bond angles (degrees):
  ----------------------

                  atom 1     atom 2     atom 3         angle
                  ------     ------     ------         -----
  bond angle:     H          N          H             97.804
  bond angle:     H          N          H            115.407
  bond angle:     H          N          H            113.621
  bond angle:     H          N          H            114.218
  bond angle:     H          N          H            101.545
  bond angle:     H          N          H            112.549
  bond angle:     H          O          H            103.046
  bond angle:     H          O          H            119.855
  bond angle:     H          O          H            100.426
  bond angle:     H          O          H            107.322




 Principal moments of inertia (u*A**2) and principal axes
 --------------------------------------------------------

   IA     282.370064          0.988279    0.003964    0.152606
   IB     392.125874         -0.105994   -0.701597    0.704646
   IC     470.084327         -0.109861    0.712563    0.692954


 Rotational constants
 --------------------

               A                   B                   C

           1789.7754           1288.8183           1075.0816 MHz
            0.059700            0.042990            0.035861 cm-1


@  Nuclear repulsion energy :  203.429446796516 Hartree

  Reading potential input file for polarizable embedding calculation
 
    .------------------------------------------------.
    | Information from polarizable embedding library |
    `------------------------------------------------´

      Number of classical sites:    177

      Multipole moments upto 0th order.

      Dipole-dipole polarizabilities.

      Iterative solver for induced moments will be used
      with convergence threshold: 1.0E-08
      Total charge of classical region:    0.0000
 


                     .---------------------------------------.
                     | Starting in Integral Section (HERMIT) |
                     `---------------------------------------'



 ***************************************************************************************
 ****************** Output from **INTEGRALS input processing (HERMIT) ******************
 ***************************************************************************************



    *************************************************************************
    ****************** Output from HERMIT input processing ******************
    *************************************************************************


 Default print level:        1

 * Nuclear model: Point charge

 Calculation of one- and two-electron Hamiltonian integrals.

 The following one-electron property integrals are calculated as requested:
          - overlap integrals
          - dipole length integrals

 Center of mass  (bohr):      0.929532560839     -0.189298777579     -0.672999514538
 Operator center (bohr):      0.000000000000      0.000000000000      0.000000000000
 Gauge origin    (bohr):      0.000000000000      0.000000000000      0.000000000000
 Dipole origin   (bohr):      0.000000000000      0.000000000000      0.000000000000


     ************************************************************************
     ************************** Output from HERINT **************************
     ************************************************************************



                      Nuclear contribution to dipole moments
                      --------------------------------------

                 au               Debye          C m (/(10**-30)

      x     47.61389660       121.02244589       403.68742661
      y     -9.43126026       -23.97187095       -79.96155443
      z    -33.49512722       -85.13611595      -283.98351485


  Time used in POPOVLP    is       0.11 seconds
  Time used in QUADRUP    is       0.10 seconds

 Threshold for neglecting two-electron integrals:  1.00D-12
 HERMIT - Number of two-electron integrals written:    32615476 ( 56.6% )
 HERMIT - Megabytes written:                            373.468

  Time used in TWOINT     is       7.13 seconds
  Total CPU  time used in HERMIT:   7.61 seconds
  Total wall time used in HERMIT:   6.79 seconds


                        .----------------------------------.
                        | End of Integral Section (HERMIT) |
                        `----------------------------------'



                   .--------------------------------------------.
                   | Starting in Wave Function Section (SIRIUS) |
                   `--------------------------------------------'

 INPUT: SIMPLE =  F
NCCEXCI for singlet:   15
 CCSD_INPUT: core-val requested
 Requested number of core orbs per sym
                     1
 Indices of requested core orbs
                     1

 *** Output from Huckel module :

     Using EWMO model:          T
     Using EHT  model:          F
     Number of Huckel orbitals each symmetry:   37

 EWMO - Energy Weighted Maximum Overlap - is a Huckel type method,
        which normally is better than Extended Huckel Theory.
 Reference: Linderberg and Ohrn, Propagators in Quantum Chemistry (Wiley, 1973)

 Huckel EWMO eigenvalues for symmetry :  1
          -20.684779     -20.684501     -20.684233     -20.684118     -15.675603
           -1.813351      -1.618700      -1.595818      -1.575744      -1.480393
           -0.831393      -0.813496      -0.793122      -0.781569      -0.768643
           -0.757463      -0.740639      -0.696764      -0.670003      -0.649121
           -0.634528      -0.610394      -0.581192      -0.562200      -0.555478
           -0.267485      -0.251157      -0.248472      -0.231626      -0.189137
           -0.183689      -0.177472      -0.176552      -0.174364      -0.151309
           -0.142151      -0.139142

 **********************************************************************
 *SIRIUS* a direct, restricted step, second order MCSCF program       *
 **********************************************************************

 
     Date and time (Linux)  : Thu Dec 20 05:47:46 2018
     Host name              : s71p34.deic.sdu.dk                      

 Title lines from ".mol" input file:
                                                                             
                                                                             

 Print level on unit LUPRI =   2 is   0
 Print level on unit LUW4  =   2 is  11

@    (Integral direct) CC calculation.

@    This is a combination run starting with
@              a restricted, closed shell Hartree-Fock calculation


 Initial molecular orbitals are obtained according to
 ".MOSTART EWMO  " input option

@    QM part is embedded in an environment :

@         Model: PE

     Wave function specification
     ============================

     For the specification of the Coupled Cluster: see later.


     Wave function environment is modeled using the
     polarizable embedding model (PE library).

@    Wave function type        --- PE-CC ---
@    Number of closed shell electrons          50
@    Number of electrons in active shells       0
@    Total charge of the molecule               1

@    Spin multiplicity and 2 M_S                1         0
@    Total number of symmetries                 1 (point group: C1 )
@    Reference state symmetry                   1 (irrep name : A  )

     Orbital specifications
     ======================
@    Abelian symmetry species          All |    1
@                                          |  A  
                                       --- |  ---
@    Occupied SCF orbitals              25 |   25
@    Secondary orbitals                121 |  121
@    Total number of orbitals          146 |  146
@    Number of basis functions         146 |  146

     Optimization information
     ========================
@    Number of configurations                 1
@    Number of orbital rotations           3025
     ------------------------------------------
@    Total number of variables             3026

     Maximum number of Fock   iterations      0
     Maximum number of DIIS   iterations     60
     Maximum number of QC-SCF iterations     60
     Threshold for SCF convergence     1.00D-07


 Changes of defaults for CC:
 ---------------------------


 -Implicit frozen core calculation
 -Excitation energies calculated
 -One-photon absorption strengths will be calculated
 -Oscillator strengths calculated
  
* Read MO coefficients from SIRIUS.RST with label "NEWORB  " and header info: 20Dec18  REORTHO 


 ***********************************************
 ***** DIIS acceleration of SCF iterations *****
 ***********************************************

 C1-DIIS algorithm; max error vectors =    8
 -----------------------------------------------------------------------------

 *** DIIS iteration number    1
 RDSUPM called. NFMAT, ISYMDM(1:NFMAT)                     1
                     1

Calculating AOSUPINT
     (Precalculated AO two-electron integrals are transformed to P-supermatrix elements.
      Threshold for discarding integrals :  1.00D-12 )
  CPU  time used in FORMSUP    is   2.81 seconds
  WALL time used in FORMSUP    is   5.16 seconds

 ITDIIS, energy, error norm, change in energy, scr.thr., difden:
@ DIIS iter.   1    -360.134370957        3.71355D+00   -3.60D+02  -20    F

 (DIIS_RED) Control Parameters C2DIIS =         F NEVC =    1


 (DIIS_RED) B matrix:

               Column   1
       1      13.79049046
    ==== End of matrix output ====

 DIIS C vector; C2DIIS = F, LAMBDA = -1.38D+01
    1.000000
* Read MO coefficients from SIRIUS.RST with label "NEWORB  " and header info: 20Dec18  DIIS   1
      Virial theorem: -V/T =      2.005829
@    MULPOP   N      -0.20; H       0.22; H       0.19; H       0.19; H       0.19; O      -0.47; O      -0.47; O      -0.51; O      -0.51; H       0.29; 
@             H       0.29; H       0.30; H       0.29; H       0.30; H       0.29; H       0.29; H       0.30; 
   1  Level shift: doubly occupied orbital energies shifted by -2.00D-01

 DIIS Fock eigenvalues in symmetry 1
      -20.87884      -20.86914      -20.85160      -20.82797      -16.45505
       -1.73358       -1.68281       -1.64237       -1.63591       -1.60656
       -1.21746       -1.20654       -1.18117       -1.04709       -1.03661
       -1.01537       -0.97198       -0.93427       -0.89106       -0.88514
       -0.88067       -0.86838       -0.86194       -0.85100       -0.82713
       -0.04197        0.00328        0.01320        0.03063        0.09314
        0.09767        0.10535        0.10754        0.14457        0.17240
        0.18338        0.19225        0.19855        0.21335        0.23478
        0.24732        0.25814        0.27416        0.28191        0.28622
        0.45320        0.46679        0.49071        0.67326        0.70905
        0.72877        0.75377        0.83209        0.87000        0.89094
        0.92395        0.93371        0.95216        0.96519        0.98016
        0.99271        1.01995        1.02664        1.06812        1.08197
        1.10360        1.13783        1.17126        1.17732        1.20819
        1.22950        1.24485        1.25787        1.27370        1.30140
        1.43289        1.44332        1.47657        1.51590        1.54748
        1.59283        1.61380        1.63325        1.63937        1.65890
        1.67246        1.67790        1.68362        1.69394        1.71888
        1.72274        1.76706        1.77355        1.83245        2.00445
        2.04124        2.09889        2.12644        2.25550        2.29249
        2.32855        2.35412        2.36868        2.38545        2.40328
        2.40883        2.41432        2.45673        2.55629        2.56803
        2.57574        2.62143        2.64050        2.64412        2.68095
        2.69992        2.71331        2.73402        2.77379        2.77635
        2.78663        2.79398        2.80260        2.84951        2.86026
        2.90355        3.03990        3.09171        3.11609        3.13665
        3.15106        3.15527        3.17315        3.19405        3.54329
        3.56635        3.57723        3.67873        3.68402        3.72574
        3.76890        3.77525        4.66073        4.82267        4.86820
       36.40565
 Time used in FCKEIG, thr_jaco:   1.31D-01  3.20D-02  1.69D-04
 CPU and wall times used in FCKEIG, THR_FCKEIG:   1.31D-01  3.20D-02  3.71D-02
 -----------------------------------------------------------------------------

 *** DIIS iteration number    2
 RDSUPM called. NFMAT, ISYMDM(1:NFMAT)                     1
                     1

 ITDIIS, energy, error norm, change in energy, scr.thr., difden:
@ DIIS iter.   2    -361.022289962        1.10015D+00   -8.88D-01  -20    F

 (DIIS_RED) Control Parameters C2DIIS =         F NEVC =    2


 (DIIS_RED) B matrix:

               Column   1     Column   2
       1      13.79049046
       2       1.11773823     1.21033392
    ==== End of matrix output ====

 DIIS C vector; C2DIIS = F, LAMBDA = -1.21D+00
    0.007254    0.992746
* Read MO coefficients from SIRIUS.RST with label "NEWORB  " and header info: 20Dec18  DIIS   2
      Virial theorem: -V/T =      2.003428
@    MULPOP   N      -0.92; H       0.42; H       0.40; H       0.40; H       0.37; O      -0.67; O      -0.68; O      -0.66; O      -0.66; H       0.41; 
@             H       0.36; H       0.39; H       0.40; H       0.36; H       0.36; H       0.34; H       0.39; 
   2  Level shift: doubly occupied orbital energies shifted by -1.00D-01

 DIIS Fock eigenvalues in symmetry 1
      -20.80359      -20.79699      -20.78169      -20.77458      -15.61356
       -1.56462       -1.53244       -1.53202       -1.50395       -1.38066
       -0.91465       -0.91425       -0.89529       -0.89024       -0.88069
       -0.85217       -0.84205       -0.81845       -0.77889       -0.75939
       -0.75099       -0.74021       -0.72488       -0.71484       -0.69537
       -0.01149        0.02240        0.03203        0.04938        0.13483
        0.14098        0.14554        0.16106        0.20202        0.21760
        0.24097        0.24207        0.25280        0.27160        0.28175
        0.28821        0.30340        0.31662        0.34106        0.36042
        0.53258        0.54483        0.56273        0.77684        0.85880
        0.87047        0.90740        0.92198        0.92457        0.96599
        0.98371        0.99338        0.99837        1.01821        1.03891
        1.05444        1.07702        1.08396        1.10814        1.12643
        1.14898        1.17537        1.20774        1.21094        1.25342
        1.26485        1.29375        1.31189        1.33337        1.36350
        1.50719        1.51368        1.56940        1.59706        1.62238
        1.64829        1.66197        1.68903        1.69143        1.71680
        1.72074        1.73110        1.74244        1.74696        1.75851
        1.77913        1.83515        1.87394        1.90897        2.11839
        2.15060        2.20302        2.24966        2.35411        2.36392
        2.39451        2.41537        2.42332        2.43990        2.46956
        2.48093        2.50206        2.59672        2.61117        2.61558
        2.66988        2.70827        2.71551        2.72059        2.79916
        2.80989        2.82017        2.82515        2.83324        2.84739
        2.87622        2.88790        2.92198        2.94235        2.98187
        3.00241        3.14459        3.18644        3.19473        3.21772
        3.25640        3.37375        3.42318        3.44753        3.60646
        3.63468        3.64261        3.72383        3.73064        3.76222
        3.80371        3.82291        5.06526        5.22648        5.26958
       37.12991
 Time used in FCKEIG, thr_jaco:   9.69D-02  2.40D-02  5.00D-05
 CPU and wall times used in FCKEIG, THR_FCKEIG:   9.70D-02  2.40D-02  1.10D-02
 -----------------------------------------------------------------------------

 *** DIIS iteration number    3
 RDSUPM called. NFMAT, ISYMDM(1:NFMAT)                     1
                     1

 ITDIIS, energy, error norm, change in energy, scr.thr., difden:
@ DIIS iter.   3    -361.097687962        3.86054D-01   -7.54D-02  -20    F

 (DIIS_RED) Control Parameters C2DIIS =         F NEVC =    3


 (DIIS_RED) B matrix:

               Column   1     Column   2     Column   3
       1      13.79049046
       2       1.11773823     1.21033392
       3       0.85193736    -0.04522454     0.14903739
    ==== End of matrix output ====

 DIIS C vector; C2DIIS = F, LAMBDA = -7.47D-02
   -0.063239    0.154058    0.909182
* Read MO coefficients from SIRIUS.RST with label "NEWORB  " and header info: 20Dec18  DIIS   3
      Virial theorem: -V/T =      2.005007
@    MULPOP   N      -0.78; H       0.41; H       0.38; H       0.39; H       0.33; O      -0.80; O      -0.80; O      -0.76; O      -0.77; H       0.46; 
@             H       0.41; H       0.43; H       0.45; H       0.40; H       0.40; H       0.38; H       0.45; 
   3  Level shift: doubly occupied orbital energies shifted by -5.00D-02

 DIIS Fock eigenvalues in symmetry 1
      -20.72653      -20.70762      -20.70099      -20.67938      -15.77800
       -1.50139       -1.46694       -1.46306       -1.43350       -1.38245
       -0.87112       -0.86452       -0.84925       -0.84628       -0.82455
       -0.82007       -0.78084       -0.75504       -0.71038       -0.69298
       -0.68550       -0.67220       -0.65256       -0.64738       -0.62148
       -0.00787        0.02414        0.03518        0.05302        0.13838
        0.14562        0.14980        0.16162        0.20839        0.22333
        0.24477        0.25015        0.25535        0.27884        0.28938
        0.29545        0.30977        0.32081        0.34039        0.36059
        0.53222        0.54051        0.56125        0.77600        0.84817
        0.85524        0.89332        0.92124        0.93268        0.97574
        0.99351        1.00099        1.01057        1.03190        1.05015
        1.06560        1.08828        1.09715        1.12430        1.14165
        1.15202        1.18934        1.21920        1.22346        1.26908
        1.27525        1.30996        1.32494        1.34115        1.37021
        1.51687        1.52434        1.57747        1.60681        1.63363
        1.66160        1.67967        1.70615        1.71026        1.73172
        1.73754        1.74778        1.75721        1.75808        1.77595
        1.79341        1.84633        1.87892        1.91689        2.11978
        2.15380        2.20683        2.24695        2.36698        2.37129
        2.41093        2.43109        2.43876        2.45466        2.48205
        2.49415        2.50607        2.58890        2.63127        2.63564
        2.68133        2.71721        2.72661        2.73350        2.80612
        2.81558        2.83518        2.83789        2.84641        2.85860
        2.88472        2.88544        2.91454        2.95322        2.97851
        2.97970        3.15778        3.19940        3.21085        3.22516
        3.25845        3.33109        3.37795        3.40274        3.62401
        3.65011        3.66017        3.73971        3.74755        3.78251
        3.82397        3.83911        4.97902        5.14054        5.18449
       36.92200
 Time used in FCKEIG, thr_jaco:   8.36D-02  2.10D-02  1.75D-05
 CPU and wall times used in FCKEIG, THR_FCKEIG:   8.37D-02  2.10D-02  3.86D-03
 -----------------------------------------------------------------------------

 *** DIIS iteration number    4
 RDSUPM called. NFMAT, ISYMDM(1:NFMAT)                     1
                     1

 ITDIIS, energy, error norm, change in energy, scr.thr., difden:
@ DIIS iter.   4    -361.108261114        7.87707D-02   -1.06D-02  -20    F

 (DIIS_RED) Control Parameters C2DIIS =         F NEVC =    4


 (DIIS_RED) B matrix:

               Column   1     Column   2     Column   3     Column   4
       1      13.79049046
       2       1.11773823     1.21033392
       3       0.85193736    -0.04522454     0.14903739
       4       0.09112356     0.05312541     0.00979870     0.00620483
    ==== End of matrix output ====

 DIIS C vector; C2DIIS = F, LAMBDA = -3.71D-03
    0.001343   -0.050018   -0.071585    1.120259
* Read MO coefficients from SIRIUS.RST with label "NEWORB  " and header info: 20Dec18  DIIS   4
      Virial theorem: -V/T =      2.004795
@    MULPOP   N      -0.84; H       0.42; H       0.39; H       0.41; H       0.35; O      -0.82; O      -0.83; O      -0.79; O      -0.79; H       0.48; 
@             H       0.42; H       0.45; H       0.47; H       0.42; H       0.41; H       0.39; H       0.46; 
   4  Level shift: doubly occupied orbital energies shifted by -1.25D-02

 DIIS Fock eigenvalues in symmetry 1
      -20.69690      -20.68064      -20.67570      -20.65719      -15.71896
       -1.46746       -1.43233       -1.42863       -1.40031       -1.33594
       -0.82635       -0.81942       -0.81486       -0.81043       -0.78950
       -0.77444       -0.74719       -0.71894       -0.67339       -0.65620
       -0.64880       -0.63408       -0.61413       -0.60880       -0.58443
       -0.00689        0.02442        0.03533        0.05416        0.14043
        0.14800        0.15140        0.16379        0.20719        0.22370
        0.24540        0.24860        0.25689        0.27876        0.28835
        0.29507        0.31163        0.32198        0.34402        0.36341
        0.53672        0.54523        0.56610        0.78081        0.85300
        0.86089        0.89962        0.92210        0.93195        0.97671
        0.99298        1.00074        1.00893        1.02992        1.04963
        1.06463        1.08699        1.09726        1.12441        1.14247
        1.15440        1.18900        1.21865        1.22350        1.26778
        1.27566        1.30799        1.32290        1.34174        1.36886
        1.51784        1.52527        1.58072        1.60985        1.63547
        1.66211        1.67855        1.70415        1.70910        1.73066
        1.73660        1.74747        1.75669        1.75921        1.77537
        1.79268        1.84778        1.88234        1.92014        2.12538
        2.15844        2.21104        2.25297        2.36590        2.37339
        2.41018        2.43008        2.43670        2.45312        2.47974
        2.49004        2.50757        2.59327        2.62906        2.63292
        2.68109        2.71885        2.72674        2.73289        2.81077
        2.81699        2.83364        2.83687        2.84502        2.85804
        2.88561        2.88848        2.91815        2.95536        2.98163
        2.98446        3.15651        3.19849        3.20908        3.22528
        3.26050        3.34040        3.38755        3.41218        3.62121
        3.64666        3.65610        3.73789        3.74582        3.78093
        3.82134        3.83667        4.99174        5.15352        5.19743
       36.94346
 Time used in FCKEIG, thr_jaco:   7.40D-02  1.80D-02  3.58D-06
 CPU and wall times used in FCKEIG, THR_FCKEIG:   7.41D-02  1.80D-02  7.88D-04
 -----------------------------------------------------------------------------

 *** DIIS iteration number    5
 RDSUPM called. NFMAT, ISYMDM(1:NFMAT)                     1
                     1

 ITDIIS, energy, error norm, change in energy, scr.thr., difden:
@ DIIS iter.   5    -361.109128897        2.64919D-02   -8.68D-04  -20    F

 (DIIS_RED) Control Parameters C2DIIS =         F NEVC =    5


 (DIIS_RED) B matrix:

               Column   1     Column   2     Column   3     Column   4     Column   5
       1      13.79049046
       2       1.11773823     1.21033392
       3       0.85193736    -0.04522454     0.14903739
       4       0.09112356     0.05312541     0.00979870     0.00620483
       5       0.01619462     0.00571770     0.00443632     0.00084938     0.00070182
    ==== End of matrix output ====

 DIIS C vector; C2DIIS = F, LAMBDA = -5.09D-04
    0.002227   -0.012352   -0.048163    0.100005    0.958283
* Read MO coefficients from SIRIUS.RST with label "NEWORB  " and header info: 20Dec18  DIIS   5
      Virial theorem: -V/T =      2.004519
@    MULPOP   N      -0.83; H       0.42; H       0.39; H       0.40; H       0.34; O      -0.84; O      -0.84; O      -0.80; O      -0.81; H       0.49; 
@             H       0.43; H       0.45; H       0.48; H       0.43; H       0.42; H       0.40; H       0.47; 

 DIIS Fock eigenvalues in symmetry 1
      -20.68068      -20.66167      -20.65546      -20.63574      -15.70364
       -1.45348       -1.41707       -1.41363       -1.38453       -1.32202
       -0.81265       -0.80561       -0.80062       -0.79685       -0.77525
       -0.76035       -0.73229       -0.70545       -0.65883       -0.64134
       -0.63379       -0.61939       -0.59837       -0.59320       -0.56808
       -0.00656        0.02461        0.03556        0.05456        0.14090
        0.14851        0.15193        0.16438        0.20747        0.22424
        0.24596        0.24913        0.25761        0.27936        0.28885
        0.29561        0.31259        0.32290        0.34480        0.36431
        0.53754        0.54606        0.56681        0.78168        0.85398
        0.86186        0.90066        0.92282        0.93263        0.97787
        0.99380        1.00156        1.00989        1.03083        1.05062
        1.06568        1.08810        1.09905        1.12645        1.14446
        1.15630        1.19083        1.21978        1.22531        1.26972
        1.27742        1.30990        1.32479        1.34301        1.37056
        1.51904        1.52678        1.58236        1.61109        1.63703
        1.66346        1.68001        1.70522        1.71045        1.73206
        1.73847        1.74919        1.75839        1.76067        1.77703
        1.79405        1.84924        1.88378        1.92153        2.12655
        2.15983        2.21241        2.25402        2.36639        2.37501
        2.41184        2.43121        2.43734        2.45407        2.48013
        2.49000        2.50895        2.59451        2.63038        2.63437
        2.68187        2.71953        2.72767        2.73377        2.81175
        2.81789        2.83426        2.83766        2.84564        2.85897
        2.88648        2.88942        2.91911        2.95630        2.98261
        2.98557        3.15716        3.19936        3.20974        3.22589
        3.26120        3.34182        3.38899        3.41363        3.62206
        3.64769        3.65672        3.73897        3.74708        3.78222
        3.82297        3.83733        4.99353        5.15526        5.19916
       36.94622
 Time used in FCKEIG, thr_jaco:   6.98D-02  1.70D-02  1.20D-06
 CPU and wall times used in FCKEIG, THR_FCKEIG:   6.99D-02  1.70D-02  2.65D-04
 -----------------------------------------------------------------------------

 *** DIIS iteration number    6
 RDSUPM called. NFMAT, ISYMDM(1:NFMAT)                     1
                     1

 ITDIIS, energy, error norm, change in energy, scr.thr., difden:
@ DIIS iter.   6    -361.109202992        9.75296D-03   -7.41D-05  -20    F

 (DIIS_RED) Control Parameters C2DIIS =         F NEVC =    6


 (DIIS_RED) B matrix:

               Column   1     Column   2     Column   3     Column   4     Column   5     Column   6
       1      13.79049046
       2       1.11773823     1.21033392
       3       0.85193736    -0.04522454     0.14903739
       4       0.09112356     0.05312541     0.00979870     0.00620483
       5       0.01619462     0.00571770     0.00443632     0.00084938     0.00070182
       6      -0.00445722    -0.00017363     0.00035303     0.00045910     0.00000605     0.00009512
    ==== End of matrix output ====

 DIIS C vector; C2DIIS = F, LAMBDA = -2.56D-05
    0.000585    0.005508    0.001737   -0.147266    0.136775    1.002662
* Read MO coefficients from SIRIUS.RST with label "NEWORB  " and header info: 20Dec18  DIIS   6
      Virial theorem: -V/T =      2.004742
@    MULPOP   N      -0.82; H       0.42; H       0.39; H       0.40; H       0.34; O      -0.84; O      -0.84; O      -0.80; O      -0.81; H       0.49; 
@             H       0.43; H       0.45; H       0.48; H       0.43; H       0.42; H       0.40; H       0.47; 

 DIIS Fock eigenvalues in symmetry 1
      -20.68166      -20.66352      -20.65793      -20.63864      -15.70492
       -1.45365       -1.41785       -1.41411       -1.38539       -1.32233
       -0.81309       -0.80592       -0.80147       -0.79714       -0.77576
       -0.76060       -0.73312       -0.70595       -0.65954       -0.64222
       -0.63472       -0.61948       -0.59880       -0.59359       -0.56872
       -0.00655        0.02462        0.03554        0.05455        0.14091
        0.14848        0.15191        0.16436        0.20736        0.22415
        0.24585        0.24894        0.25749        0.27922        0.28861
        0.29536        0.31236        0.32263        0.34456        0.36404
        0.53749        0.54605        0.56673        0.78159        0.85378
        0.86165        0.90046        0.92261        0.93239        0.97754
        0.99347        1.00123        1.00952        1.03060        1.05038
        1.06531        1.08782        1.09860        1.12610        1.14417
        1.15592        1.19024        1.21953        1.22481        1.26905
        1.27696        1.30931        1.32420        1.34273        1.37007
        1.51885        1.52644        1.58202        1.61085        1.63664
        1.66318        1.67948        1.70493        1.71008        1.73166
        1.73793        1.74867        1.75784        1.76034        1.77662
        1.79372        1.84888        1.88348        1.92132        2.12636
        2.15968        2.21223        2.25387        2.36598        2.37463
        2.41134        2.43074        2.43697        2.45383        2.47974
        2.48977        2.50856        2.59413        2.62987        2.63379
        2.68166        2.71927        2.72729        2.73329        2.81162
        2.81760        2.83392        2.83726        2.84533        2.85860
        2.88618        2.88907        2.91887        2.95609        2.98221
        2.98526        3.15669        3.19888        3.20939        3.22558
        3.26100        3.34144        3.38858        3.41318        3.62169
        3.64716        3.65640        3.73828        3.74641        3.78175
        3.82227        3.83704        4.99295        5.15467        5.19854
       36.94495
 Time used in FCKEIG, thr_jaco:   6.86D-02  1.70D-02  4.43D-07
 CPU and wall times used in FCKEIG, THR_FCKEIG:   6.87D-02  1.70D-02  9.75D-05
 -----------------------------------------------------------------------------

 *** DIIS iteration number    7
 RDSUPM called. NFMAT, ISYMDM(1:NFMAT)                     1
                     1

 ITDIIS, energy, error norm, change in energy, scr.thr., difden:
@ DIIS iter.   7    -361.109213468        1.84732D-03   -1.05D-05  -20    F

 (DIIS_RED) Control Parameters C2DIIS =         F NEVC =    7


 (DIIS_RED) B matrix:

               Column   1     Column   2     Column   3     Column   4     Column   5     Column   6
       1      13.79049046
       2       1.11773823     1.21033392
       3       0.85193736    -0.04522454     0.14903739
       4       0.09112356     0.05312541     0.00979870     0.00620483
       5       0.01619462     0.00571770     0.00443632     0.00084938     0.00070182
       6      -0.00445722    -0.00017363     0.00035303     0.00045910     0.00000605     0.00009512
       7       0.00028736     0.00015993     0.00001379     0.00001003     0.00003540     0.00000043

               Column   7
       7       0.00000341
    ==== End of matrix output ====

 DIIS C vector; C2DIIS = F, LAMBDA = -8.14D-07
   -0.000243   -0.000432    0.002721    0.023439   -0.094486   -0.126230    1.195231
* Read MO coefficients from SIRIUS.RST with label "NEWORB  " and header info: 20Dec18  DIIS   7
      Virial theorem: -V/T =      2.004690
@    MULPOP   N      -0.82; H       0.42; H       0.39; H       0.40; H       0.34; O      -0.84; O      -0.85; O      -0.80; O      -0.81; H       0.49; 
@             H       0.43; H       0.46; H       0.48; H       0.43; H       0.42; H       0.40; H       0.47; 

 DIIS Fock eigenvalues in symmetry 1
      -20.68166      -20.66332      -20.65770      -20.63822      -15.70462
       -1.45363       -1.41772       -1.41400       -1.38522       -1.32216
       -0.81295       -0.80580       -0.80141       -0.79709       -0.77569
       -0.76047       -0.73299       -0.70601       -0.65952       -0.64215
       -0.63464       -0.61942       -0.59864       -0.59344       -0.56850
       -0.00652        0.02465        0.03556        0.05459        0.14095
        0.14854        0.15197        0.16443        0.20739        0.22419
        0.24590        0.24897        0.25755        0.27926        0.28864
        0.29540        0.31243        0.32270        0.34465        0.36412
        0.53759        0.54615        0.56684        0.78170        0.85388
        0.86176        0.90058        0.92268        0.93244        0.97759
        0.99352        1.00129        1.00958        1.03063        1.05042
        1.06537        1.08788        1.09871        1.12619        1.14425
        1.15605        1.19036        1.21958        1.22492        1.26917
        1.27705        1.30937        1.32427        1.34278        1.37015
        1.51893        1.52656        1.58215        1.61095        1.63675
        1.66325        1.67954        1.70496        1.71013        1.73173
        1.73803        1.74876        1.75793        1.76043        1.77669
        1.79378        1.84897        1.88360        1.92142        2.12649
        2.15979        2.21234        2.25400        2.36600        2.37474
        2.41143        2.43079        2.43700        2.45386        2.47975
        2.48977        2.50865        2.59425        2.62993        2.63385
        2.68170        2.71933        2.72735        2.73334        2.81172
        2.81766        2.83395        2.83730        2.84537        2.85865
        2.88624        2.88916        2.91897        2.95616        2.98229
        2.98540        3.15672        3.19894        3.20942        3.22563
        3.26108        3.34162        3.38876        3.41336        3.62172
        3.64720        3.65641        3.73834        3.74646        3.78180
        3.82235        3.83705        4.99315        5.15488        5.19876
       36.94524
 Time used in FCKEIG, thr_jaco:   6.80D-02  1.70D-02  8.40D-08
 CPU and wall times used in FCKEIG, THR_FCKEIG:   6.81D-02  1.70D-02  1.85D-05
 -----------------------------------------------------------------------------

 *** DIIS iteration number    8
 RDSUPM called. NFMAT, ISYMDM(1:NFMAT)                     1
                     1

 ITDIIS, energy, error norm, change in energy, scr.thr., difden:
@ DIIS iter.   8    -361.109213846        3.21699D-04   -3.78D-07  -20    F

 (DIIS_RED) Control Parameters C2DIIS =         F NEVC =    8


 (DIIS_RED) B matrix:

               Column   1     Column   2     Column   3     Column   4     Column   5     Column   6
       1      13.79049046
       2       1.11773823     1.21033392
       3       0.85193736    -0.04522454     0.14903739
       4       0.09112356     0.05312541     0.00979870     0.00620483
       5       0.01619462     0.00571770     0.00443632     0.00084938     0.00070182
       6      -0.00445722    -0.00017363     0.00035303     0.00045910     0.00000605     0.00009512
       7       0.00028736     0.00015993     0.00001379     0.00001003     0.00003540     0.00000043
       8       0.00013797    -0.00004364     0.00002113    -0.00000052     0.00000133     0.00000066

               Column   7     Column   8
       7       0.00000341
       8       0.00000027     0.00000010
    ==== End of matrix output ====

 DIIS C vector; C2DIIS = F, LAMBDA = -7.51D-08
   -0.000010   -0.000086   -0.000318    0.002764    0.002135   -0.019346   -0.086462    1.101322
* Read MO coefficients from SIRIUS.RST with label "NEWORB  " and header info: 20Dec18  DIIS   8
      Virial theorem: -V/T =      2.004702
@    MULPOP   N      -0.82; H       0.42; H       0.39; H       0.40; H       0.34; O      -0.84; O      -0.85; O      -0.80; O      -0.81; H       0.49; 
@             H       0.43; H       0.46; H       0.48; H       0.43; H       0.42; H       0.40; H       0.47; 

 DIIS Fock eigenvalues in symmetry 1
      -20.68156      -20.66330      -20.65765      -20.63830      -15.70465
       -1.45359       -1.41770       -1.41398       -1.38524       -1.32218
       -0.81296       -0.80581       -0.80139       -0.79707       -0.77567
       -0.76048       -0.73300       -0.70599       -0.65952       -0.64216
       -0.63466       -0.61938       -0.59863       -0.59343       -0.56852
       -0.00652        0.02465        0.03556        0.05459        0.14095
        0.14854        0.15196        0.16442        0.20739        0.22419
        0.24591        0.24897        0.25755        0.27927        0.28864
        0.29541        0.31243        0.32269        0.34465        0.36411
        0.53758        0.54614        0.56683        0.78170        0.85387
        0.86175        0.90057        0.92268        0.93244        0.97760
        0.99352        1.00130        1.00957        1.03064        1.05043
        1.06536        1.08789        1.09870        1.12620        1.14427
        1.15604        1.19036        1.21960        1.22493        1.26917
        1.27705        1.30937        1.32427        1.34279        1.37014
        1.51893        1.52655        1.58215        1.61095        1.63675
        1.66326        1.67955        1.70497        1.71014        1.73173
        1.73803        1.74876        1.75793        1.76043        1.77670
        1.79379        1.84897        1.88360        1.92142        2.12648
        2.15979        2.21234        2.25398        2.36601        2.37473
        2.41142        2.43080        2.43700        2.45387        2.47975
        2.48978        2.50865        2.59424        2.62993        2.63385
        2.68171        2.71933        2.72736        2.73334        2.81171
        2.81766        2.83395        2.83730        2.84537        2.85865
        2.88625        2.88915        2.91896        2.95616        2.98229
        2.98538        3.15673        3.19894        3.20943        3.22563
        3.26108        3.34160        3.38874        3.41334        3.62172
        3.64720        3.65642        3.73835        3.74647        3.78181
        3.82234        3.83707        4.99313        5.15486        5.19874
       36.94522
 Time used in FCKEIG, thr_jaco:   6.85D-02  1.70D-02  1.46D-08
 CPU and wall times used in FCKEIG, THR_FCKEIG:   6.86D-02  1.70D-02  3.22D-06
 -----------------------------------------------------------------------------

 *** DIIS iteration number    9
 RDSUPM called. NFMAT, ISYMDM(1:NFMAT)                     1
                     1

 ITDIIS, energy, error norm, change in energy, scr.thr., difden:
@ DIIS iter.   9    -361.109213858        1.27423D-04   -1.21D-08  -20    F

 (DIIS_RED) Control Parameters C2DIIS =         F NEVC =    8


 (DIIS_RED) B matrix:

               Column   1     Column   2     Column   3     Column   4     Column   5     Column   6
       1       0.00000002
       2       0.00000269     1.21033392
       3      -0.00000234    -0.04522454     0.14903739
       4      -0.00000002     0.05312541     0.00979870     0.00620483
       5       0.00000005     0.00571770     0.00443632     0.00084938     0.00070182
       6       0.00000004    -0.00017363     0.00035303     0.00045910     0.00000605     0.00009512
       7       0.00000007     0.00015993     0.00001379     0.00001003     0.00003540     0.00000043
       8       0.00000001    -0.00004364     0.00002113    -0.00000052     0.00000133     0.00000066

               Column   7     Column   8
       7       0.00000341
       8       0.00000027     0.00000010
    ==== End of matrix output ====

 DIIS C vector; C2DIIS = F, LAMBDA = -9.11D-09
    0.858204    0.000018   -0.000129   -0.000701    0.005567    0.002123   -0.090021    0.224938
* Read MO coefficients from SIRIUS.RST with label "NEWORB  " and header info: 20Dec18  DIIS   9
      Virial theorem: -V/T =      2.004702
@    MULPOP   N      -0.82; H       0.42; H       0.39; H       0.40; H       0.34; O      -0.84; O      -0.85; O      -0.80; O      -0.81; H       0.49; 
@             H       0.43; H       0.46; H       0.48; H       0.43; H       0.42; H       0.40; H       0.47; 

 DIIS Fock eigenvalues in symmetry 1
      -20.68161      -20.66331      -20.65767      -20.63825      -15.70465
       -1.45360       -1.41771       -1.41399       -1.38522       -1.32218
       -0.81296       -0.80581       -0.80139       -0.79707       -0.77567
       -0.76048       -0.73299       -0.70601       -0.65953       -0.64216
       -0.63466       -0.61940       -0.59863       -0.59343       -0.56851
       -0.00652        0.02465        0.03556        0.05459        0.14095
        0.14854        0.15196        0.16442        0.20739        0.22419
        0.24590        0.24897        0.25754        0.27927        0.28864
        0.29541        0.31243        0.32269        0.34464        0.36411
        0.53758        0.54614        0.56683        0.78169        0.85387
        0.86175        0.90057        0.92268        0.93244        0.97759
        0.99352        1.00129        1.00958        1.03063        1.05043
        1.06536        1.08788        1.09870        1.12620        1.14426
        1.15605        1.19036        1.21960        1.22493        1.26917
        1.27705        1.30937        1.32427        1.34279        1.37015
        1.51893        1.52655        1.58215        1.61095        1.63675
        1.66325        1.67955        1.70496        1.71014        1.73173
        1.73803        1.74876        1.75793        1.76043        1.77669
        1.79378        1.84897        1.88359        1.92141        2.12648
        2.15979        2.21234        2.25398        2.36601        2.37474
        2.41143        2.43080        2.43700        2.45387        2.47975
        2.48978        2.50865        2.59424        2.62994        2.63385
        2.68171        2.71933        2.72735        2.73334        2.81171
        2.81766        2.83395        2.83730        2.84537        2.85865
        2.88624        2.88915        2.91896        2.95616        2.98229
        2.98538        3.15673        3.19894        3.20943        3.22563
        3.26108        3.34160        3.38874        3.41334        3.62172
        3.64720        3.65641        3.73834        3.74647        3.78181
        3.82235        3.83707        4.99313        5.15486        5.19874
       36.94522
 Time used in FCKEIG, thr_jaco:   6.74D-02  1.70D-02  5.79D-09
 CPU and wall times used in FCKEIG, THR_FCKEIG:   6.82D-02  1.70D-02  1.27D-06
 -----------------------------------------------------------------------------

 *** DIIS iteration number   10
 RDSUPM called. NFMAT, ISYMDM(1:NFMAT)                     1
                     1

 ITDIIS, energy, error norm, change in energy, scr.thr., difden:
@ DIIS iter.  10    -361.109213860        3.67712D-05   -1.28D-09  -20    F

 (DIIS_RED) Control Parameters C2DIIS =         F NEVC =    8


 (DIIS_RED) B matrix:

               Column   1     Column   2     Column   3     Column   4     Column   5     Column   6
       1       0.00000002
       2      -0.00000000     0.00000000
       3      -0.00000234    -0.00000084     0.14903739
       4      -0.00000002     0.00000008     0.00979870     0.00620483
       5       0.00000005    -0.00000005     0.00443632     0.00084938     0.00070182
       6       0.00000004     0.00000003     0.00035303     0.00045910     0.00000605     0.00009512
       7       0.00000007     0.00000001     0.00001379     0.00001003     0.00003540     0.00000043
       8       0.00000001     0.00000001     0.00002113    -0.00000052     0.00000133     0.00000066

               Column   7     Column   8
       7       0.00000341
       8       0.00000027     0.00000010
    ==== End of matrix output ====

 DIIS C vector; C2DIIS = F, LAMBDA = -3.79D-10
    0.039492    1.078403    0.000037   -0.000153   -0.000196    0.001113    0.009013   -0.127709
* Read MO coefficients from SIRIUS.RST with label "NEWORB  " and header info: 20Dec18  DIIS  10
      Virial theorem: -V/T =      2.004702
@    MULPOP   N      -0.82; H       0.42; H       0.39; H       0.40; H       0.34; O      -0.84; O      -0.85; O      -0.80; O      -0.81; H       0.49; 
@             H       0.43; H       0.46; H       0.48; H       0.43; H       0.42; H       0.40; H       0.47; 

 DIIS Fock eigenvalues in symmetry 1
      -20.68160      -20.66330      -20.65766      -20.63826      -15.70465
       -1.45360       -1.41771       -1.41399       -1.38522       -1.32218
       -0.81296       -0.80581       -0.80139       -0.79707       -0.77567
       -0.76048       -0.73299       -0.70600       -0.65953       -0.64216
       -0.63466       -0.61939       -0.59863       -0.59343       -0.56851
       -0.00652        0.02465        0.03556        0.05459        0.14095
        0.14854        0.15196        0.16442        0.20739        0.22419
        0.24590        0.24897        0.25754        0.27927        0.28864
        0.29541        0.31243        0.32269        0.34464        0.36411
        0.53758        0.54614        0.56683        0.78169        0.85387
        0.86175        0.90057        0.92268        0.93244        0.97759
        0.99352        1.00129        1.00958        1.03063        1.05043
        1.06536        1.08788        1.09870        1.12620        1.14426
        1.15605        1.19036        1.21960        1.22493        1.26917
        1.27705        1.30937        1.32427        1.34279        1.37015
        1.51893        1.52655        1.58215        1.61095        1.63675
        1.66325        1.67955        1.70496        1.71014        1.73173
        1.73803        1.74876        1.75793        1.76043        1.77670
        1.79378        1.84897        1.88359        1.92141        2.12648
        2.15979        2.21234        2.25398        2.36601        2.37474
        2.41143        2.43080        2.43700        2.45387        2.47975
        2.48978        2.50865        2.59424        2.62994        2.63385
        2.68171        2.71933        2.72735        2.73334        2.81171
        2.81766        2.83395        2.83730        2.84537        2.85865
        2.88624        2.88915        2.91896        2.95616        2.98229
        2.98538        3.15673        3.19894        3.20943        3.22563
        3.26108        3.34160        3.38874        3.41334        3.62172
        3.64720        3.65641        3.73835        3.74647        3.78181
        3.82235        3.83707        4.99313        5.15486        5.19874
       36.94522
 Time used in FCKEIG, thr_jaco:   6.81D-02  1.70D-02  1.67D-09
 CPU and wall times used in FCKEIG, THR_FCKEIG:   6.82D-02  1.70D-02  3.68D-07
 -----------------------------------------------------------------------------

 *** DIIS iteration number   11
 RDSUPM called. NFMAT, ISYMDM(1:NFMAT)                     1
                     1

 ITDIIS, energy, error norm, change in energy, scr.thr., difden:
@ DIIS iter.  11    -361.109213860        6.36141D-06   -1.49D-10  -20    F

 (DIIS_RED) Control Parameters C2DIIS =         F NEVC =    8


 (DIIS_RED) B matrix:

               Column   1     Column   2     Column   3     Column   4     Column   5     Column   6
       1       0.00000002
       2      -0.00000000     0.00000000
       3       0.00000000     0.00000000     0.00000000
       4      -0.00000002     0.00000008     0.00000003     0.00620483
       5       0.00000005    -0.00000005    -0.00000003     0.00084938     0.00070182
       6       0.00000004     0.00000003     0.00000001     0.00045910     0.00000605     0.00009512
       7       0.00000007     0.00000001    -0.00000000     0.00001003     0.00003540     0.00000043
       8       0.00000001     0.00000001     0.00000000    -0.00000052     0.00000133     0.00000066

               Column   7     Column   8
       7       0.00000341
       8       0.00000027     0.00000010
    ==== End of matrix output ====

 DIIS C vector; C2DIIS = F, LAMBDA = -1.90D-11
   -0.040606   -0.081115    1.117642    0.000029   -0.000131   -0.000279    0.002922    0.001537
* Read MO coefficients from SIRIUS.RST with label "NEWORB  " and header info: 20Dec18  DIIS  11
      Virial theorem: -V/T =      2.004702
@    MULPOP   N      -0.82; H       0.42; H       0.39; H       0.40; H       0.34; O      -0.84; O      -0.85; O      -0.80; O      -0.81; H       0.49; 
@             H       0.43; H       0.46; H       0.48; H       0.43; H       0.42; H       0.40; H       0.47; 

 DIIS Fock eigenvalues in symmetry 1
      -20.68160      -20.66330      -20.65766      -20.63826      -15.70465
       -1.45360       -1.41771       -1.41399       -1.38522       -1.32218
       -0.81296       -0.80581       -0.80139       -0.79707       -0.77567
       -0.76048       -0.73299       -0.70600       -0.65953       -0.64217
       -0.63466       -0.61939       -0.59863       -0.59343       -0.56851
       -0.00652        0.02465        0.03556        0.05459        0.14095
        0.14854        0.15196        0.16442        0.20739        0.22419
        0.24590        0.24897        0.25754        0.27927        0.28864
        0.29541        0.31243        0.32269        0.34464        0.36411
        0.53758        0.54614        0.56683        0.78169        0.85387
        0.86175        0.90057        0.92268        0.93244        0.97759
        0.99352        1.00129        1.00958        1.03063        1.05043
        1.06536        1.08788        1.09870        1.12620        1.14426
        1.15605        1.19036        1.21960        1.22493        1.26917
        1.27705        1.30937        1.32427        1.34279        1.37015
        1.51893        1.52655        1.58215        1.61095        1.63675
        1.66325        1.67955        1.70496        1.71014        1.73173
        1.73803        1.74876        1.75793        1.76043        1.77669
        1.79378        1.84897        1.88359        1.92141        2.12648
        2.15979        2.21234        2.25398        2.36601        2.37474
        2.41143        2.43080        2.43700        2.45387        2.47975
        2.48978        2.50865        2.59424        2.62994        2.63385
        2.68171        2.71933        2.72735        2.73334        2.81171
        2.81766        2.83395        2.83730        2.84537        2.85865
        2.88624        2.88915        2.91896        2.95616        2.98229
        2.98538        3.15673        3.19894        3.20943        3.22563
        3.26108        3.34160        3.38874        3.41334        3.62172
        3.64720        3.65641        3.73835        3.74647        3.78181
        3.82235        3.83707        4.99313        5.15486        5.19874
       36.94522
 Time used in FCKEIG, thr_jaco:   6.40D-02  1.80D-02  3.64D-10
 CPU and wall times used in FCKEIG, THR_FCKEIG:   6.41D-02  1.80D-02  8.00D-08
 -----------------------------------------------------------------------------

 *** DIIS iteration number   12
 RDSUPM called. NFMAT, ISYMDM(1:NFMAT)                     1
                     1

 ITDIIS, energy, error norm, change in energy, scr.thr., difden:
@ DIIS iter.  12    -361.109213860        1.60633D-06   -3.52D-12  -20    F

 (DIIS_RED) Control Parameters C2DIIS =         F NEVC =    8


 (DIIS_RED) B matrix:

               Column   1     Column   2     Column   3     Column   4     Column   5     Column   6
       1     1.623655D-08
       2    -2.153542D-10   1.352120D-09
       3     4.062860D-10   7.364814D-11   4.046758D-11
       4     2.205478D-11   1.830199D-11   4.840046D-12   2.580309D-12
       5     4.844757D-08  -5.080705D-08  -3.459444D-08  -3.214584D-09   7.018200D-04
       6     4.059792D-08   2.922943D-08   1.396772D-08   1.510892D-09   6.051721D-06   9.512027D-05
       7     7.431495D-08   7.883890D-09  -1.996882D-09  -2.983669D-10   3.539753D-05   4.302777D-07
       8     5.099302D-09   8.931899D-09   3.399683D-10   5.222172D-11   1.330855D-06   6.583732D-07

               Column   7     Column   8
       7     3.412607D-06
       8     2.688436D-07   1.034902D-07
    ==== End of matrix output ====

 DIIS C vector; C2DIIS = F, LAMBDA = -2.18D-12
   -0.002520   -0.021695   -0.007739    1.030532   -0.000008   -0.000017    0.000181    0.001266
* Read MO coefficients from SIRIUS.RST with label "NEWORB  " and header info: 20Dec18  DIIS  12
      Virial theorem: -V/T =      2.004702
@    MULPOP   N      -0.82; H       0.42; H       0.39; H       0.40; H       0.34; O      -0.84; O      -0.85; O      -0.80; O      -0.81; H       0.49; 
@             H       0.43; H       0.46; H       0.48; H       0.43; H       0.42; H       0.40; H       0.47; 

 DIIS Fock eigenvalues in symmetry 1
      -20.68160      -20.66330      -20.65766      -20.63826      -15.70465
       -1.45360       -1.41771       -1.41399       -1.38522       -1.32218
       -0.81296       -0.80581       -0.80139       -0.79707       -0.77567
       -0.76048       -0.73299       -0.70600       -0.65953       -0.64217
       -0.63466       -0.61939       -0.59863       -0.59343       -0.56851
       -0.00652        0.02465        0.03556        0.05459        0.14095
        0.14854        0.15196        0.16442        0.20739        0.22419
        0.24590        0.24897        0.25754        0.27927        0.28864
        0.29541        0.31243        0.32269        0.34464        0.36411
        0.53758        0.54614        0.56683        0.78169        0.85387
        0.86175        0.90057        0.92268        0.93244        0.97759
        0.99352        1.00129        1.00958        1.03063        1.05043
        1.06536        1.08788        1.09870        1.12620        1.14426
        1.15605        1.19036        1.21960        1.22493        1.26917
        1.27705        1.30937        1.32427        1.34279        1.37015
        1.51893        1.52655        1.58215        1.61095        1.63675
        1.66325        1.67955        1.70496        1.71014        1.73173
        1.73803        1.74876        1.75793        1.76043        1.77669
        1.79378        1.84897        1.88359        1.92141        2.12648
        2.15979        2.21234        2.25398        2.36601        2.37474
        2.41143        2.43080        2.43700        2.45387        2.47975
        2.48978        2.50865        2.59424        2.62994        2.63385
        2.68171        2.71933        2.72735        2.73334        2.81171
        2.81766        2.83395        2.83730        2.84537        2.85865
        2.88624        2.88915        2.91896        2.95616        2.98229
        2.98538        3.15673        3.19894        3.20943        3.22563
        3.26108        3.34160        3.38874        3.41334        3.62172
        3.64720        3.65641        3.73835        3.74647        3.78181
        3.82235        3.83707        4.99313        5.15486        5.19874
       36.94522
 Time used in FCKEIG, thr_jaco:   1.34D-01  3.40D-02  3.64D-10
 CPU and wall times used in FCKEIG, THR_FCKEIG:   1.34D-01  3.40D-02  8.00D-08
 -----------------------------------------------------------------------------

 *** DIIS iteration number   13
 RDSUPM called. NFMAT, ISYMDM(1:NFMAT)                     1
                     1

 ITDIIS, energy, error norm, change in energy, scr.thr., difden:
@ DIIS iter.  13    -361.109213860        6.99307D-07   -5.68D-14  -20    F

 (DIIS_RED) Control Parameters C2DIIS =         F NEVC =    8


 (DIIS_RED) B matrix:

               Column   1     Column   2     Column   3     Column   4     Column   5     Column   6
       1     1.623655D-08
       2    -2.153542D-10   1.352120D-09
       3     4.062860D-10   7.364814D-11   4.046758D-11
       4     2.205478D-11   1.830199D-11   4.840046D-12   2.580309D-12
       5     8.654616D-13   3.477771D-12   2.020405D-12   4.917992D-14   4.890307D-13
       6     4.059792D-08   2.922943D-08   1.396772D-08   1.510892D-09   2.252636D-10   9.512027D-05
       7     7.431495D-08   7.883890D-09  -1.996882D-09  -2.983669D-10  -3.150065D-11   4.302777D-07
       8     5.099302D-09   8.931899D-09   3.399683D-10   5.222172D-11  -1.272301D-11   6.583732D-07

               Column   7     Column   8
       7     3.412607D-06
       8     2.688436D-07   1.034902D-07
    ==== End of matrix output ====

 DIIS C vector; C2DIIS = F, LAMBDA = -2.19D-13
    0.002276   -0.005936   -0.094396    0.227637    0.869490    0.000002   -0.000148    0.001074
* Read MO coefficients from SIRIUS.RST with label "NEWORB  " and header info: 20Dec18  DIIS  13
      Virial theorem: -V/T =      2.004702
@    MULPOP   N      -0.82; H       0.42; H       0.39; H       0.40; H       0.34; O      -0.84; O      -0.85; O      -0.80; O      -0.81; H       0.49; 
[...]
       3      -0.22766134     0.06875712     0.97130982
    ==== End of matrix output ====


 CCSD  Transition strength matrix for state nr. 13 of symmetry 1
 CCSD  excitation energy:15.16716453

 Gauge: length

               Column   1     Column   2     Column   3
       1     1.037880D-05  -7.993442D-06  -1.054234D-05
       2    -7.993442D-06   6.148895D-06   8.122089D-06
       3    -1.054234D-05   8.122089D-06   1.070747D-05
    ==== End of matrix output ====

 Principal values of diagonalized transition strength matrix:

             a.u.               
 1      -0.00000001
 2       0.00000000
 3       0.00002724

 Principal axis of diagonalized transition strength matrix:


               Column   1     Column   2     Column   3
       1       0.14746366     0.77283780    -0.61723270
       2       0.85266199     0.21691253     0.47530673
       3      -0.50122051     0.59638133     0.62698270
    ==== End of matrix output ====


 CCSD   oscillator strength matrix for state nr. 13 of symmetry 1
 CCSD  excitation energy:15.16716453


               Column   1     Column   2     Column   3
       1     1.049447D-04  -8.082524D-05  -1.065983D-04
       2    -8.082524D-05   6.217420D-05   8.212604D-05
       3    -1.065983D-04   8.212604D-05   1.082680D-04
    ==== End of matrix output ====

 Principal values of diagonalized oscillator strength matrix:

             a.u.               
 1      -0.00000008
 2      -0.00000000
 3       0.00027547

 Principal axis of diagonalized oscillator strength matrix:


               Column   1     Column   2     Column   3
       1       0.14746366     0.77283780    -0.61723270
       2       0.85266199     0.21691253     0.47530673
       3      -0.50122051     0.59638133     0.62698270
    ==== End of matrix output ====


 CCSD  Transition strength matrix for state nr. 14 of symmetry 1
 CCSD  excitation energy:15.18430669

 Gauge: length

               Column   1     Column   2     Column   3
       1     3.865050D-06   4.541329D-06   8.067670D-06
       2     4.541329D-06   5.318381D-06   9.474264D-06
       3     8.067670D-06   9.474264D-06   1.683852D-05
    ==== End of matrix output ====

 Principal values of diagonalized transition strength matrix:

             a.u.               
 1      -0.00000001
 2      -0.00000000
 3       0.00002603

 Principal axis of diagonalized transition strength matrix:


               Column   1     Column   2     Column   3
       1      -0.33527186     0.85969612     0.38537690
       2       0.88067666     0.14067998     0.45234695
       3      -0.33466610    -0.49105164     0.80428035
    ==== End of matrix output ====


 CCSD   oscillator strength matrix for state nr. 14 of symmetry 1
 CCSD  excitation energy:15.18430669


               Column   1     Column   2     Column   3
       1     3.912540D-05   4.597129D-05   8.166799D-05
       2     4.597129D-05   5.383729D-05   9.590675D-05
       3     8.166799D-05   9.590675D-05   1.704542D-04
    ==== End of matrix output ====

 Principal values of diagonalized oscillator strength matrix:

             a.u.               
 1      -0.00000011
 2      -0.00000000
 3       0.00026353

 Principal axis of diagonalized oscillator strength matrix:


               Column   1     Column   2     Column   3
       1      -0.33527186     0.85969612     0.38537690
       2       0.88067666     0.14067998     0.45234695
       3      -0.33466610    -0.49105164     0.80428035
    ==== End of matrix output ====


 CCSD  Transition strength matrix for state nr. 15 of symmetry 1
 CCSD  excitation energy:15.19848732

 Gauge: length

               Column   1     Column   2     Column   3
       1     5.345828D-05   1.635634D-05  -2.048113D-05
       2     1.635634D-05   5.002384D-06  -6.269760D-06
       3    -2.048113D-05  -6.269760D-06   7.841692D-06
    ==== End of matrix output ====

 Principal values of diagonalized transition strength matrix:

             a.u.               
 1      -0.00000001
 2       0.00000000
 3       0.00006631

 Principal axis of diagonalized transition strength matrix:


               Column   1     Column   2     Column   3
       1       0.12921505    -0.42084097     0.89788437
       2       0.58249679     0.76499764     0.27472914
       3       0.80249670    -0.48751563    -0.34398772
    ==== End of matrix output ====


 CCSD   oscillator strength matrix for state nr. 15 of symmetry 1
 CCSD  excitation energy:15.19848732


               Column   1     Column   2     Column   3
       1     5.416566D-04   1.657278D-04  -2.075215D-04
       2     1.657278D-04   5.068578D-05  -6.352724D-05
       3    -2.075215D-04  -6.352724D-05   7.945457D-05
    ==== End of matrix output ====

 Principal values of diagonalized oscillator strength matrix:

             a.u.               
 1      -0.00000007
 2       0.00000000
 3       0.00067187

 Principal axis of diagonalized oscillator strength matrix:


               Column   1     Column   2     Column   3
       1       0.12921505    -0.42084097     0.89788437
       2       0.58249679     0.76499764     0.27472914
       3       0.80249670    -0.48751563    -0.34398772
    ==== End of matrix output ====

  Total time for    135 linear response residues:      15.20 seconds.
  

 *******************************************************************************
 *******************************************************************************
 *                                                                             *
 *                                                                             *
 *                   SUMMARY OF COUPLED CLUSTER CALCULATION                    *
 *                                                                             *
 *                                                                             *
 *******************************************************************************
 *******************************************************************************

                                                                                
                                                                                
            Total SCF   energy:                  -361.1092138597                
            Total MP2   energy:                  -362.1342563448                
            Total CCSD  energy:                  -362.1810753531                
                                                                                
                                                                                
            Total SCF   energy:                  -361.1092138597                
            Total RSTAR energy:                  -362.1810753531                
            Total CCSD  energy:                  -362.1811116040                
                                                                                
                                                                                
            Total SCF   energy:                  -361.1092138597                
            Total RSTAR energy:                  -362.1811116040                
            Total CCSD  energy:                  -362.1811132089                
                                                                                
                                                                                
            Total SCF   energy:                  -361.1092138597                
            Total RSTAR energy:                  -362.1811132089                
            Total CCSD  energy:                  -362.1811132924                
                                                                                
                                                                                
            Total SCF   energy:                  -361.1092138597                
            Total RSTAR energy:                  -362.1811132924                
            Total CCSD  energy:                  -362.1811132971                
            CCSD Total  energy:                  -362.5969189522                
            CCSD E(PE-CC)     :                    -0.4117374463                
                                                                                
                                                                                
 +=============================================================================+
 |  sym. | Exci.  |        CCSD       Excitation energies            | ||T1||  |
 |(spin, |        +------------------------------------------------------------+
 | spat) |        |     Hartree    |       eV.      |     cm-1       |    %    |
 +=============================================================================+
 | ^1A   |    1   |    14.9025851  |     405.51997  |   3270739.344  |  88.50  |
 | ^1A   |    2   |    14.9508145  |     406.83236  |   3281324.467  |  88.75  |
 | ^1A   |    3   |    14.9692769  |     407.33474  |   3285376.490  |  88.50  |
 | ^1A   |    4   |    14.9874292  |     407.82869  |   3289360.458  |  88.56  |
 | ^1A   |    5   |    15.0003567  |     408.18047  |   3292197.729  |  88.21  |
 | ^1A   |    6   |    15.0149110  |     408.57651  |   3295392.036  |  88.26  |
 | ^1A   |    7   |    15.0229426  |     408.79506  |   3297154.753  |  88.28  |
 | ^1A   |    8   |    15.0378266  |     409.20008  |   3300421.420  |  88.45  |
 | ^1A   |    9   |    15.0729196  |     410.15501  |   3308123.434  |  88.68  |
 | ^1A   |   10   |    15.0941331  |     410.73225  |   3312779.264  |  88.98  |
 | ^1A   |   11   |    15.1034673  |     410.98625  |   3314827.886  |  88.72  |
 | ^1A   |   12   |    15.1501060  |     412.25536  |   3325063.900  |  87.85  |
 | ^1A   |   13   |    15.1671645  |     412.71954  |   3328807.814  |  88.02  |
 | ^1A   |   14   |    15.1843067  |     413.18600  |   3332570.082  |  87.63  |
 | ^1A   |   15   |    15.1984873  |     413.57188  |   3335682.370  |  87.60  |
 +=============================================================================+
                                                                                
                                                                                
     Total energies in Hartree:                                                 
             1 ^1A       -347.2825963922                                        
             2 ^1A       -347.2343670218                                        
             3 ^1A       -347.2159046480                                        
             4 ^1A       -347.1977523546                                        
             5 ^1A       -347.1848247962                                        
             6 ^1A       -347.1702704606                                        
             7 ^1A       -347.1622389315                                        
             8 ^1A       -347.1473549034                                        
             9 ^1A       -347.1122619459                                        
            10 ^1A       -347.0910484227                                        
            11 ^1A       -347.0817142122                                        
            12 ^1A       -347.0350755027                                        
            13 ^1A       -347.0180169711                                        
            14 ^1A       -347.0008748191                                        
            15 ^1A       -346.9866941897                                        
                                                                                
                                                                                
 +=============================================================================+
 |  sym. | Exci.  |        CCSD       Length   Gauge Oscillator Strength       |
 |(spin, |        +------------------------------------------------------------+
 | spat) |        | Dipole Strength(a.u.) | Oscillator strength  | Direction   |
 +=============================================================================+
 | ^1A   |    1   |        0.0002322      |      0.0023069       |  (Y,Z)      |
 | ^1A   |    2   |        0.0022316      |      0.0222425       |  (Y,Z)      |
 | ^1A   |    3   |        0.0015468      |      0.0154361       |  (Y,Z)      |
 | ^1A   |    4   |        0.0012844      |      0.0128329       |  (Y,Z)      |
 | ^1A   |    5   |        0.0005327      |      0.0053273       |  (Y,Z)      |
 | ^1A   |    6   |        0.0010711      |      0.0107214       |  (Y,Z)      |
 | ^1A   |    7   |        0.0008955      |      0.0089690       |  (Y,Z)      |
 | ^1A   |    8   |        0.0003293      |      0.0033013       |  (Y,Z)      |
 | ^1A   |    9   |        0.0015667      |      0.0157434       |  (Y,Z)      |
 | ^1A   |   10   |        0.0032089      |      0.0322902       |  (Y,Z)      |
 | ^1A   |   11   |        0.0020497      |      0.0206381       |  (Y,Z)      |
 | ^1A   |   12   |        0.0000620      |      0.0006266       |  (Y,Z)      |
 | ^1A   |   13   |        0.0000272      |      0.0002754       |  (Y,Z)      |
 | ^1A   |   14   |        0.0000260      |      0.0002634       |  (Y,Z)      |
 | ^1A   |   15   |        0.0000663      |      0.0006718       |  (Y,Z)      |
 +=============================================================================+

  1 a.u. =        27.21138 eV.  
  1 a.u. =    219474.62934 cm-1.
  

 *******************************************************************************
 *******************************************************************************
 *                                                                             *
 *                                                                             *
 *                      END OF COUPLED CLUSTER CALCULATION                     *
 *                                                                             *
 *                                                                             *
 *******************************************************************************
 *******************************************************************************


 CPU and wall time for CC :  146755.901   50415.288

 
     Date and time (Linux)  : Thu Dec 20 19:49:42 2018
     Host name              : s71p34.deic.sdu.dk                      


                      .-------------------------------------.
                      | End of Coupled Cluster Section (CC) |
                      `-------------------------------------'

  Total CPU  time used in DALTON:  40 hours 49 minutes 38 seconds
  Total wall time used in DALTON:  14 hours  2 minutes  3 seconds

 
     Date and time (Linux)  : Thu Dec 20 19:49:42 2018
     Host name              : s71p34.deic.sdu.dk                      
  

 +---------------------------------------------------------+ 
 | List of selected calculated molecular properties (a.u.) | 
 +---------------------------------------------------------+ 

  Properties are read from unit number                      4

 CCSD       properties :
 #  1 1 PE-CCSD  Ground state Energy =    -362.5969189522
 #  2 1 E(PE-CC) Ground state Energy =      -0.4117374463
 #  3 1 Sy: 1 Sp: 1 Exc:  1 E_tot:   -347.2825963922 w:     14.9025851137 E_grs:   -362.1851815059
 #  4 1 Exctot   Excited state Energy =    -347.2825963922
 #  5 1 Sy: 1 Sp: 1 Exc:  2 E_tot:   -347.2343670218 w:     14.9508144841 E_grs:   -362.1851815059
 #  6 1 Exctot   Excited state Energy =    -347.2343670218
 #  7 1 Sy: 1 Sp: 1 Exc:  3 E_tot:   -347.2159046480 w:     14.9692768580 E_grs:   -362.1851815059
 #  8 1 Exctot   Excited state Energy =    -347.2159046480
 #  9 1 Sy: 1 Sp: 1 Exc:  4 E_tot:   -347.1977523546 w:     14.9874291514 E_grs:   -362.1851815059
 # 10 1 Exctot   Excited state Energy =    -347.1977523546
 # 11 1 Sy: 1 Sp: 1 Exc:  5 E_tot:   -347.1848247962 w:     15.0003567098 E_grs:   -362.1851815059
 # 12 1 Exctot   Excited state Energy =    -347.1848247962
 # 13 1 Sy: 1 Sp: 1 Exc:  6 E_tot:   -347.1702704606 w:     15.0149110454 E_grs:   -362.1851815059
 # 14 1 Exctot   Excited state Energy =    -347.1702704606
 # 15 1 Sy: 1 Sp: 1 Exc:  7 E_tot:   -347.1622389315 w:     15.0229425745 E_grs:   -362.1851815059
 # 16 1 Exctot   Excited state Energy =    -347.1622389315
 # 17 1 Sy: 1 Sp: 1 Exc:  8 E_tot:   -347.1473549034 w:     15.0378266026 E_grs:   -362.1851815059
 # 18 1 Exctot   Excited state Energy =    -347.1473549034
 # 19 1 Sy: 1 Sp: 1 Exc:  9 E_tot:   -347.1122619459 w:     15.0729195601 E_grs:   -362.1851815059
 # 20 1 Exctot   Excited state Energy =    -347.1122619459
 # 21 1 Sy: 1 Sp: 1 Exc: 10 E_tot:   -347.0910484227 w:     15.0941330833 E_grs:   -362.1851815059
 # 22 1 Exctot   Excited state Energy =    -347.0910484227
 # 23 1 Sy: 1 Sp: 1 Exc: 11 E_tot:   -347.0817142122 w:     15.1034672938 E_grs:   -362.1851815059
 # 24 1 Exctot   Excited state Energy =    -347.0817142122
 # 25 1 Sy: 1 Sp: 1 Exc: 12 E_tot:   -347.0350755027 w:     15.1501060032 E_grs:   -362.1851815059
 # 26 1 Exctot   Excited state Energy =    -347.0350755027
 # 27 1 Sy: 1 Sp: 1 Exc: 13 E_tot:   -347.0180169711 w:     15.1671645348 E_grs:   -362.1851815059
 # 28 1 Exctot   Excited state Energy =    -347.0180169711
 # 29 1 Sy: 1 Sp: 1 Exc: 14 E_tot:   -347.0008748191 w:     15.1843066868 E_grs:   -362.1851815059
 # 30 1 Exctot   Excited state Energy =    -347.0008748191
 # 31 1 Sy: 1 Sp: 1 Exc: 15 E_tot:   -346.9866941897 w:     15.1984873163 E_grs:   -362.1851815059
 # 32 1 Exctot   Excited state Energy =    -346.9866941897
 # 33 1 |<O|XDIPLEN |i(14.902585)>| =     0.00492790
 # 35 1 |<O|XDIPLEN |i(14.950814)>| =     0.00029472
 # 37 1 |<O|XDIPLEN |i(14.969277)>| =     0.03200559
 # 39 1 |<O|XDIPLEN |i(14.987429)>| =     0.02351856
 # 41 1 |<O|XDIPLEN |i(15.000357)>| =     0.00076560
 # 43 1 |<O|XDIPLEN |i(15.014911)>| =     0.02969760
 # 45 1 |<O|XDIPLEN |i(15.022943)>| =     0.00498347
 # 47 1 |<O|XDIPLEN |i(15.037827)>| =     0.01182287
 # 49 1 |<O|XDIPLEN |i(15.072920)>| =     0.00345625
 # 51 1 |<O|XDIPLEN |i(15.094133)>| =     0.04072895
 # 53 1 |<O|XDIPLEN |i(15.103467)>| =     0.02738297
 # 55 1 |<O|XDIPLEN |i(15.150106)>| =     0.00186463
 # 57 1 |<O|XDIPLEN |i(15.167165)>| =     0.00322162
 # 59 1 |<O|XDIPLEN |i(15.184307)>| =     0.00196597
 # 61 1 |<O|XDIPLEN |i(15.198487)>| =     0.00731152
 # 63 1 |<O|YDIPLEN |i(14.902585)>| =     0.00037776
 # 65 1 |<O|YDIPLEN |i(14.950814)>| =     0.03032093
 # 67 1 |<O|YDIPLEN |i(14.969277)>| =     0.00284965
 # 69 1 |<O|YDIPLEN |i(14.987429)>| =     0.02085331
 # 71 1 |<O|YDIPLEN |i(15.000357)>| =     0.01985905
 # 73 1 |<O|YDIPLEN |i(15.014911)>| =     0.01133270
 # 75 1 |<O|YDIPLEN |i(15.022943)>| =     0.02340680
 # 77 1 |<O|YDIPLEN |i(15.037827)>| =     0.01347594
 # 79 1 |<O|YDIPLEN |i(15.072920)>| =     0.02167253
 # 81 1 |<O|YDIPLEN |i(15.094133)>| =     0.03660621
 # 83 1 |<O|YDIPLEN |i(15.103467)>| =     0.02584333
 # 85 1 |<O|YDIPLEN |i(15.150106)>| =     0.00016906
 # 87 1 |<O|YDIPLEN |i(15.167165)>| =     0.00247970
 # 89 1 |<O|YDIPLEN |i(15.184307)>| =     0.00230616
 # 91 1 |<O|YDIPLEN |i(15.198487)>| =     0.00223660
 # 93 1 |<O|ZDIPLEN |i(14.902585)>| =     0.01441436
 # 95 1 |<O|ZDIPLEN |i(14.950814)>| =     0.03622327
 # 97 1 |<O|ZDIPLEN |i(14.969277)>| =     0.02267822
 # 99 1 |<O|ZDIPLEN |i(14.987429)>| =     0.01721563
 #101 1 |<O|ZDIPLEN |i(15.000357)>| =     0.01173687
 #103 1 |<O|ZDIPLEN |i(15.014911)>| =     0.00779065
 #105 1 |<O|ZDIPLEN |i(15.022943)>| =     0.01796716
 #107 1 |<O|ZDIPLEN |i(15.037827)>| =     0.00281311
 #109 1 |<O|ZDIPLEN |i(15.072920)>| =     0.03294050
 #111 1 |<O|ZDIPLEN |i(15.094133)>| =     0.01449218
 #113 1 |<O|ZDIPLEN |i(15.103467)>| =     0.02513904
 #115 1 |<O|ZDIPLEN |i(15.150106)>| =     0.00765104
 #117 1 |<O|ZDIPLEN |i(15.167165)>| =     0.00327223
 #119 1 |<O|ZDIPLEN |i(15.184307)>| =     0.00410348
 #121 1 |<O|ZDIPLEN |i(15.198487)>| =     0.00280030

 THE_END   
