     193
 CELL 12.4294 12.4294 12.4294 90.0 90.0 90.0 i =    34120, time =    17060.000, E =     -1096.5613214501
  O        -3.3833349494        0.9769722270       15.1827686929
  H        -2.9556558939        0.5645141965       14.4066694399
  H        -4.2944527266        1.2856532402       14.9599949476
  O         0.0542429172       -8.0018675378       10.6216550261
  H         0.6055596418       -8.8752814173       10.6924525885
  H        -0.0060646484       -7.6001249007       11.5681243754
  O        -0.2139761154       -6.4589160318       12.8884259284
  H         0.0674618100       -6.7867252916       13.7369828413
  H        -1.1764805696       -6.2816764957       13.0195559621
  O        -2.1848758650        0.0736311003       13.0014610622
  H        -1.2423277397        0.4239699559       12.8906042999
  H        -2.2068051715       -0.8479112216       12.6334825434
  O       -10.6395195938       -4.1378187151        9.0220899566
  H       -11.4876705225       -3.9317724400        9.4918932646
  H       -10.9148743574       -3.8659951023        8.1423796161
  O         4.3214477008       -6.2710888309       16.7374774515
  H         3.9436696832       -5.5978217034       16.1294365040
  H         3.6736621900       -6.4392950829       17.4416157992
  O        -3.5512319160       -0.7850629926        4.9044690682
  H        -4.0480798194       -0.5450364818        5.7507775132
  H        -3.5220993042        0.0017094949        4.3030600730
  O         3.4457766379        3.3169159402       14.3173131567
  H         2.7519194450        3.8930184550       13.9736641750
  H         3.6725072995        2.7477669109       13.5406466324
  O        -4.7512459423       -8.5781392116        1.0431767642
  H        -4.2519090723       -8.2008192151        1.7228690249
  H        -5.4685766005       -7.9406472793        0.7688623097
  O        -0.9575200931       -1.5658823399        5.1454611100
  H        -1.9124132769       -1.3785501652        5.0802270259
  H        -0.7779658511       -2.0656981183        4.3284122686
  O         0.2858183387       -5.0957874712        4.6435408011
  H         0.6746960392       -4.5191191169        5.3583979939
  H        -0.4413213105       -5.5686194681        5.1665746277
  O       -10.4426730331        4.7656771629        6.0771408304
  H        -9.6875760352        4.1789266627        6.2959780598
  H       -10.8012604451        4.9700335783        7.0136318502
  O       -11.5815948344       -2.2549582216       13.0541323370
  H       -11.1316280632       -1.4633064752       13.3443860264
  H       -12.3014644292       -1.9160116207       12.5303159411
  O        -2.0649484784       -3.3011553898        7.8213417659
  H        -1.7472857886       -2.5726939853        7.1700984157
  H        -3.1398926562       -3.1528253707        8.0079232493
  O        -1.5510279361        0.7942018380        8.3243407034
  H        -1.6127529187        1.7515055893        8.6034925732
  H        -0.9163323004        0.9033755467        7.5819771584
  O         7.9063063270       -0.5880723620       10.7224586792
  H         8.3962339509        0.2562430291       10.4046331971
  H         8.5412315248       -1.1662869150       11.2095194407
  O         3.9861803000       -4.5406348649        1.9915160611
  H         4.5740774045       -5.2896584729        1.7317746050
  H         3.2075861088       -4.6309884371        1.3944857363
  O         0.2446871500        1.8831981881       13.0396216783
  H         0.7646950130        1.3781953194       13.6897651941
  H        -0.3483131032        2.5448401992       13.5449712637
  O         0.6741776488       -0.8543049611       10.3420697109
  H         0.5445012574       -0.0418688137        9.7764492689
  H         1.6835516722       -0.8876990436       10.4092557046
  O        -2.8941305631       -6.4087694233       13.8386838356
  H        -3.2892031640       -5.5714663946       14.0683397830
  H        -2.7584644360       -6.8732471218       14.6855152595
  O         3.9558859646        3.5311517246       -1.1332600150
  H         4.8028165058        3.3430013846       -1.5580073328
  H         3.7851015351        4.5297663636       -1.3038981837
  O        -3.5522983494        2.0979477504       11.8199731831
  H        -2.8460439890        1.4512459064       12.0866423668
  H        -3.7113429790        2.6745709647       12.6062251530
  O         4.6250605017        0.0095519094       13.8058854281
  H         5.1179706103        0.6932277254       14.3353620069
  H         4.8277576245       -0.8762531123       14.2699499633
  O        -3.8825968257       -7.4534212604        3.8813861338
  H        -4.3669166497       -6.7518231140        4.3437124970
  H        -3.5182599455       -8.1720402073        4.6257742906
  O        -5.6768384684        2.1255518613        7.6603249472
  H        -6.5338553399        2.4268091805        7.2804398898
  H        -5.7083470343        2.5336176449        8.5400776867
  O         5.5235735377       -6.7628560516        0.8613020935
  H         5.0108336616       -7.5089673093        1.2873934487
  H         5.1233178460       -6.7626381396       -0.0949739527
  O         1.9039133246      -12.4756169807       14.5641731896
  H         1.8351089499      -12.2424592782       15.5160246502
  H         2.8473839870      -12.4757105966       14.3463562838
  O         1.3606552227       -3.0111089538        6.1535656046
  H         0.6666412435       -2.3372987962        5.8515558853
  H         2.1552358025       -2.6855066753        5.6190109839
  O        -5.1888144089       -5.9028012716        7.9523289526
  H        -5.0893177669       -5.2948829879        8.6751658833
  H        -4.4211979852       -6.5137324679        7.8870191637
  O        -6.0218838708      -10.4700648683       14.9180876784
  H        -6.3895758241       -9.6679298372       15.4195757975
  H        -5.6595934948       -9.9174137656       14.1447873211
  O        -4.9146056063       -4.0490915231       10.5889331853
  H        -4.1816185773       -3.5945074338       11.0567671592
  H        -5.7599893588       -3.9846693648       11.1962191852
  O        -7.3808642364       -2.3081501040       15.4243893278
  H        -7.8130121763       -3.0131406457       14.9506103712
  H        -6.4599492427       -2.6757001497       15.6360903376
  O         0.1110040112       -8.8231724854        4.7635890623
  H         0.7859212260       -8.3329796487        5.2994655061
  H         0.3208574928       -9.7485871719        4.9380550720
  O        -4.1873155518       -0.0781399296        7.3552560997
  H        -4.8738217731        0.6291028874        7.4532652058
  H        -3.3418181211        0.3817847189        7.6512760343
  O         6.8505498659       -5.0351860334        5.2279821278
  H         6.0455984403       -5.4517888498        4.8059809115
  H         6.8911080797       -5.2210907878        6.1975703028
  O         5.8976940200        3.8686919101        4.2942599270
  H         5.4107383800        4.7192415964        4.1265097405
  H         6.8620645405        4.1407858907        4.2817934349
  O         1.9935144908       -4.6398002238       12.5089585438
  H         1.2726459298       -5.3133218487       12.5346815655
  H         1.5936585894       -3.7642954099       12.2742792282
  O         3.6637335840       -1.7648429239        5.3894162490
  H         4.3093291197       -1.8357326308        4.6240527032
  H         4.0550036155       -2.3786179763        6.0704015871
  O        -0.6383694425       -3.2140256013       15.4699305554
  H         0.0101028305       -2.9087957670       14.7603705544
  H        -0.2296044121       -3.8646332892       16.1778789343
  O         4.8126691129       -6.6677290093        8.1177680815
  H         5.8373658905       -6.5205863052        8.0583288057
  H         4.7530111985       -7.6356232743        8.0211823810
  O        -6.8427555036       -3.2153504537       -0.1905693295
  H        -7.4313637646       -2.8347350407       -0.8319263428
  H        -7.2493792785       -4.0493374052        0.0637413327
  O         1.2203234283        5.0846637534       15.0877279761
  H         1.4012932506        5.8756967047       15.6380632348
  H         0.9061821165        4.2782788168       15.7465561256
  O         0.9674073562        0.8034638842       17.3367342553
  H         0.4214339146        0.0102567231       17.4805950515
  H         1.6646217387        0.5771164752       17.9841986228
  O        -3.3121037601        4.8011062495        7.3369071518
  H        -2.4938712741        5.4030751018        7.2114183792
  H        -3.0267825100        4.3513373317        8.1387973077
  O         4.3156267782        3.1217808334        6.4042821955
  H         4.1026086564        2.1175796850        6.5087116520
  H         4.7239768941        3.1549880722        5.5067738118
  O         9.8082546664        2.8814323878        5.4578404993
  H         9.6017209448        3.3685883200        6.3377235429
  H        10.7565469058        3.2065695741        5.1738430156
  O         3.1416041236        0.5581819774        6.6234849202
  H         3.5293347070       -0.2586716528        6.1614683236
  H         3.3569783753        0.4008412856        7.5838246037
  O         5.3487419124        0.5040515663       11.3619000015
  H         4.9566768592        0.2746970560       12.2294702202
  H         6.2306919221        0.0641609392       11.2757607188
  O        -2.0505449356        3.3995986165        9.3748899018
  H        -1.3155679682        3.8401216089        9.9233007106
  H        -2.7206249133        3.2193188984       10.0865542839
  O        -9.0487185842        0.2251750050        9.5673356849
  H        -8.2555673352        0.4044642596       10.1783092600
  H        -9.6277387234        0.9370308942        9.8893949009
  O         7.5540248935       -2.9931092257        3.6427511015
  H         7.5864801931       -3.8225526443        4.2353165037
  H         7.9058676181       -2.2529696506        4.2263104406
  O        -0.7165548712       -3.1749393886       10.1556237422
  H        -0.3425646718       -2.2113342571       10.1879329935
  H        -1.2181017836       -3.1100085361        9.2966535254
  O        -4.7285161914       -2.8128993800        8.0925242077
  H        -4.5646272273       -1.8205112453        7.9362891615
  H        -4.8529139940       -2.9891929323        9.1016473047
  O        -1.7547162561        3.1154906937       14.5487283740
  H        -1.1035451912        3.3919523602       15.2403364918
  H        -2.2602696565        2.3215124906       14.9425274643
  O         0.9543803133        5.5407670426        8.3804210605
  H         1.6910345079        6.0967744605        8.6739006651
  H         0.7023264092        5.0677373267        9.1949926968
  O        -2.9094975501       -3.8395519109       14.2534893097
  H        -2.0194492896       -3.7424596471       14.7265065691
  H        -3.6013029640       -3.5673454733       14.9085265160
  O        -2.6184968575       -2.3351624346       11.9344841450
  H        -1.9644278645       -2.8827267423       11.3962640333
  H        -2.8078556312       -2.8208645241       12.7601236775
  O        -8.2175776612       -6.1157654224       10.9788489066
  H        -8.9237387443       -5.4030033445       11.0547592985
  H        -8.1314362943       -6.2237839758        9.9337011545
  O         1.6865125522        2.1968014780       10.5042604952
  H         1.4072382641        1.8964713670       11.4453119330
  H         2.4864937295        2.6690799676       10.8144792569
  O         3.6960847178       -2.5822240551       10.1884688504
  H         3.4822738739       -1.6430656448        9.8375481584
  H         2.9992384283       -3.1546621079        9.8334968326
  O         6.7396818686       -9.0465771515       -1.9596006424
  H         7.2764664764       -8.2511935027       -1.7498769627
  H         7.0768170464       -9.7546341321       -1.4160427682
  O        -4.2883713669       -6.7653644190       -1.3871994635
  H        -4.5890459559       -5.8726637444       -1.5638485219
  H        -3.9773194806       -6.7242224590       -0.4010151361
  O        -1.2091954360       -5.8724296159        6.9695094261
  H        -0.4158713768       -5.9815078952        7.4901005416
  H        -1.6013295573       -4.9986658246        7.3339459193
  N         4.8503904701       -3.5067971934        7.3036413593
  H         4.5445260628       -3.4149962027        8.2598141019
  H         4.6604255308       -4.4652179567        7.0452600223
  H         5.9020356783       -3.4521053332        7.3027480391
