     193
 CELL 12.4294 12.4294 12.4294 90.0 90.0 90.0 i =    49320, time =    24660.000, E =     -1096.4648774270
  O        -0.4735700558       -0.3244735028       23.2553914023
  H         0.2705196884       -0.0799574904       22.6630401097
  H        -0.9688502500        0.5413849379       23.3053833069
  O         1.9063360300       -7.7673071443       19.2651278778
  H         2.5645694352       -8.3085914412       19.7887032622
  H         1.6372012567       -7.0792554699       19.8558801461
  O         3.2067645803       -5.7629749516       21.6035507555
  H         3.9412828175       -6.0364497058       22.1977995207
  H         2.4506632888       -6.1800801356       22.0594488556
  O         2.3189706320       -0.8502301893       22.0869673421
  H         2.7841691691       -0.0386429743       22.3336088425
  H         2.4259731990       -1.1539819365       21.1651619348
  O        -8.2592621437       -4.0195816004       17.6612579458
  H        -8.8496711022       -3.3210579707       17.9061649096
  H        -8.1706709695       -3.8756189724       16.6241719765
  O         7.6727614120       -6.4453022782       26.0566338980
  H         7.0657965532       -6.1775907974       25.3388485208
  H         7.0641149683       -6.5899451730       26.8748036201
  O        -0.4855708550       -0.9134919114       13.6934531374
  H        -0.8178504430       -0.4044813809       14.4495390968
  H        -0.7085983638       -0.4187621456       12.8599867661
  O         6.1246131158        3.4834837306       23.6735713676
  H         5.9620169945        4.4816870266       23.7643104943
  H         6.2795505088        3.3485186816       22.6957938412
  O        -3.5281858014       -7.2918651959       10.1327342622
  H        -2.8542112516       -7.2152393886       10.8002360177
  H        -4.1985430344       -7.9209841205       10.4320170878
  O         2.1417913359       -2.0366496099       13.8185898488
  H         1.3134489007       -1.6396751408       14.2270651709
  H         1.8961599869       -2.5043413336       12.8743156120
  O         3.3621311579       -5.4846499252       12.9933265718
  H         3.2599274508       -4.9867093457       13.8719800080
  H         2.6731715082       -6.0860739374       12.6928698421
  O        -6.2730457300        5.4833510831       15.6737194499
  H        -5.7204653185        4.8167702455       16.1900445275
  H        -7.1354018444        5.6326590617       16.1753309802
  O        -7.3056240724       -2.1710026490       21.8665244112
  H        -7.3246191711       -1.7000466565       22.7208842413
  H        -8.1909404240       -2.3320073252       21.5889506756
  O         0.7197498266       -4.0535326928       16.0620858312
  H         1.1321130286       -4.0419779757       15.1679095977
  H        -0.1004422677       -3.5158216511       15.8967892836
  O         0.9983037629        1.2696385606       16.3534384267
  H         1.0972409493        2.0265527625       16.9141459531
  H         1.3416404024        1.5659383522       15.4284256790
  O        11.5730704815        0.3405280627       19.6871798750
  H        10.8205799302        0.5550985527       19.0177582105
  H        11.5432611597       -0.6526371354       19.8289286865
  O         7.0783048830       -4.4262173057       10.2759285079
  H         7.5450920577       -4.8933474288        9.4947500263
  H         6.3659063736       -3.8787933438        9.7528641195
  O         3.2458765181        1.7505434762       22.5001787865
  H         4.1098081452        1.4593817329       22.8107072013
  H         3.0768771655        2.5603513739       22.9807934064
  O         2.6605889955       -0.9091881538       16.9635186368
  H         2.0768395187       -0.0932296236       16.8494217884
  H         3.3782235721       -0.4729451086       17.6162353607
  O         0.1453860438       -6.2256065912       21.5334768756
  H        -0.2712417079       -5.3466135128       21.7930223107
  H        -0.3686778858       -6.8566963159       22.1097534682
  O         6.8396579110        2.9378177333        8.4665117181
  H         7.4927525592        2.2691910448        8.5983332256
  H         7.2847478228        3.7445453791        8.0592903635
  O        -0.0203356965        2.1545059799       21.5962165505
  H        -0.1753236964        1.4061082937       20.9248725488
  H         0.7678026504        2.6379021170       21.1874794918
  O         7.7163744919        0.2142489630       24.6404375876
  H         8.4310284478        0.3347914514       25.2657544228
  H         7.5791902077       -0.7959500785       24.5389477858
  O        -1.0996790878       -7.5802363020       11.9418962797
  H        -0.3049533854       -7.2112386466       12.3556636196
  H        -1.7015764720       -7.6069696097       12.6932881645
  O        -3.4532458728        1.1910148899       18.4428330135
  H        -3.5760044730        2.1329199935       18.7127656173
  H        -3.5142687607        1.1243812308       17.4583500844
  O         8.6214042283       -4.7713780911        7.9633442642
  H         9.2849419908       -5.4132224131        7.6683853655
  H         8.8052756664       -3.9237470566        7.5373559010
  O         5.0836974084      -12.4044810149       23.6007788333
  H         4.5992826703      -12.4929455896       24.5004154167
  H         5.9627289936      -12.0868069496       23.7806008197
  O         3.8084211385       -3.7679757304       15.1058902934
  H         3.1870029417       -3.1075830183       14.7867400564
  H         4.6694006195       -3.6044764123       14.6049514669
  O        -2.5744890392       -6.9227396617       17.0204466578
  H        -2.1635050156       -6.5563974713       17.8512660853
  H        -2.3645732501       -6.2424891248       16.3312388401
  O        -2.1335731179      -10.3868749652       23.6350534595
  H        -2.7257787664      -10.0266573344       24.3577246673
  H        -1.3962754301       -9.7541650272       23.5533114302
  O        -3.7301789478       -2.3048055779       18.9701873399
  H        -4.5228665706       -1.6511364909       18.8312289307
  H        -3.0224828904       -1.8076586796       19.4196032632
  O        -4.3579711488       -2.9524458811       24.7442570540
  H        -4.6925089111       -3.5073349840       23.9416256119
  H        -3.4051014222       -2.8588860067       24.7062169654
  O         4.5530501537       -8.8278386773       13.5594371072
  H         5.1307637638       -8.1070820190       13.9574056052
  H         5.0770408603       -9.1197402590       12.7922426674
  O        -1.5406387358        0.2017417460       16.1366282766
  H        -2.2249753862        0.7442371057       15.7140373625
  H        -0.6903289938        0.7324758225       16.1992939095
  O         9.9149978620       -4.9079032704       14.5674644897
  H         8.9900227505       -5.2492582058       14.2993270986
  H         9.8307388275       -3.9533856001       14.9592474172
  O         8.4197447210        3.1758013292       12.9859251504
  H         7.6594091754        2.8698236871       12.4816994119
  H         8.1931604208        4.1312998198       13.0543193706
  O         5.3514648559       -5.7001725956       19.7119017623
  H         4.5198638825       -6.1781873431       19.8438935404
  H         4.9717152174       -4.9213654305       19.2059555494
  O         6.3263434014       -2.6546574113       14.5783734491
  H         7.0522208284       -2.7217168194       13.8892142405
  H         6.6150298794       -3.1627980675       15.3651951892
  O         2.0418352368       -2.9296157242       23.7089841636
  H         2.3162856421       -2.1665638552       23.0947815755
  H         2.7126791655       -3.6804138687       23.7061895832
  O         7.7672888565       -8.5924301709       16.9732520729
  H         8.5623426120       -8.0546689725       16.8603558272
  H         8.0354317467       -9.3982048534       16.4057584138
  O        -5.8186876775       -0.6708014821        7.3484821587
  H        -6.1174438457       -1.2501382245        8.0510012853
  H        -5.1668907088       -0.0711292789        7.7329059045
  O         5.5593055051        6.2593259937       24.0862584339
  H         6.0624468371        6.9738833492       23.5783394607
  H         4.8502524573        6.6060560127       24.7562629930
  O         3.6879711729        0.0675329563       25.9432562555
  H         2.9906680913       -0.7466757409       25.9532144711
  H         4.3113912084       -0.2279236053       26.6343648556
  O         1.7549234644        4.8279863767       15.3653077337
  H         2.3638874695        5.4639007245       15.7644585486
  H         1.0967236706        4.4637483713       16.0216090810
  O         8.5871107008        1.6204940738       15.3014240146
  H         7.9276627366        0.9194756009       15.2185678697
  H         8.5787140329        2.0877127217       14.3858364794
  O        14.3745891705        2.2273177414       14.2093680028
  H        14.5593224423        3.2126661013       14.3987808409
  H        15.2222371299        1.9158801202       13.8346789548
  O         6.3251926706       -0.0271981929       15.5337807376
  H         6.3283271802       -0.9409883880       15.8666770049
  H         6.1106364400        0.4761553550       16.3770467869
  O         8.7726576234        1.0364114379       21.3640575852
  H         9.1484850008        1.3924272583       22.2472407757
  H         9.5239446194        0.9718555090       20.7035039762
  O         0.0373666531        3.9156107667       17.3725178501
  H         0.3862254803        4.1690173003       18.2978645943
  H        -0.8698182880        4.1757568486       17.3583148878
  O        -7.5137004867        0.9363093035       18.2044937728
  H        -7.0375330497        0.4869547456       18.8735166116
  H        -8.0627483251        1.5852431634       18.7224267972
  O        11.1354779326       -3.2746982878       12.4158691031
  H        10.6853278023       -3.8544427066       13.0748290367
  H        11.3582306146       -2.4847549468       12.8859027309
  O         1.4378422324       -2.7995390455       18.5234413103
  H         1.6824107738       -1.9525806341       18.1051284733
  H         1.3597148776       -3.4257894227       17.8187314452
  O        -2.0860658483       -2.4964035706       16.3561879024
  H        -1.9786675134       -1.5883207353       15.9632813715
  H        -2.6802226927       -2.5380462299       17.1149652537
  O         2.4775895453        4.0736978024       24.2278919836
  H         3.2832424726        4.0703221853       24.8668455641
  H         1.7098666212        3.7632933773       24.7206445484
  O         3.6642401135        6.0036043584       16.8838649781
  H         3.6130018726        6.8657177248       17.3492177872
  H         3.0371697546        5.4612262108       17.4993370755
  O        -0.2142358786       -3.5459511851       22.2294818026
  H         0.6728379302       -3.2790611022       22.4909368731
  H        -0.7158834546       -3.5498236299       23.0927094604
  O        -0.8991357590       -2.4242821431       19.8786158453
  H        -0.0204038316       -2.5659072371       19.4708630925
  H        -0.7815841511       -2.6297186111       20.8182660666
  O        -4.5358476452       -7.5855719983       19.4506413917
  H        -5.0449104682       -6.6961891335       19.5446397267
  H        -4.7169931593       -7.9304399309       18.5459774785
  O         3.9574987496        3.0426191782       20.1258273102
  H         3.8702167093        2.4649802128       20.8998626803
  H         4.8732114059        3.3177711743       20.1585244231
  O         3.4601211247       -3.2285874071       20.2861226860
  H         2.6656009439       -3.2104075015       19.6558539666
  H         3.2977494640       -4.0549263067       20.8081721647
  O        10.5863874418       -8.4947409193        7.7913760907
  H         9.7872769285       -8.1190689554        8.1843439107
  H        11.0226127228       -9.0411793419        8.5038228226
  O        -1.3578119091       -5.3170249801        6.6853724876
  H        -1.1582224334       -4.3444853890        6.8379715272
  H        -0.9493990135       -5.7291809322        7.4594279564
  O         0.5706419991       -6.0033335560       13.3821698655
  H         0.8332076272       -6.6362169153       14.0990737670
  H        -0.1786569455       -5.4314826221       13.7297222452
  N         7.1085440625       -4.2569781124       16.6519168039
  H         7.4670476716       -3.9078162133       17.5638592044
  H         6.2820549647       -4.9076742089       16.8113671269
  H         7.8193855501       -4.9255583155       16.4177714154
