     193
 CELL 12.4294 12.4294 12.4294 90.0 90.0 90.0 i =    34520, time =    17260.000, E =     -1096.5573351515
  O        -3.2009694000        0.8973415737       15.6054371630
  H        -3.0721711353        0.3192929293       14.8155614312
  H        -4.0128458663        1.5187419132       15.3696740776
  O        -0.0536251284       -8.0893794405       10.6063168901
  H         0.6503354183       -8.7980410312       10.7564894984
  H         0.0517135053       -7.5877445152       11.5528611985
  O         0.0673543291       -6.8482936338       13.0829022127
  H         0.5830568439       -7.2192179339       13.8273192741
  H        -0.8021246206       -6.6406427320       13.5389029676
  O        -2.3057300781       -0.0277241062       13.0359510924
  H        -1.3573534035        0.3071271208       13.1452725261
  H        -2.1659405413       -0.7957758203       12.4794661894
  O       -10.5438678050       -4.1648344220        9.2564047972
  H       -11.3583904383       -3.8477467302        9.6466535936
  H       -10.5676079264       -3.7759654198        8.3163732995
  O         4.2518766141       -6.1118126714       17.2001622118
  H         3.8304906006       -5.7026357336       16.4188012288
  H         3.5791704954       -6.4049264260       17.7823918295
  O        -3.4544200044       -0.9486250709        5.2288492316
  H        -3.7351100824       -0.3681011167        5.9787366545
  H        -3.3931629546       -0.2091721046        4.4581658421
  O         4.2207808091        4.3109141915       14.4631715253
  H         3.3873898536        4.6504228645       14.8409454467
  H         3.8412819205        3.7021373071       13.8186284773
  O        -4.4069957739       -8.2638792159        0.9854798464
  H        -3.9482125934       -7.7129231567        1.6692345345
  H        -5.2243273945       -7.6819234900        0.7730787634
  O        -0.7564918295       -1.4117712467        5.5833506280
  H        -1.6440335111       -0.9962694064        5.5147223746
  H        -0.7233157805       -2.0436348650        4.8285118754
  O         0.6082928199       -5.0159575530        4.3426515668
  H         0.9745465142       -4.4627604109        5.0672540412
  H        -0.0840148125       -5.5440833476        4.8349569246
  O        -9.7505381198        4.4996503938        6.2552775316
  H        -9.2005761161        3.8016973560        6.6989684389
  H       -10.2094562574        4.8790008755        7.0861269575
  O       -11.5432805913       -1.9666439345       13.8773358638
  H       -10.6543205678       -1.5864730163       14.1867259019
  H       -11.8662757098       -1.1524344783       13.3649837573
  O        -1.4993750651       -3.3490705238        7.7514943506
  H        -1.2923175192       -2.5153563777        7.1827874581
  H        -2.5110293917       -3.3715888942        7.9274690147
  O        -1.1117475229        0.5666760633        8.6915659688
  H        -1.5595149030        1.4486576468        8.7910614899
  H        -0.5903119203        0.6856081453        7.8730288119
  O         8.0988126048       -0.4313862211       10.5497284435
  H         8.4247608416       -0.4532467371        9.6628213910
  H         8.5064014704       -1.2110223683       11.0364688961
  O         3.8978217984       -4.6257003148        2.0353855510
  H         4.4754247290       -5.1492265483        1.4495731799
  H         2.9949479079       -4.6450745159        1.5813091909
  O         0.2720985436        1.4942607445       13.2019222346
  H         0.9410982649        1.3949182863       13.9082710045
  H        -0.4050917591        2.1152258550       13.5434448774
  O         0.2197327599       -0.5650556440       11.1814419551
  H        -0.2701429185        0.1654340982       10.7902854787
  H         1.1740017100       -0.4956267182       11.0621254914
  O        -2.1263915376       -6.1523365986       14.4525389030
  H        -2.4819321435       -5.2467295000       14.4329394276
  H        -2.6305436578       -6.6611813032       15.1621940360
  O         3.8437851837        3.4812774409       -0.6681816509
  H         4.7529915545        3.5122982059       -1.0946048832
  H         3.4356388569        4.3372057916       -0.7755203939
  O        -4.2024682185        1.9534731134       11.5550048829
  H        -4.2581847511        0.9587506223       11.3102521384
  H        -3.7212575695        1.9387797559       12.4394699792
  O         4.9960631922        0.3078501854       13.9766425445
  H         5.7130650441        0.9141003156       14.3024904593
  H         5.2709930832       -0.6208375786       14.1385516744
  O        -3.8282441113       -7.5037801274        3.9948908620
  H        -4.0286990763       -6.6397417087        4.4700329986
  H        -3.0892588485       -8.0388828875        4.5772492370
  O        -6.0358042223        1.6543149798        8.5308033069
  H        -6.7638616865        2.1138415087        7.9651587900
  H        -6.0446407790        2.3067754905        9.3428632823
  O         5.6191365181       -6.3174916065        0.5915399814
  H         5.1355590667       -6.9543870624        1.1392402418
  H         5.1634441033       -6.2101836107       -0.2806324579
  O         2.2117288701      -11.8111998164       14.7793233743
  H         1.9987389915      -11.9101702431       15.7201794758
  H         3.1287414454      -11.8536008499       14.6522545619
  O         1.4530767623       -3.3788425447        6.2654674459
  H         0.7939733359       -2.7087491027        6.0071168266
  H         2.3431273434       -2.7962230336        6.2460869350
  O        -5.4379076077       -6.1159476744        8.0765824105
  H        -5.2458197400       -5.5007947558        8.7642216404
  H        -4.6627070432       -6.6655886144        8.0182120319
  O        -5.4150726318      -10.2095324533       15.0429119149
  H        -5.8283682777       -9.5483990455       15.6457218046
  H        -5.0533804401       -9.6166623478       14.2825616099
  O        -4.8547746945       -4.0250900578       10.5518515190
  H        -4.1000118701       -3.6574846465       11.1199261812
  H        -5.5841688081       -3.6618076637       11.1439262231
  O        -7.6444556839       -2.3588262691       15.8905042205
  H        -8.0126069183       -3.2216869389       15.4931620956
  H        -6.7174115251       -2.5652738035       16.0144691649
  O         0.5458217230       -9.4827637423        5.1715705716
  H         1.1574687162       -8.8859056209        5.6641261084
  H         0.9005181662      -10.4121217423        5.2204003573
  O        -3.9903023057        0.1633928925        7.8971235277
  H        -4.7239464115        0.8569489650        7.9915992823
  H        -3.0821954444        0.6214580208        7.9804087996
  O         6.9282641438       -5.6125240020        5.3291415525
  H         5.9920134457       -5.7156926562        5.1160152930
  H         6.9857424981       -5.6922748718        6.3302277118
  O         5.9852587882        3.7937271665        4.5977044431
  H         5.2881533155        4.4061109277        4.2254517419
  H         6.7713326027        4.4158773311        4.6492921436
  O         1.7033756934       -4.5780740229       12.7690143315
  H         1.0763137454       -5.2878651773       12.9816636355
  H         1.2618788692       -3.7150194808       12.9209911045
  O         3.7489869603       -2.1952930723        6.0461930466
  H         4.1003258911       -2.4470582545        5.1446531481
  H         4.3441476852       -2.5971093478        6.7470720475
  O        -0.5336269204       -2.9609691338       15.8306357224
  H        -0.0761702279       -2.4125014245       15.0982207392
  H         0.0129247884       -3.8325307922       15.8930208724
  O         4.3511521619       -7.3238767974        8.7808998675
  H         5.1770093657       -6.9656338635        8.3731492873
  H         4.6983810192       -7.9674982956        9.4029549467
  O        -6.8400023025       -2.8222649840       -0.3368335767
  H        -7.5742466121       -2.3942607322       -0.8193538237
  H        -7.3034525526       -3.3858985977        0.2898139480
  O         1.6082969062        5.1403803755       15.4534154376
  H         1.1508526396        5.8221885172       15.9769591667
  H         1.7959996968        4.4021568296       16.1236073951
  O         1.1653556557        0.3537889091       17.4803440038
  H         0.4680263034       -0.3620595848       17.5769396715
  H         1.7579692260        0.2663715847       18.2829980304
  O        -3.1191141251        4.9381471159        7.8183201194
  H        -2.4215161288        5.5396859703        7.4687063131
  H        -2.7807547424        4.3097464176        8.4878369320
  O         4.6621637979        2.7180857080        6.8178653175
  H         4.2883739992        1.8068077141        6.5345013815
  H         5.3148250402        3.0790361926        6.1937661291
  O        10.1715202093        3.4693186072        5.4508319548
  H         9.9579873132        3.7204508986        6.3400299528
  H        11.1648437399        3.3267674193        5.2913171776
  O         3.4166249625        0.3411337941        6.6902065021
  H         3.5648284279       -0.5471172576        6.3308862742
  H         3.3042623343        0.2171606310        7.6473371208
  O         5.1701433474        0.7725298361       10.9863670961
  H         4.9674058003        0.6092149332       11.9852524428
  H         5.9701076936        0.2478255315       10.7189980431
  O        -2.4082218421        2.9055223401        9.6830457764
  H        -1.7118414123        3.4762322687       10.1598264773
  H        -3.0313062735        2.6653798907       10.4686440262
  O        -9.2616867032        0.5552944478        9.3949263719
  H        -8.3852302991        0.7282827890        9.8168686179
  H        -9.9656380753        1.1241728511        9.7208112636
  O         7.3141736968       -3.0690904145        4.2136507444
  H         7.1814927593       -3.9365496817        4.7377787193
  H         7.8680448215       -2.4399433867        4.7162064077
  O        -0.4116031512       -3.2333360567       10.2809048477
  H        -0.3597125847       -2.3084005888       10.5792733254
  H        -0.9666932992       -3.1532188573        9.4181550730
  O        -4.1742702915       -2.9122656838        8.2938876515
  H        -4.3677237442       -1.9412795523        8.2061314164
  H        -4.6202822244       -3.1624915782        9.2219522655
  O        -1.3423201101        3.0468546001       15.0489236031
  H        -0.7136592238        3.1188090072       15.7442230724
  H        -1.9557855191        2.2334102277       15.2281026862
  O         0.8813221894        5.5586357136        8.2078876780
  H         1.1954416773        6.4330606179        8.6621004658
  H         0.5321754505        5.1458693807        8.9994646111
  O        -2.8700708058       -3.3709843934       14.5804846342
  H        -2.0268931500       -3.0865752955       15.0531340774
  H        -3.7021403644       -3.2079453253       15.0505271545
  O        -2.7979390956       -2.7391142725       11.8625935833
  H        -1.9882997745       -3.2205600077       11.5482131532
  H        -2.7674694450       -2.9161029057       12.8435445317
  O        -9.0511987960       -6.2525180233       11.0595349640
  H        -9.6739347871       -5.5023187110       10.9026343306
  H        -8.6949431212       -6.4972568816       10.1443046270
  O         1.6723197695        2.1742010522       10.8360758314
  H         1.1915287615        1.7445458108       11.5916993201
  H         2.5333979477        2.6025659174       11.1511030593
  O         3.2120674164       -2.0150379937       10.8060052428
  H         3.4321641595       -1.1991243812       10.2392551554
  H         3.0552914131       -2.8674307010       10.2621526768
  O         6.2808216262       -8.6545126103       -1.7549200871
  H         6.8067418783       -7.7964028876       -1.7373111466
  H         6.8836680222       -9.3435375410       -1.3739169134
  O        -3.9437925653       -6.8681494934       -1.6312831345
  H        -3.9204841723       -5.8633650838       -1.5729616844
  H        -3.4365584999       -7.0983482500       -0.8737459688
  O        -1.0926233322       -5.7906617784        6.6767987113
  H        -0.3860086789       -6.2641571209        7.1894872299
  H        -1.0618669067       -4.8446262849        7.1307112304
  N         4.9806994275       -3.4992067357        8.0749270895
  H         5.1707370505       -3.0028905435        8.9699009239
  H         4.3924904396       -4.2462577444        8.4744587380
  H         5.8479356558       -3.9273079914        7.8767744759
