     193
 CELL 12.4294 12.4294 12.4294 90.0 90.0 90.0 i =    52520, time =    26260.000, E =     -1096.5093435639
  O         0.1245454693       -1.0245874727       24.7255277358
  H         1.0686881700       -0.6777107113       24.7197869051
  H        -0.4710192850       -0.2333920899       24.9461916770
  O         2.3684354433       -8.5017874126       20.5869806846
  H         3.1963635017       -9.0071263072       20.8726013655
  H         1.8818999102       -8.2214971510       21.4310607037
  O         4.1532540752       -6.8463477609       23.4375307620
  H         4.5915338819       -7.0875515522       24.2885962289
  H         3.4428085673       -7.4957479153       23.2874580165
  O         3.2190194750       -0.1622069037       23.8063146951
  H         3.4501923541        0.7534465282       24.0498539450
  H         2.9871811209       -0.0463095623       22.8730704990
  O        -8.1563103287       -4.5402983951       19.5541277846
  H        -8.7526733827       -4.0584250980       20.1724287820
  H        -8.1740758412       -4.0627909113       18.7083749660
  O         7.3437702576       -6.4572001603       29.0303002496
  H         6.4174242116       -6.1134140438       29.0385988508
  H         7.3584224909       -6.9454027044       29.8913045972
  O         0.6608064829       -2.4331878636       15.1085613373
  H         0.1417535561       -2.0519682139       15.8862752680
  H         0.1739356499       -2.0847515861       14.2671647908
  O         8.4552236640        4.3276292450       25.3185620975
  H         7.9095276842        5.1339237569       25.2174882247
  H         8.1374363941        3.7329767829       24.5926297102
  O        -1.7465485788       -6.6759219047       12.2787597149
  H        -1.0172969718       -6.6569808853       12.9784790206
  H        -2.3186071999       -7.4344141440       12.5709896665
  O         3.1929466792       -0.8118398524       14.1208450995
  H         2.7220802428       -1.5050016848       14.5499469241
  H         3.2692376703       -1.1548764475       13.1976552815
  O         3.8013403712       -4.8705490078       14.7030785975
  H         4.0356069666       -4.1527767963       15.3609431763
  H         2.9839065649       -5.2702398189       15.1010997635
  O        -5.0947318352        4.6339224102       18.9436918430
  H        -4.4365483815        3.9223820781       19.0568851415
  H        -5.5200997042        4.8080187610       19.7682802415
  O        -6.4705124102       -1.2054765767       24.6491959734
  H        -6.2747328775       -0.3184134509       25.0662030625
  H        -7.3167426737       -1.0040853338       24.1631430182
  O         1.0505791296       -3.3760823625       18.2614556466
  H         1.5534120923       -2.4515189689       18.1096285145
  H         0.1084664509       -3.1299673421       18.3191058422
  O         0.8358983018        0.4981848939       17.1377238777
  H         0.8787057559        1.3697414257       17.7165954934
  H         1.1551438097        0.8496952587       16.2503793062
  O        14.0197357188        1.1683260748       21.8436255481
  H        13.7355865087        2.0128813003       21.4110158367
  H        13.2253178972        0.6358530182       21.6198043539
  O         7.0506290295       -3.8460430109       12.3330709315
  H         7.8380984826       -3.8750947981       11.6450300448
  H         6.5419109333       -2.9790319029       12.2425999352
  O         4.2383077183        2.3723753667       24.5126430360
  H         5.0610713059        2.0374756202       24.9068568658
  H         3.8624582843        3.1435309291       25.0510428776
  O         2.7761729814       -1.2578228599       17.6997128661
  H         2.0590032896       -0.5049258518       17.5580258733
  H         3.1923181509       -0.9699820537       18.5288096092
  O         1.3716342779       -7.5516839994       23.0703925858
  H         1.0416681675       -6.7886156123       23.6400052670
  H         1.0178759406       -8.3825417681       23.5137715797
  O         7.3872685925        3.2300945302       10.4062417204
  H         8.0353147257        2.5066287955       10.2271147666
  H         7.8054524343        4.0884378833       10.1259786222
  O         0.7467954548        2.3433882288       24.1794328794
  H         1.1357960586        1.5387013625       23.6872689272
  H         0.9663869855        2.1984530925       25.1283557430
  O         8.9116052107       -0.3192666076       26.4749002569
  H         9.7039937664       -0.2214014804       25.9044334035
  H         8.7082854143       -1.2776930244       26.5603261778
  O         0.3518108713       -7.0286663378       14.4677295694
  H         0.7434228814       -6.5563072048       15.2431739181
  H        -0.0871986208       -7.8096168395       14.8263192101
  O        -1.4163664548        1.1548978432       20.3569737273
  H        -1.7455878856        1.9648987489       19.8310645740
  H        -1.5507586221        0.4417167757       19.7614901153
  O         9.4595767067       -4.5330133239       11.0867699124
  H        10.0738660344       -5.2344649668       11.4818648530
  H        10.1407200010       -4.0815621923       10.5264995456
  O         6.5752382718      -11.3631391783       25.8024681256
  H         6.2273432304      -11.6128032135       26.7160493051
  H         7.5662675610      -11.6083221291       25.8535457310
  O         4.5695763764       -3.3277032455       16.8207638821
  H         4.1173886837       -2.4992016833       17.0499256359
  H         5.5130245048       -2.9264992575       16.8037910948
  O        -0.7044645235       -7.3803382530       18.7716074958
  H        -0.6954356795       -7.1432968863       19.7476944154
  H        -0.9303665020       -6.6764601307       18.1140245504
  O        -1.5761860021      -11.2814073870       24.8876505599
  H        -1.7081985868      -10.6350326965       25.6302630573
  H        -0.8712263568      -10.8043633303       24.4275264999
  O        -2.5743796776       -2.3204349466       21.1538013764
  H        -3.2030727208       -1.7400398439       21.6307227560
  H        -1.6108687770       -1.9790238791       21.1786670498
  O        -3.4486760673       -3.0622513033       26.5969515243
  H        -3.9948616798       -3.5632044319       25.8299103517
  H        -2.5510315047       -3.4818301729       26.6499468121
  O         6.3292883338       -9.0482386931       15.0109764859
  H         6.6363839611       -8.1010205898       14.7889461728
  H         6.5983689041       -9.5956191306       14.2103501959
  O        -1.3659391071       -0.9238970955       16.3541869521
  H        -1.9312807870       -0.7113725405       15.5654407198
  H        -0.8025772266       -0.1550397175       16.4735144231
  O        10.1943494007       -5.5369610653       16.3667017619
  H         9.2169729505       -5.7860880099       16.3994847385
  H        10.3980775783       -4.8674210871       17.0388060251
  O        10.2894520482        3.0053557746       14.5386173853
  H         9.5772431052        3.5776170275       14.1584672745
  H         9.6822097947        2.5128551306       15.1502032069
  O         5.4108044148       -6.5473832427       20.9548478006
  H         5.0147161302       -7.1931140239       21.6300206588
  H         4.7199801413       -6.1403570768       20.3162753600
  O         7.2577138445       -2.7094685800       16.7342085331
  H         7.7740817987       -3.0372501610       15.9511412091
  H         7.4320264112       -3.2502413679       17.5675750488
  O         3.0766918675       -3.4581875653       25.0760342911
  H         3.5886146234       -3.6273978530       24.2580600598
  H         3.3220910712       -4.1339545721       25.7354648821
  O         9.7874516743       -9.4380896477       18.7749115221
  H        10.4780564409       -8.7283288909       18.6511545236
  H         9.3544017270       -9.6608413907       17.8559526788
  O        -5.1243958874       -1.3222681650        9.8804934082
  H        -5.5464041152       -1.4124045999       10.8123979683
  H        -4.7849581480       -0.4075459980        9.8584186250
  O         5.8906121370        6.0607032158       25.6557584851
  H         6.1445742215        6.8087062720       25.0926894348
  H         5.1176044881        6.3913653453       26.1342991711
  O         5.1236217107        0.6465601684       28.1355189864
  H         4.4056849293        0.0895969857       27.6839886338
  H         5.4434511235        0.2083453022       28.9861521625
  O         3.5316356324        2.8944085353       15.8662416395
  H         4.3767714812        2.3802755027       15.8705872009
  H         3.3369419513        3.1350890906       16.8043518159
  O         8.0786202401        2.2010036559       16.7067484859
  H         7.5796762496        1.4816729827       17.0920601280
  H         7.3679856431        2.8150999434       16.2863634463
  O        14.1780338110        1.5654323631       14.5222136192
  H        14.8231507567        2.2255831449       14.9033441707
  H        14.6983237647        0.7851880281       14.4067228236
  O         6.4279795969       -0.0821917929       17.9417782104
  H         6.9012967885       -0.8618405926       17.6057992273
  H         6.1132458163       -0.3783801446       18.8590107069
  O         9.1343042058        1.0187963168       22.4042301305
  H         9.6284086030        0.6330366819       23.2008559662
  H         9.8579315370        1.0707070515       21.6289553191
  O         1.2880111371        2.9750027639       18.2263989915
  H         1.7139606014        3.1117117348       19.0876651223
  H         0.5973984220        3.7032760859       18.1012765277
  O        -7.1198659596       -0.5930851499       20.4022098898
  H        -6.5830656884       -1.0046679540       21.1419141130
  H        -6.8981599542        0.3651075336       20.4894894276
  O        11.3564067554       -4.2278207808       14.1239606342
  H        10.9904656740       -5.0749695796       14.6329757289
  H        12.0257574144       -3.7362167328       14.6573110071
  O         1.9834332116       -3.5200078648       20.9266365583
  H         1.5630770787       -3.3297194363       20.0421077105
  H         1.2971394540       -4.0475842978       21.4525918539
  O        -1.5119761479       -2.9599853563       18.4810424404
  H        -1.7818278978       -2.3107655053       17.8038817558
  H        -2.0926953867       -2.7869124439       19.3308661196
  O         3.1605005928        4.4943376251       25.9621917166
  H         3.3794841406        4.2637630923       26.9182821958
  H         2.2407893212        4.7756020655       25.9517233004
  O         2.9324790274        5.8274995126       18.2547080755
  H         3.2536895237        6.6310301264       18.7329754037
  H         2.8593739992        5.1215328503       18.9625739878
  O         0.9072492571       -5.2012087507       24.6346936317
  H         1.7367059799       -4.6538442484       24.7058857954
  H         0.3013062006       -5.0124035808       25.3823708379
  O        -0.0169155986       -1.3272454638       21.7055781133
  H         0.6821384586       -2.0439171143       21.6449133031
  H        -0.1079191911       -1.3023605824       22.7047312248
  O        -4.4076889806       -6.3078633386       22.0115626089
  H        -4.0834437373       -5.5416829298       22.5832171565
  H        -5.3182996857       -6.0358674818       21.6610814654
  O         4.5925701443        2.8683112687       21.7880246543
  H         4.1707428291        2.7934631671       22.6872815271
  H         5.5082501569        3.1791085120       21.9230351250
  O         4.3010222770       -3.5128860014       22.6631288021
  H         3.5390345339       -3.2596328135       22.0360518243
  H         4.5494173691       -4.4260241868       22.4613224234
  O        10.9704424753       -6.8605999875        9.0592853733
  H        10.0069274272       -6.6051299518        8.9652603458
  H        10.9185228485       -7.1510688728        9.9794386399
  O        -0.2742786590       -4.4052480753        9.9322163423
  H         0.0216891608       -4.5874768858       10.8927509201
  H        -0.4966286679       -5.3247850996        9.6144253973
  O         1.5806078443       -5.4311654009       16.3260129147
  H         2.1389374333       -5.9353906322       17.0082684165
  H         1.4321553453       -4.4844599484       16.7545443694
  N         7.5651603998       -4.0462826952       19.2884889788
  H         6.6245507211       -4.3859502721       19.4371935178
  H         8.0642561709       -4.9477254414       19.2728162414
  H         7.8816653812       -3.5742031113       20.1805353874
