     193
 CELL 12.4294 12.4294 12.4294 90.0 90.0 90.0 i =    80920, time =    40460.000, E =     -1096.5454613895
  O         6.7063426488       -1.5057161279       39.3996172796
  H         5.9535924223       -1.2323406519       38.8402701237
  H         6.4394018590       -1.2583012941       40.3055828421
  O         5.8969777639       -7.6175838418       37.6013215955
  H         6.6203261221       -8.2450261573       37.8392664560
  H         6.2546755364       -6.7129255930       37.4840567703
  O        10.5411638203       -3.4457459107       38.8130260471
  H        11.4336037456       -3.7019156306       38.5400225256
  H        10.1458441094       -2.8718629358       38.1678535445
  O         8.7685151999        0.3873823675       38.2847168226
  H         7.9127929477       -0.0446706567       38.4708821362
  H         8.5395760137        1.3141612542       38.0028459684
  O        -3.4500184762       -6.1130329540       34.6457508699
  H        -3.2539729149       -5.3466342951       35.2690064648
  H        -3.0634376521       -5.8084466965       33.7528721933
  O        15.5054193285       -3.6683342371       46.6984894447
  H        15.1498361474       -3.9567740293       45.8608255503
  H        16.2968868457       -4.2286831118       46.8391775623
  O         6.0514873789       -1.6768407157       29.8017087770
  H         5.1562256254       -1.2093356989       29.8771040645
  H         6.5849473897       -1.4017937652       30.6423258585
  O        13.5772384603        3.4554409606       40.6934949784
  H        13.1977017116        4.3011372565       40.8782217675
  H        13.9617298423        3.4315072263       39.8108962845
  O         4.1785197792       -7.5484432973       30.7710533127
  H         4.2180723083       -6.8534651129       30.1200371434
  H         3.8241908141       -8.2713446610       30.2469881369
  O         9.0325665972       -2.5898703993       30.3011591734
  H         9.5129067792       -2.1404116859       29.5619773532
  H         8.8261299451       -3.5058211242       29.9476075890
  O        10.0087781870       -4.9438622131       32.2468161155
  H        10.8485759960       -5.4317852043       31.9791390432
  H         9.2793906375       -5.1021402751       31.5424574318
  O         0.6186261049        5.3344419591       34.0978890766
  H         1.5334858354        5.2533212650       33.8280887165
  H         0.1572302857        5.8868351152       33.4577866832
  O        -0.9215440561        1.2341808421       42.9093146717
  H        -1.2941713281        1.4358021189       42.0167004557
  H        -0.7775451209        0.2656330595       42.9729688355
  O         6.8498967089       -2.6731449766       34.2108190416
  H         7.0471790385       -2.3760423175       33.2835913879
  H         6.3624482027       -1.9571107605       34.5979892735
  O         6.7600066138        2.1660480288       34.9549199586
  H         5.9252462131        2.6626537822       34.9552328593
  H         7.3150245882        2.4540116617       34.2206472379
  O        16.9260574975       -1.0763102877       37.5113372310
  H        16.4269747884       -0.6201276134       38.2314220782
  H        16.2943514446       -1.7735033470       37.1721666710
  O        14.7668055400       -4.4159564568       31.6601987924
  H        14.5555622906       -3.7420434583       30.9353511796
  H        14.3521538562       -5.3270125148       31.4426916552
  O         8.4508488568        3.1916529173       41.1304344374
  H         7.5810554471        2.9288232553       40.6748437177
  H         8.5617323002        2.4495019816       41.7369088691
  O         5.3966440016       -0.2827878263       35.1436945020
  H         6.0409861609        0.4646609467       35.1169257885
  H         5.0854346985       -0.3150353088       36.0701761974
  O         9.9937810479       -6.7060909459       39.6078662104
  H         9.7162322611       -5.8929880695       40.1087906490
  H         9.5492459744       -7.4444357862       40.0374567733
  O        14.3423154428        3.8700616436       25.7087150959
  H        14.5282767030        3.2188369547       24.9770267863
  H        13.6950594258        4.6162181521       25.3518627615
  O         4.2906152336        4.4241592375       39.6564271996
  H         4.8677677008        4.5596640972       38.8708673423
  H         3.3631837566        4.1461492521       39.1897745941
  O        12.9332999482       -0.2727826019       39.7472043498
  H        12.2485862467        0.4341933474       39.7993306201
  H        12.4536625240       -0.9851179937       40.2991768660
  O         5.6352618199      -10.1876698645       28.3732888072
  H         4.9946936176       -9.4351126617       28.3872729447
  H         5.4919488292      -10.5970662339       29.2461428160
  O         2.7487806602        1.8263932010       36.7705831239
  H         3.4367813018        2.3505834752       36.2493117573
  H         3.0864101113        1.4620560553       37.6594846092
  O        13.1352413367       -4.1146416221       25.5229626492
  H        13.6525272967       -4.4410920645       26.3020805001
  H        13.8724042496       -3.6051403862       25.0132427389
  O        12.0541324815       -8.9260854441       44.4273949365
  H        11.8769164528       -9.7745352636       43.9225262735
  H        11.3659342330       -8.9594824429       45.1648431548
  O        11.6235591228       -1.9565982164       31.3450912620
  H        10.7819558894       -2.3602537293       31.2666764367
  H        11.7189424262       -1.6808505561       32.3161854392
  O         5.6920419957       -5.2183665709       34.3102194082
  H         6.3937063946       -5.9055985949       34.4582556196
  H         6.0262897521       -4.4743189396       33.8309404959
  O         3.4426659680      -11.8147487674       39.3823452438
  H         2.6380057251      -11.9977859106       39.9701668518
  H         4.1132421978      -11.3662603248       39.9765695965
  O         2.3065724862       -2.4151831428       36.4613865678
  H         1.8530249745       -1.5762866334       36.2908370459
  H         2.6002360870       -2.8390621310       35.5707613328
  O         1.4671280187       -2.3469819704       42.2409988569
  H         2.1159749331       -1.6114313157       42.2325831485
  H         0.6332346644       -2.1190640729       42.7217996883
  O        12.7039638017       -6.2235630156       31.4666828906
  H        12.6178404432       -6.2451223067       30.5338650298
  H        12.5595119559       -7.2432486441       31.6473270232
  O         3.6033909211       -0.3938852604       30.1832873551
  H         3.7330609184       -0.5224210436       31.1375233739
  H         3.3409120535        0.5494105355       30.0970866979
  O        16.2490416463       -0.9456791376       33.0167560661
  H        16.5084817124       -1.9087090553       32.9457214857
  H        16.8567620732       -0.6498761453       33.6950617661
  O        15.2928813624        2.2250927289       29.9968297155
  H        14.5212532903        2.5215288298       29.4450252679
  H        14.9675853899        2.5170509334       30.8881902653
  O         9.8639083590       -7.9382202435       36.3125085150
  H        10.6597165778       -7.5960699175       36.7857648374
  H         9.5514739496       -7.1975492031       35.6482862791
  O        11.9239792809       -1.1052394712       33.6803776597
  H        12.7428936984       -0.6450003091       34.0813114818
  H        11.7328417201       -2.0215967289       34.1536941558
  O        12.4238162603       -6.4236601173       41.2439609520
  H        12.8488950253       -5.6431612251       40.7878565874
  H        11.5586575409       -6.4052170189       40.8041804537
  O        15.9290575716       -7.2517130559       33.4845176564
  H        16.5173639661       -6.4757882609       33.7137040385
  H        16.2203498780       -7.4575149640       32.5966706839
  O        -2.6172211579       -1.3462581848       24.0408206874
  H        -3.1350116976       -0.6783412792       24.5459361642
  H        -1.6990889501       -1.1268723510       24.3069749601
  O        11.0586404369        2.2845748945       40.2396819514
  H        11.6223506338        3.0863843170       40.3567120031
  H        10.1321824096        2.6307090412       40.3944524107
  O         9.4715790604       -0.0455854048       46.4090080686
  H        10.4920740639       -0.1247208080       46.3697091463
  H         9.2686043630       -0.4831066535       47.2617819944
  O         7.6090536678        4.0431981052       32.4856538578
  H         7.8365062006        3.2327925099       31.9883810468
  H         8.4494630265        3.9910545104       33.0209720210
  O        14.9126242589        2.8531846002       32.7929796986
  H        14.5964979444        1.9491746735       32.9509495205
  H        13.9799006848        3.2271651672       32.7108993926
  O        20.1421899016       -1.0775899433       31.9487383387
  H        20.8063842303       -0.7465031778       32.6214825596
  H        20.6811513915       -1.7507081468       31.4101701371
  O        11.8497066980        2.0088282838       36.2498692231
  H        11.3034380676        2.4536537111       36.9571979029
  H        12.8105077758        2.3077680440       36.3838111606
  O        14.1366670650       -4.6872501662       40.4250008564
  H        15.0623268852       -5.0928454595       40.6220147531
  H        14.0665175521       -4.0307799825       41.1136838059
  O         4.2948685643        3.5187570873       35.5970077994
  H         4.6900866218        4.1821743128       36.2344470259
  H         3.9344021392        4.0223833740       34.7713481645
  O        -0.0007860946       -0.6864255893       37.0049358264
  H        -0.3025223057        0.2622522856       36.9238244163
  H         0.2501998079       -0.7851157053       37.9636777976
  O        17.3818413914       -3.5085784531       31.9203675592
  H        16.4572952180       -3.8139959128       31.7334429153
  H        17.7306430372       -3.1045528199       31.1185353338
  O         8.6675725110       -3.7877825681       35.9555882407
  H         7.9271072151       -3.4267396433       35.3298465090
  H         9.2478074612       -3.0057088973       36.0932574114
  O         1.6915311001        0.3019684443       34.3310207028
  H         2.0146151233        0.5388062177       35.1818236991
  H         2.4072433963       -0.3056946615       33.9682414438
  O         8.5684711421        1.6184358653       43.5506657273
  H         9.4859269645        1.4572296291       43.8203900146
  H         8.0928258699        0.7619443764       43.6237908549
  O         9.8114480013        2.8684664185       33.8647118158
  H         9.6606178303        1.9054241309       34.0250576506
  H        10.1023334894        3.2571207448       34.7300554713
  O         8.4660399126       -5.0300245556       41.3715144744
  H         7.6102326286       -4.6251087071       41.0357282593
  H         8.0708447834       -5.6945428388       42.0766876681
  O         4.2925242237       -5.7272173632       41.0493246176
  H         5.0172630180       -5.1523954833       40.6784604409
  H         4.3612402047       -6.4689330805       40.3884722513
  O         0.4297022886       -6.7480011316       36.8062841023
  H         0.3739737328       -5.7991069733       37.0057020920
  H         0.4417913231       -6.7279342711       35.7781525335
  O         7.9472804069        2.9722680508       37.5350648695
  H         7.4009506792        2.7927331965       36.6918075289
  H         8.6996258641        3.3772892427       37.0715149165
  O        10.3141077604       -1.2167530938       40.5725494825
  H        10.4895759526       -2.0693597153       40.0839464218
  H         9.6158342114       -0.7634978137       40.0569819039
  O        20.0415811560       -5.4455880043       25.4599056615
  H        20.3767002186       -4.7016366265       24.9341639150
  H        20.7692196975       -5.8727214129       25.9283450003
  O         6.1590937756       -4.1144808414       27.7234106853
  H         6.5333669160       -4.4658634595       26.8760159124
  H         5.9930672072       -3.1442204088       27.5365539970
  O         7.2723342936       -6.2215864278       30.9659514791
  H         7.4406026052       -7.1133957842       31.5747115721
  H         6.3574057456       -5.9656855311       31.0345774979
  N        11.6775379552       -3.4862142071       35.1809299339
  H        10.9230880688       -4.1202291523       35.0945932228
  H        12.4687188184       -4.1004893943       34.9611864593
  H        11.7171293190       -3.1829848396       36.1756321732
