     193
 CELL 12.4294 12.4294 12.4294 90.0 90.0 90.0 i =    96520, time =    48260.000, E =     -1096.5299970079
  O         7.8787034657       -0.4236940045       48.5994218314
  H         7.3269660605       -0.8201041894       47.9329263333
  H         7.4873538446        0.3534078697       48.9737089356
  O        10.8067055904       -7.5542627907       44.9285847493
  H        11.0885934573       -7.7283807088       45.7989028224
  H        11.2538202355       -6.7419900997       44.7141910034
  O        11.0218571958       -1.0679103408       49.6731289212
  H        10.9176383508       -1.8078367066       49.0581701349
  H        11.4229068934       -1.4153418775       50.5068427049
  O         9.0726215947        1.3484912763       46.7518478919
  H         8.5178604720        0.6720576076       47.2057561434
  H         8.5381817001        2.1722365341       46.7022201330
  O        -2.1181143849       -4.9142136577       45.7333353714
  H        -1.7228184583       -4.1200615967       46.1639620245
  H        -2.6862618914       -5.4053379015       46.3876148927
  O        17.4796433188       -1.2903917880       56.6105971981
  H        17.7248293774       -0.5822472538       55.9092917034
  H        17.4911926404       -2.1491540893       56.0466213177
  O         7.2335302959       -0.0595659163       39.9567367695
  H         8.1620168585       -0.1527409455       40.1885201642
  H         6.9668700171       -1.0215895284       39.7013481913
  O        14.3354997993        4.7739378289       49.7504488216
  H        14.1397417144        5.5906044707       50.2095499136
  H        14.4351475940        4.9433968439       48.7854053748
  O         6.3815890647       -6.8416737937       37.4625457986
  H         5.9598143515       -5.9462940414       37.3323874150
  H         5.6119278148       -7.3634443095       37.8406212796
  O        12.4068393333       -1.9975543170       39.2976991565
  H        12.8583431594       -1.1461320069       39.6355093250
  H        12.5800256515       -2.8131590530       39.7749386356
  O        12.2794814643       -4.3217049090       40.6056595615
  H        11.3174546292       -4.0734142787       40.5742570587
  H        12.4034171265       -4.6336879100       41.5432719783
  O         4.1549049806        5.7549090333       43.5439508091
  H         4.9160654445        6.1122389762       42.9972639616
  H         3.6386009957        5.1118990391       42.9770353493
  O         1.2082155878       -0.0156455414       53.1984380476
  H         1.9833826478        0.4803214526       53.5282239978
  H         1.1396317713       -0.8592318874       53.7874342166
  O         8.4921573763       -1.5271239660       43.4401356754
  H         8.5709843422       -1.3025547713       42.4725028436
  H         8.4308157101       -0.6726571816       43.8816603672
  O         8.7839439108        3.6190761064       43.4697038131
  H         9.6370179797        3.9934193692       43.8158166449
  H         9.0122605246        3.4971867961       42.5151319127
  O        18.9101228240       -0.3939713984       46.3464700976
  H        18.2509609727        0.1707535179       46.7150399841
  H        18.3780681520       -0.9463426521       45.6745115395
  O        17.7432672360       -3.1182562953       41.9580278842
  H        16.7301752477       -3.1493979258       41.7467982424
  H        18.0591164219       -4.0600299107       42.0927746916
  O         9.5660367708        5.0433367795       49.0945643016
  H        10.0751725584        4.3484995204       48.6464112934
  H         8.8572827328        4.4747986667       49.5390391460
  O         7.2629462687        1.2512563651       44.0946615111
  H         7.7733786861        2.0910561111       43.9301514398
  H         7.3796122013        1.0498992049       45.0711012408
  O        10.9909280507       -6.6869799068       51.4429675530
  H        10.8222873410       -5.7840657709       51.6506437661
  H        10.4505920884       -6.9866711660       50.6451378447
  O        14.1676905093        4.5927040767       34.3775203537
  H        15.0044069972        4.0723288314       34.3680481763
  H        14.2828455438        5.3782785038       33.8317542042
  O         6.2871077373        7.0906513474       46.4099505988
  H         6.7790695250        7.5106983534       45.6982036338
  H         5.9680061025        6.2232347988       45.9799134256
  O        14.9329439544        0.2826311879       49.2818806498
  H        14.3046475899        1.0466228036       49.5036806227
  H        15.2317523531       -0.2089736521       50.0735715181
  O         7.0569807716       -8.9121912619       34.8626879953
  H         6.4930521168       -8.6264197960       34.0517879433
  H         6.9213952544       -8.0941842086       35.3808206689
  O         3.8819218040        2.7779352253       45.8762115270
  H         4.5777457830        2.8930197349       45.2526808579
  H         4.2103032713        2.1312783679       46.6130348686
  O        14.2273114970       -2.9055916628       34.4470742601
  H        14.5836784788       -2.7014403879       35.3995925741
  H        14.6271116877       -2.2748146713       33.8076027273
  O        11.7673563208      -10.3905958326       52.2844605540
  H        12.2970004321      -10.1134876053       51.4782549389
  H        12.3225325988      -11.0285333108       52.8062547686
  O        15.1725526281       -3.1525045567       40.9669892576
  H        14.8778752515       -3.9170529610       40.4045772581
  H        14.4255896079       -2.9303499952       41.5982715115
  O         7.8391867927       -4.4479533726       44.3602864921
  H         8.6640796254       -4.4685727924       44.8952846201
  H         7.7249983076       -3.4640540457       44.1084732071
  O         4.6350434287      -11.3271548333       47.9801577899
  H         3.8109112600      -11.6721122047       48.4265900674
  H         5.1106284371      -11.0258001871       48.8150919252
  O         2.3509621126       -1.2438974605       44.7353899257
  H         2.1723053191       -0.2691724581       44.7695094653
  H         3.2938314183       -1.2854009032       44.3709768316
  O         3.5974209163       -1.5915856248       51.0093969097
  H         4.6268232863       -1.7318772314       51.1086139683
  H         3.2634166078       -1.9044351681       51.8668835824
  O        13.1564833744       -7.6550080119       41.0425161517
  H        12.6365682275       -7.1884182740       40.2997120220
  H        12.8351983593       -8.5256663449       41.1346088456
  O         5.6593531248        1.7497419347       38.1581783803
  H         5.9688183318        1.2479033783       38.9669843886
  H         5.0892824129        2.5097157179       38.5384275716
  O        18.1299175190        0.5812973430       42.1502139900
  H        18.7323300652        0.4331850612       41.3954374359
  H        18.7083741971        0.8997725319       42.8523607958
  O        16.6529502132        4.2362859753       38.7315232826
  H        15.9115996249        4.1707478739       38.1019168665
  H        16.3165953289        4.3981170298       39.6593231312
  O        12.2481521476       -5.9952936832       43.0422474146
  H        13.0264055620       -5.6823420675       43.5774903752
  H        12.5790393662       -6.8238603682       42.5695014505
  O        13.3791582222       -2.1431609319       42.5650801479
  H        13.6888237620       -1.9892896133       43.4905599192
  H        12.3625196033       -2.5551054239       42.6133231208
  O        14.1844764670       -5.5423886696       51.4008499906
  H        14.2786786911       -4.8454026801       50.6170311432
  H        13.2909937464       -5.2941932107       51.7250286229
  O        18.7961990515       -5.8059409142       42.0901126153
  H        19.5674220656       -5.5567324949       42.7189059696
  H        19.2923493546       -6.2843942335       41.3541795443
  O        -1.7382561313       -0.2431791438       32.8655656487
  H        -2.2865238124        0.4123880506       33.3919718896
  H        -0.7755820262       -0.1792761777       33.2242487835
  O        13.3033552160        2.4922993489       49.8099685034
  H        13.4823374868        3.4989509941       49.7378376508
  H        12.3956586312        2.3360840235       49.4068017604
  O        10.3354232686        1.1709605052       55.4035194093
  H        10.4112291212        0.8258921386       56.3126587826
  H         9.3987125644        1.4821922266       55.3550790318
  O         9.3246388087        3.2071923365       40.7576570764
  H         8.8147421222        3.2906225564       39.9300379903
  H        10.1151555047        2.7419007782       40.4120464927
  O        15.6409722910        4.1913490207       41.5531293670
  H        15.6162060666        3.1622465516       41.6621967661
  H        14.7476325298        4.4376212458       41.2662767687
  O        22.2239965478       -0.5493681075       41.1176078655
  H        22.5425644208       -0.0783519519       41.9284566370
  H        22.8971833643       -1.0679790929       40.6637452977
  O        14.4212724317        1.4814351801       44.5073704303
  H        13.6733277519        2.0518576285       44.2337076883
  H        15.0044760305        2.0552582083       45.0719199199
  O        15.1097093698       -3.6805759454       49.4890547294
  H        15.9935280089       -4.0350648954       49.1974361334
  H        15.4581890232       -3.0959375407       50.1618427067
  O         6.1354949027        4.6800954351       45.0173913799
  H         6.9964207026        4.5108076665       44.6050470162
  H         5.3972223989        4.9208497249       44.3417451574
  O         0.2271593325        0.3713097990       47.4796950869
  H         1.0859922527        0.4474938132       47.0853333477
  H         0.3363730356       -0.1934496146       48.2633054328
  O        18.4487219878       -2.2810529495       39.4712129275
  H        18.3409774372       -2.6218388432       40.4100878630
  H        18.9743975421       -2.9408712100       38.9767199932
  O        11.3610570146       -2.8472475473       47.2779405488
  H        11.0204704605       -2.0979330204       46.6798875960
  H        12.3958602065       -2.8816585266       47.2447001303
  O         3.1887829396        1.6382975871       41.8382539865
  H         2.8906527241        1.6586083033       42.7894456501
  H         4.1311893713        1.3766370374       42.0165055323
  O         8.2352698209        3.2234641477       50.4485022174
  H         9.0763080115        2.5625228965       50.3137325704
  H         7.4636361413        2.6550911266       50.1907927576
  O        12.3313910326        3.1322937341       43.3451039450
  H        11.6722559404        2.5631633662       43.0437590935
  H        11.8794305132        3.7142788053       44.0253925330
  O         9.4981165650       -3.9380711252       52.3640775469
  H         9.2318307362       -3.4316059101       51.5892773014
  H         8.8918021994       -4.7366387615       52.2666108822
  O         5.4111431715       -4.3496443817       48.9586745879
  H         6.1741542924       -3.8361259873       49.1373374760
  H         5.4460270382       -4.5055726327       47.9873531927
  O         2.4912092543       -5.4781679335       45.3284412047
  H         2.5989494761       -4.5926988388       45.7085587839
  H         3.2563051393       -5.6860305784       44.6865199325
  O        11.6072914224        3.5578582123       47.2621872407
  H        11.6702055231        2.6022759287       47.0414267244
  H        12.5211025271        3.9004124208       47.2155563137
  O        10.2911445035        1.6016157108       49.5019018350
  H        10.5047883341        0.5906924926       49.6488451281
  H         9.9594521979        1.5316182496       48.6038226975
  O        21.0634126573       -5.1461788963       35.5893531017
  H        20.1411687211       -5.4402096546       35.4490191260
  H        21.4269055417       -5.9373631274       36.0998748366
  O         8.4011783776       -3.0215260298       37.6290088846
  H         8.6886630302       -3.4810399072       36.7525988552
  H         8.3882343077       -2.0254813752       37.4046523696
  O         7.9506596277       -6.3179869115       39.8910014932
  H         8.5853940493       -7.0074693006       40.0241319179
  H         7.3453454323       -6.6843791082       39.1778809901
  N        10.8912750927       -3.2431932678       42.9763629266
  H        10.8533314797       -4.0999688890       43.5731348252
  H        10.4279822222       -2.5152712734       43.5531741960
  H        10.1472228743       -3.3378389463       42.2440430211
