     193
 CELL 12.4294 12.4294 12.4294 90.0 90.0 90.0 i =    40120, time =    20060.000, E =     -1096.5412235697
  O        -1.8092118781        0.5685148959       18.5489239562
  H        -1.5280403763       -0.0224936273       17.8109025740
  H        -2.6096800738        1.1348973519       18.3117303277
  O         1.5773229418       -7.8766346769       13.3960159789
  H         2.2870684791       -8.5612237142       13.5293326437
  H         1.4596648524       -7.3899269507       14.2478411137
  O         1.6444718551       -6.4993615037       15.8456133191
  H         1.9495199355       -7.0091893301       16.6371670367
  H         0.7600031747       -6.0644942576       16.0490811124
  O        -0.6507519799       -0.3077096004       16.4093538167
  H         0.3756610629       -0.1386246306       16.3967460608
  H        -0.9432420618       -0.9418840770       15.6439316261
  O       -10.6442065861       -4.1314004801       11.6201426080
  H       -11.5581944505       -3.6493963708       11.7828568463
  H       -10.3149715364       -3.7088689733       10.7806274812
  O         5.0748992976       -5.6964873983       20.6344589013
  H         4.7705932429       -4.9333314012       20.0895998387
  H         4.3104120625       -5.9841362829       21.1825720829
  O        -2.8594772269       -1.1626440441        8.2478162413
  H        -2.9347860928       -0.9133440442        9.1749187925
  H        -2.3970904901       -0.5955989858        7.5753074979
  O         5.5497558666        4.9392520555       18.0321748970
  H         4.5860333269        5.1492040730       18.1628945838
  H         5.5180857988        4.3782499842       17.2395861202
  O        -2.8086738192       -8.0570621740        4.5796607837
  H        -2.0624429290       -8.6426365840        4.5246770894
  H        -2.8384458578       -7.8062371439        5.5422371096
  O         0.4861676946       -1.0228328343        8.8087897963
  H        -0.3360578468       -0.9758031611        9.3342608343
  H         0.1118342006       -1.4295181090        7.9266544922
  O         1.5983868835       -4.8074556989        7.1842304847
  H         1.9637121081       -4.2341782098        7.9113905700
  H         1.0163955555       -5.5069778691        7.6117650023
  O        -9.2938500444        5.1617928588        9.5099088333
  H        -8.6781148848        4.4462766755        9.8976162315
  H        -9.8885388718        5.4904066958       10.2196982656
  O        -9.8364514196       -1.6552659725       17.0785566260
  H        -9.2342196535       -1.0159316747       17.4876926156
  H       -10.0077342513       -1.5281481070       16.0941312006
  O        -1.4608041450       -3.6921673289        9.2107171542
  H        -1.4308255017       -3.2070881251        8.3693542611
  H        -2.3192307602       -3.4494739277        9.5695743359
  O        -0.5209357031        1.2288601160       10.7180230686
  H        -0.6813840005        1.6208584983       11.6246895708
  H        -0.7522334178        1.8471273614       10.0016574890
  O         8.6456791089        0.1718139408       14.5948530225
  H         8.4413667381        0.3470007133       13.6592780419
  H         9.0443798121       -0.7320226812       14.4780708579
  O         4.6611376687       -3.5912918854        5.5400993410
  H         5.1662401816       -4.0728471338        4.8323938347
  H         3.9607682092       -3.1169700508        5.0749342966
  O         1.4288001226        1.4737100221       16.6226590831
  H         2.1019177188        1.4068138523       17.3700299970
  H         0.6222093673        1.9612895482       16.9078092233
  O         0.9781812900       -0.9025659423       11.6329872126
  H         0.5624144361       -0.1131376090       11.2180373392
  H         1.2165333029       -0.7407111373       12.5944596606
  O        -1.2450118476       -5.8920007825       16.0814090937
  H        -1.5979513451       -5.1105023233       16.5234488417
  H        -1.7521887057       -6.7033920552       16.3810730321
  O         5.2952420638        3.8417601323        2.8439847711
  H         6.0840638914        3.2988327706        2.5585958871
  H         5.4512969102        4.7318323533        2.4336076451
  O        -1.8835288025        2.0255990721       15.5122462731
  H        -2.7976420431        1.7677527953       15.3147950435
  H        -1.5027293463        1.1312105313       15.6958440706
  O         6.1689358771        0.7685223845       17.5519820856
  H         6.8817699818        1.4748154652       17.5932348337
  H         6.4718823127        0.0110246016       18.1111939837
  O        -3.3343681848       -7.6270888063        7.2295550566
  H        -3.6921011810       -6.7940330022        7.7185446157
  H        -2.6096221352       -8.0422745396        7.8274934087
  O        -4.8244242516        1.2219287912       12.0418666001
  H        -4.7345213705        2.1739041485       11.9185257087
  H        -5.7934246287        1.0062978586       11.8238015755
  O         6.6890283438       -5.2206847301        4.4810089125
  H         6.3676883138       -5.9956340411        5.0010309697
  H         6.4966089241       -5.4586473131        3.5638826641
  O         3.6473541639      -11.4353564704       18.3512917949
  H         3.7210583318      -11.5528667392       19.3323297885
  H         4.6213024038      -11.3158789977       18.2033711515
  O         2.6153577222       -2.8714504707        9.2305264138
  H         1.9363061986       -2.1887929896        9.1516254331
  H         3.5011296117       -2.3589288007        9.2740784467
  O        -3.1591551321       -5.8599399797       10.8324091388
  H        -3.1639296705       -5.3841732320       11.7068336501
  H        -2.6829380351       -6.6962768411       10.9826920999
  O        -4.0156180115      -10.4774622546       18.2557150718
  H        -4.6197064625      -10.1021287026       18.9666996316
  H        -3.7306522383       -9.6353349800       17.7719015149
  O        -4.3703742893       -3.6569702172       14.0156525214
  H        -5.2667889228       -3.3707804881       13.9708255456
  H        -4.0322718281       -3.2148426243       14.7784972162
  O        -6.2162868661       -1.6572646220       18.9705225527
  H        -6.8925134154       -2.2467051450       18.5147927936
  H        -5.4259205855       -2.1849132177       19.0203354097
  O         1.4021025342       -9.1092175308        7.8195362914
  H         1.7532436863       -8.7477343405        8.6609116185
  H         1.9825558562       -9.9706542514        7.7144752157
  O        -2.9081683994       -0.4444275547       10.8849484663
  H        -3.5740193487        0.2338202229       11.1021915318
  H        -2.0328535385        0.0049603299       10.9372889499
  O         7.9900609035       -5.7368134522        8.4747440215
  H         6.9431365874       -5.6981282581        8.5314433384
  H         8.4142007814       -5.4000773162        9.2700338805
  O         6.7951843800        3.3410951035        7.4270739060
  H         6.2623589329        4.0145888985        6.8741273615
  H         7.7246664448        3.8028402203        7.4885291589
  O         3.4353831252       -4.7874279627       14.2689749573
  H         2.8287725424       -5.3133739502       14.8517072820
  H         2.9685185093       -4.7409574696       13.4281756134
  O         4.8855677190       -1.5179410654        9.2406126693
  H         5.3630235923       -1.3565697732        8.4259115653
  H         5.4712361365       -2.2204840792        9.7479269333
  O         0.2353778839       -2.4337141312       18.6821253151
  H         0.9224638833       -2.0128248661       18.0791307093
  H         0.7252514749       -3.2443210304       18.9928012975
  O         6.9038863187       -7.9619863592       12.0004828068
  H         7.6703922682       -7.7062139127       11.4420409309
  H         6.2545635773       -8.4067970103       11.3924421414
  O        -6.9231146771       -2.8421443139        1.2901817610
  H        -7.5316192994       -3.4846034093        1.7455504608
  H        -6.7958886199       -2.0169068660        1.8711565053
  O         2.9239236728        5.3145905826       18.4159182727
  H         2.6953267784        6.2025660416       18.8168558351
  H         2.6640598423        4.7141005795       19.1574921359
  O         2.6302889434        0.9143707927       21.0212071921
  H         1.9084087647        0.2479194359       21.1864756468
  H         3.1097848808        0.9618358239       21.8977831609
  O        -1.1886087418        4.7501362684       11.2905557320
  H        -0.3069744928        5.2573362993       11.2993997409
  H        -1.1064245592        3.9431655969       12.0494972239
  O         5.3083555308        3.3008086820        9.9234296479
  H         5.2205204434        2.3441648917       10.1972429006
  H         5.6925620138        3.3703229816        9.0483833924
  O        10.9493128208        3.3383610463        8.9729552494
  H        11.1025437999        3.8390697191        9.8770943815
  H        11.8064492034        3.5205417981        8.5023652833
  O         4.9408532327        0.8252679846       11.0572047953
  H         4.9365875225       -0.0783493211       10.6468476066
  H         4.6107977053        0.7995334305       11.9971277397
  O         6.0341114726       -0.4663706636       15.0795345061
  H         5.9106001592       -0.0225360418       15.9538397582
  H         7.0045553818       -0.2141210513       14.9467594792
  O        -0.8568744252        2.7683678689       13.0767132882
  H         0.0044758780        3.1475746897       13.2459838249
  H        -1.2456508685        2.4196203793       13.9813905079
  O        -8.2429871407        0.4891299215       13.4934453419
  H        -7.5881621703        0.0740406534       14.0898090918
  H        -8.7038474341        1.3048776777       13.9161349490
  O         8.5125488103       -3.3268181407        6.8810057965
  H         8.3800995019       -4.2718470407        7.2462565511
  H         8.8192156507       -2.8092341502        7.6442414795
  O        -0.6076585530       -3.0320163352       12.4109606068
  H        -0.4810840625       -2.1599729083       12.0025979191
  H        -1.3996044985       -3.3860413849       12.0329315544
  O        -3.4862788357       -3.1698228764       11.4176001623
  H        -3.3786605487       -2.1982524907       11.2999373692
  H        -4.0384817789       -3.3019466279       12.2321840135
  O        -0.5108570252        3.1754347077       17.8799764664
  H        -0.1650987363        3.5276254960       18.7164549524
  H        -0.8901523069        2.2910879090       18.2354601923
  O         1.2703901427        5.8377069547       11.0788030197
  H         1.2700634344        6.8411433608       11.2699453494
  H         1.3733585397        5.4364788804       12.0274406774
  O        -1.9407178081       -3.5680295932       17.1424397026
  H        -1.1855695091       -3.0953339125       17.5962746863
  H        -2.7926054585       -3.4909199338       17.6224009512
  O        -1.8275722098       -2.1735678506       14.9576821452
  H        -1.4141186720       -2.5380341821       14.1984116496
  H        -1.6805775130       -2.7852433108       15.6627224635
  O        -6.4013403464       -6.4309949702       14.0237919931
  H        -7.1314776603       -5.8987623691       13.6435485451
  H        -5.9576931273       -6.8882446437       13.3091144094
  O         2.8664177034        2.5155990861       14.5395310760
  H         2.2363834258        2.1878423805       15.3106398798
  H         3.5629685085        3.0130792319       14.9704656930
  O         2.2964031404       -1.5015263428       14.2037497186
  H         3.0671407202       -0.9831643178       13.7611294711
  H         2.4789061434       -2.4298132826       13.9431593723
  O         8.1074269953       -8.6785057331        2.1656829155
  H         8.1650743814       -7.7971434341        1.7867754799
  H         8.7363622159       -8.6254709733        2.9576090042
  O        -3.4120545658       -6.1436264921        1.3388136193
  H        -3.9594810145       -5.3554144345        1.6609881831
  H        -2.5415330811       -5.9907650047        1.8236072873
  O        -0.2621669604       -6.2991081008        8.7912126246
  H        -0.0508774199       -6.6940906609        9.6198636663
  H        -0.8377945833       -5.5231658012        9.0423519667
  N         6.0179399698       -3.4587598387       10.7692056323
  H         5.8436868833       -3.2799566310       11.7572625567
  H         5.6699270256       -4.3217155796       10.4877980241
  H         7.0291845452       -3.5516022825       10.5978399525
