

     ************************************************************************
     *************** Dalton - An Electronic Structure Program ***************
     ************************************************************************

    This is output from DALTON release Dalton2017.alpha (2016)
         ( Web site: http://daltonprogram.org )

   ----------------------------------------------------------------------------

    NOTE:
     
    Dalton is an experimental code for the evaluation of molecular
    properties using (MC)SCF, DFT, CI, and CC wave functions.
    The authors accept no responsibility for the performance of
    the code or for the correctness of the results.
     
    The code (in whole or part) is provided under a licence and
    is not to be reproduced for further distribution without
    the written permission of the authors or their representatives.
     
    See the home page "http://daltonprogram.org" for further information.
     
    If results obtained with this code are published,
    the appropriate citations would be both of:
     
       K. Aidas, C. Angeli, K. L. Bak, V. Bakken, R. Bast,
       L. Boman, O. Christiansen, R. Cimiraglia, S. Coriani,
       P. Dahle, E. K. Dalskov, U. Ekstroem,
       T. Enevoldsen, J. J. Eriksen, P. Ettenhuber, B. Fernandez,
       L. Ferrighi, H. Fliegl, L. Frediani, K. Hald, A. Halkier,
       C. Haettig, H. Heiberg, T. Helgaker, A. C. Hennum,
       H. Hettema, E. Hjertenaes, S. Hoest, I.-M. Hoeyvik,
       M. F. Iozzi, B. Jansik, H. J. Aa. Jensen, D. Jonsson,
       P. Joergensen, J. Kauczor, S. Kirpekar,
       T. Kjaergaard, W. Klopper, S. Knecht, R. Kobayashi, H. Koch,
       J. Kongsted, A. Krapp, K. Kristensen, A. Ligabue,
       O. B. Lutnaes, J. I. Melo, K. V. Mikkelsen, R. H. Myhre,
       C. Neiss, C. B. Nielsen, P. Norman, J. Olsen,
       J. M. H. Olsen, A. Osted, M. J. Packer, F. Pawlowski,
       T. B. Pedersen, P. F. Provasi, S. Reine, Z. Rinkevicius,
       T. A. Ruden, K. Ruud, V. Rybkin, P. Salek, C. C. M. Samson,
       A. Sanchez de Meras, T. Saue, S. P. A. Sauer,
       B. Schimmelpfennig, K. Sneskov, A. H. Steindal,
       K. O. Sylvester-Hvid, P. R. Taylor, A. M. Teale,
       E. I. Tellgren, D. P. Tew, A. J. Thorvaldsen, L. Thoegersen,
       O. Vahtras, M. A. Watson, D. J. D. Wilson, M. Ziolkowski
       and H. Agren,
       "The Dalton quantum chemistry program system",
       WIREs Comput. Mol. Sci. 2014, 4:269–284 (doi: 10.1002/wcms.1172)
     
    and
     
       Dalton, a Molecular Electronic Structure Program,
       Release Dalton2017.alpha (2016), see http://daltonprogram.org
   ----------------------------------------------------------------------------

    Authors in alphabetical order (major contribution(s) in parenthesis):

  Kestutis Aidas,           Vilnius University,           Lithuania   (QM/MM)
  Celestino Angeli,         University of Ferrara,        Italy       (NEVPT2)
  Keld L. Bak,              UNI-C,                        Denmark     (AOSOPPA, non-adiabatic coupling, magnetic properties)
  Vebjoern Bakken,          University of Oslo,           Norway      (DALTON; geometry optimizer, symmetry detection)
  Radovan Bast,             UiT The Arctic U. of Norway,  Norway      (DALTON installation and execution frameworks)
  Pablo Baudin,             University of Valencia,       Spain       (Cholesky excitation energies)
  Linus Boman,              NTNU,                         Norway      (Cholesky decomposition and subsystems)
  Ove Christiansen,         Aarhus University,            Denmark     (CC module)
  Renzo Cimiraglia,         University of Ferrara,        Italy       (NEVPT2)
  Sonia Coriani,            University of Trieste,        Italy       (CC module, MCD in RESPONS)
  Janusz Cukras,            University of Trieste,        Italy       (MChD in RESPONS)
  Paal Dahle,               University of Oslo,           Norway      (Parallelization)
  Erik K. Dalskov,          UNI-C,                        Denmark     (SOPPA)
  Thomas Enevoldsen,        Univ. of Southern Denmark,    Denmark     (SOPPA)
  Janus J. Eriksen,         Aarhus University,            Denmark     (Polarizable embedding model, TDA)
  Rasmus Faber,             University of Copenhagen,     Denmark     (Vib.avg. NMR with SOPPA, parallel AO-SOPPA)
  Berta Fernandez,          U. of Santiago de Compostela, Spain       (doublet spin, ESR in RESPONS)
  Lara Ferrighi,            Aarhus University,            Denmark     (PCM Cubic response)
  Heike Fliegl,             University of Oslo,           Norway      (CCSD(R12))
  Luca Frediani,            UiT The Arctic U. of Norway,  Norway      (PCM)
  Bin Gao,                  UiT The Arctic U. of Norway,  Norway      (Gen1Int library)
  Christof Haettig,         Ruhr-University Bochum,       Germany     (CC module)
  Kasper Hald,              Aarhus University,            Denmark     (CC module)
  Asger Halkier,            Aarhus University,            Denmark     (CC module)
  Frederik Beyer Hansen,    University of Copenhagen,     Denmark     (Parallel AO-SOPPA)
  Erik D. Hedegaard,        Univ. of Southern Denmark,    Denmark     (Polarizable embedding model, QM/MM)
  Hanne Heiberg,            University of Oslo,           Norway      (geometry analysis, selected one-electron integrals)
  Trygve Helgaker,          University of Oslo,           Norway      (DALTON; ABACUS, ERI, DFT modules, London, and much more)
  Alf Christian Hennum,     University of Oslo,           Norway      (Parity violation)
  Hinne Hettema,            University of Auckland,       New Zealand (quadratic response in RESPONS; SIRIUS supersymmetry)
  Eirik Hjertenaes,         NTNU,                         Norway      (Cholesky decomposition)
  Pi A. B. Haase,           University of Copenhagen,     Denmark     (Triplet AO-SOPPA)
  Maria Francesca Iozzi,    University of Oslo,           Norway      (RPA)
  Brano Jansik              Technical Univ. of Ostrava    Czech Rep.  (DFT cubic response)
  Hans Joergen Aa. Jensen,  Univ. of Southern Denmark,    Denmark     (DALTON; SIRIUS, RESPONS, ABACUS modules, London, and much more)
  Dan Jonsson,              UiT The Arctic U. of Norway,  Norway      (cubic response in RESPONS module)
  Poul Joergensen,          Aarhus University,            Denmark     (RESPONS, ABACUS, and CC modules)
  Maciej Kaminski,          University of Warsaw,         Poland      (CPPh in RESPONS)
  Joanna Kauczor,           Linkoeping University,        Sweden      (Complex polarization propagator (CPP) module)
  Sheela Kirpekar,          Univ. of Southern Denmark,    Denmark     (Mass-velocity & Darwin integrals)
  Wim Klopper,              KIT Karlsruhe,                Germany     (R12 code in CC, SIRIUS, and ABACUS modules)
  Stefan Knecht,            ETH Zurich,                   Switzerland (Parallel CI and MCSCF)
  Rika Kobayashi,           Australian National Univ.,    Australia   (DIIS in CC, London in MCSCF)
  Henrik Koch,              NTNU,                         Norway      (CC module, Cholesky decomposition)
  Jacob Kongsted,           Univ. of Southern Denmark,    Denmark     (Polarizable embedding model, QM/MM)
  Andrea Ligabue,           University of Modena,         Italy       (CTOCD, AOSOPPA)
  Nanna H. List             Univ. of Southern Denmark,    Denmark     (Polarizable embedding model)
  Ola B. Lutnaes,           University of Oslo,           Norway      (DFT Hessian)
  Juan I. Melo,             University of Buenos Aires,   Argentina   (LRESC, Relativistic Effects on NMR Shieldings)
  Kurt V. Mikkelsen,        University of Copenhagen,     Denmark     (MC-SCRF and QM/MM)
  Rolf H. Myhre,            NTNU,                         Norway      (Cholesky, subsystems and ECC2)
  Christian Neiss,          Univ. Erlangen-Nuernberg,     Germany     (CCSD(R12))
  Christian B. Nielsen,     University of Copenhagen,     Denmark     (QM/MM)
  Patrick Norman,           Linkoeping University,        Sweden      (Cubic response and complex frequency response in RESPONS)
  Jeppe Olsen,              Aarhus University,            Denmark     (SIRIUS CI/density modules)
  Jogvan Magnus H. Olsen,   Univ. of Southern Denmark,    Denmark     (Polarizable embedding model, QM/MM)
  Anders Osted,             Copenhagen University,        Denmark     (QM/MM)
  Martin J. Packer,         University of Sheffield,      UK          (SOPPA)
  Filip Pawlowski,          Kazimierz Wielki University,  Poland      (CC3)
  Morten N. Pedersen,       Univ. of Southern Denmark,    Denmark     (Polarizable embedding model)
  Thomas B. Pedersen,       University of Oslo,           Norway      (Cholesky decomposition)
  Patricio F. Provasi,      University of Northeastern,   Argentina   (Analysis of coupling constants in localized orbitals)
  Zilvinas Rinkevicius,     KTH Stockholm,                Sweden      (open-shell DFT, ESR)
  Elias Rudberg,            KTH Stockholm,                Sweden      (DFT grid and basis info)
  Torgeir A. Ruden,         University of Oslo,           Norway      (Numerical derivatives in ABACUS)
  Kenneth Ruud,             UiT The Arctic U. of Norway,  Norway      (DALTON; ABACUS magnetic properties and much more)
  Pawel Salek,              KTH Stockholm,                Sweden      (DALTON; DFT code)
  Claire C. M. Samson       University of Karlsruhe       Germany     (Boys localization, r12 integrals in ERI)
  Alfredo Sanchez de Meras, University of Valencia,       Spain       (CC module, Cholesky decomposition)
  Trond Saue,               Paul Sabatier University,     France      (direct Fock matrix construction)
  Stephan P. A. Sauer,      University of Copenhagen,     Denmark     (SOPPA(CCSD), SOPPA prop., AOSOPPA, vibrational g-factors)
  Bernd Schimmelpfennig,    Forschungszentrum Karlsruhe,  Germany     (AMFI module)
  Kristian Sneskov,         Aarhus University,            Denmark     (Polarizable embedding model, QM/MM)
  Arnfinn H. Steindal,      UiT The Arctic U. of Norway,  Norway      (parallel QM/MM, Polarizable embedding model)
  Casper Steinmann,         Univ. of Southern Denmark,    Denmark     (QFIT, Polarizable embedding model)
  K. O. Sylvester-Hvid,     University of Copenhagen,     Denmark     (MC-SCRF)
  Peter R. Taylor,          VLSCI/Univ. of Melbourne,     Australia   (Symmetry handling ABACUS, integral transformation)
  Andrew M. Teale,          University of Nottingham,     England     (DFT-AC, DFT-D)
  David P. Tew,             University of Bristol,        England     (CCSD(R12))
  Olav Vahtras,             KTH Stockholm,                Sweden      (triplet response, spin-orbit, ESR, TDDFT, open-shell DFT)
  David J. Wilson,          La Trobe University,          Australia   (DFT Hessian and DFT magnetizabilities)
  Hans Agren,               KTH Stockholm,                Sweden      (SIRIUS module, RESPONS, MC-SCRF solvation model)
 --------------------------------------------------------------------------------

     Date and time (Linux)  : Wed Dec 19 13:50:19 2018
     Host name              : n-62-23-10                              

 * Work memory size             :  1280000000 =  9.537 gigabytes.

 * Directories for basis set searches:
   1) /zhome/37/3/129401/NH3NH4/CCSD
   2) /zhome/9a/4/124800/source/dalton/build-mlcc/basis


Compilation information
-----------------------

 Who compiled             | rfaber
 Host                     | hpclogin1
 System                   | Linux-2.6.32-696.1.1.el6.x86_64
 CMake generator          | Unix Makefiles
 Processor                | x86_64
 64-bit integers          | ON
 MPI                      | OFF
 Fortran compiler         | /opt/intel/2016update2/compilers_and_libraries_201
                          | 6.2.181/linux/bin/intel64/ifort
 Fortran compiler version | ifort (IFORT) 16.0.2 20160204
 C compiler               | /opt/intel/2016update2/compilers_and_libraries_201
                          | 6.2.181/linux/bin/intel64/icc
 C compiler version       | icc (ICC) 16.0.2 20160204
 C++ compiler             | /opt/intel/2016update2/compilers_and_libraries_201
                          | 6.2.181/linux/bin/intel64/icpc
 C++ compiler version     | icpc (ICC) 16.0.2 20160204
 Static linking           | OFF
 Last Git revision        | bb4d1599ca5680a9f3980451fc8bbefdba436d59
 Git branch               | mlcc
 Configuration time       | 2017-06-13 16:11:03.928841


   Content of the .dal input file
 ----------------------------------

**DALTON
.RUN WAVE FUNCTIONS
*QMMM
.QMMM
**INTEGRALS
.DIPLEN
**WAVE FUNCTIONS
.CC
*PRINT
!To check the origin of excit
.PRINTL
   0 11
*SCF INP
.THRESH
1.0D-7
*CC INP
.CCSD
.THRLEQ
 1.0D-9
.THRENR
 1.0D-10
.FROIMP
4
0
.PRINT
 1
.MAX IT
 1200
.MAXRED
 1200
.MXLRV
1199
*CCSLV
.CCMM
.MXSLIT
200
.MXINIT
4 5
*CCEXCI
.NCCEXC
 15
.CVSEPARA
1
1
*CCLRSD
.DIPOLE
**END OF DALTON INPUT


   Content of the .mol file
 ----------------------------

ATOMBASIS


Atomtypes=4 Charge=1 Nosymm Angstrom
   7.00000    1    Basis=6-31G**
N          0.000000        0.000000        0.000000
   1.00000    4    Basis=6-31G**
H         -0.112056        0.826728       -0.621615
H          0.861780       -0.386913       -0.433710
H         -0.830681       -0.681981        0.014581
H          0.326220        0.231556        0.925057
   8.00000    4    Basis=6-31G**
O          0.232816        2.105672       -1.793888
O         -2.413538       -1.137317       -0.152441
O          2.309668       -0.154431        1.652299
O          2.255505       -1.317352       -1.498130
   1.00000    8    Basis=6-31G**
H         -0.261784        2.028034       -2.700384
H          1.198413        2.216169       -2.069678
H         -2.512175       -2.113269       -0.337352
H         -3.091959       -0.666527        0.410825
H          2.707529        0.669763        1.328129
H          2.328645        0.007792        2.619872
H          2.387514       -2.270762       -1.217689
H          3.119135       -0.823974       -1.305614


       *******************************************************************
       *********** Output from DALTON general input processing ***********
       *******************************************************************

 --------------------------------------------------------------------------------
   Overall default print level:    0
   Print level for DALTON.STAT:    1

    HERMIT 1- and 2-electron integral sections will be executed
    "Old" integral transformation used (limited to max 255 basis functions)
    Wave function sections will be executed (SIRIUS module)
 --------------------------------------------------------------------------------


 Changes of defaults for *QMMM  :
 --------------------------------

 +------------------+
 |  WORD: | CHANGE: |
 +------------------+
 |   QMMM |       T |
 +------------------+
 


   ****************************************************************************
   *************** Output of molecule and basis set information ***************
   ****************************************************************************


    The two title cards from your ".mol" input:
    ------------------------------------------------------------------------
 1:                                                                         
 2:                                                                         
    ------------------------------------------------------------------------

  Coordinates are entered in Angstrom and converted to atomic units.
          - Conversion factor : 1 bohr = 0.52917721 A

  Atomic type no.    1
  --------------------
  Nuclear charge:   7.00000
  Number of symmetry independent centers:    1
  Number of basis sets to read;    2
  The basis set is "6-31G**" from the basis set library.
  Basis set file used for this atomic type with Z =   7 :
     "/zhome/9a/4/124800/source/dalton/build-mlcc/basis/6-31G**"

  Info about the basis set file: your basis has no documentation.
  Basis set: 6-31G**                                                                         

  Atomic type no.    2
  --------------------
  Nuclear charge:   1.00000
  Number of symmetry independent centers:    4
  Number of basis sets to read;    2
  The basis set is "6-31G**" from the basis set library.
  Basis set file used for this atomic type with Z =   1 :
     "/zhome/9a/4/124800/source/dalton/build-mlcc/basis/6-31G**"

  Info about the basis set file: your basis has no documentation.
  Basis set: 6-31G**                                                                         

  Atomic type no.    3
  --------------------
  Nuclear charge:   8.00000
  Number of symmetry independent centers:    4
  Number of basis sets to read;    2
  The basis set is "6-31G**" from the basis set library.
  Basis set file used for this atomic type with Z =   8 :
     "/zhome/9a/4/124800/source/dalton/build-mlcc/basis/6-31G**"

  Info about the basis set file: your basis has no documentation.
  Basis set: 6-31G**                                                                         

  Atomic type no.    4
  --------------------
  Nuclear charge:   1.00000
  Number of symmetry independent centers:    8
  Number of basis sets to read;    2
  The basis set is "6-31G**" from the basis set library.
  Basis set file used for this atomic type with Z =   1 :
     "/zhome/9a/4/124800/source/dalton/build-mlcc/basis/6-31G**"

  Info about the basis set file: your basis has no documentation.
  Basis set: 6-31G**                                                                         


                         SYMGRP: Point group information
                         -------------------------------

@    Point group: C1 


                                 Isotopic Masses
                                 ---------------

                           N          14.003074
                           H           1.007825
                           H           1.007825
                           H           1.007825
                           H           1.007825
                           O          15.994915
                           O          15.994915
                           O          15.994915
                           O          15.994915
                           H           1.007825
                           H           1.007825
                           H           1.007825
                           H           1.007825
                           H           1.007825
                           H           1.007825
                           H           1.007825
                           H           1.007825

                       Total mass:    90.076634 amu
                       Natural abundance:  98.500 %

 Center-of-mass coordinates (a.u.):    0.929533   -0.189299   -0.673000


  Atoms and basis sets
  --------------------

  Number of atom types :    4
  Total number of atoms:   17

  label    atoms   charge   prim   cont     basis
  ----------------------------------------------------------------------
  N           1    7.0000    27    14      [10s4p1d|3s2p1d]                                   
  H           4    1.0000     7     5      [4s1p|2s1p]                                        
  O           4    8.0000    27    14      [10s4p1d|3s2p1d]                                   
  H           8    1.0000     7     5      [4s1p|2s1p]                                        
  ----------------------------------------------------------------------
  total:     17   51.0000   219   130
  ----------------------------------------------------------------------
  Spherical harmonic basis used.

  Threshold for neglecting AO integrals:  1.00D-12


  Cartesian Coordinates (a.u.)
  ----------------------------

  Total number of coordinates:   51
  N       :     1  x   0.0000000000    2  y   0.0000000000    3  z   0.0000000000
  H       :     4  x  -0.2117551507    5  y   1.5622894999    6  z  -1.1746821052
  H       :     7  x   1.6285281800    8  y  -0.7311596042    9  z  -0.8195931177
  H       :    10  x  -1.5697595872   11  y  -1.2887573124   12  z   0.0275540966
  H       :    13  x   0.6164664565   14  y   0.4375774226   15  z   1.7481043800
  O       :    16  x   0.4399584775   17  y   3.9791433891   18  z  -3.3899570189
  O       :    19  x  -4.5609258123   20  y  -2.1492176473   21  z  -0.2880717402
  O       :    22  x   4.3646399597   23  y  -0.2918322952   24  z   3.1223925866
  O       :    25  x   4.2622867236   26  y  -2.4894344902   27  z  -2.8310553996
  H       :    28  x  -0.4947000639   29  y   3.8324288322   30  z  -5.1029861923
  H       :    31  x   2.2646723546   32  y   4.1879524567   33  z  -3.9111245869
  H       :    34  x  -4.7473227281   35  y  -3.9934996384   36  z  -0.6375028877
  H       :    37  x  -5.8429556997   38  y  -1.2595534849   39  z   0.7763467353
  H       :    40  x   5.1164882855   41  y   1.2656686387   42  z   2.5098000687
  H       :    43  x   4.4005012923   44  y   0.0147247460   45  z   4.9508405625
  H       :    46  x   4.5117475796   47  y  -4.2911182750   48  z  -2.3010987154
  H       :    49  x   5.8943108969   50  y  -1.5570851941   51  z  -2.4672528850

  Max    interatomic separation is    6.4458 Angstrom (   12.1808 Bohr)
  between atoms   17 and   13, "H     " and "H     ".

  Min HX interatomic separation is    0.9709 Angstrom (    1.8348 Bohr)

  Min YX interatomic separation is    2.6724 Angstrom (    5.0502 Bohr)


  Bond distances (Angstrom):
  --------------------------

                  atom 1     atom 2       distance
                  ------     ------       --------
  bond distance:  H          N            1.040404
  bond distance:  H          N            1.039457
  bond distance:  H          N            1.074868
  bond distance:  H          N            1.007853
  bond distance:  H          O            1.035564
  bond distance:  H          O            1.010271
  bond distance:  H          O            0.998200
  bond distance:  H          O            0.999583
  bond distance:  H          O            0.970915
  bond distance:  H          O            0.981261
  bond distance:  H          O            1.002529
  bond distance:  H          O            1.013085


  Bond angles (degrees):
  ----------------------

                  atom 1     atom 2     atom 3         angle
                  ------     ------     ------         -----
  bond angle:     H          N          H             97.804
  bond angle:     H          N          H            115.407
  bond angle:     H          N          H            113.621
  bond angle:     H          N          H            114.218
  bond angle:     H          N          H            101.545
  bond angle:     H          N          H            112.549
  bond angle:     H          O          H            103.046
  bond angle:     H          O          H            119.855
  bond angle:     H          O          H            100.426
  bond angle:     H          O          H            107.322




 Principal moments of inertia (u*A**2) and principal axes
 --------------------------------------------------------

   IA     282.370064          0.988279    0.003964    0.152606
   IB     392.125874         -0.105994   -0.701597    0.704646
   IC     470.084327         -0.109861    0.712563    0.692954


 Rotational constants
 --------------------

               A                   B                   C

           1789.7754           1288.8183           1075.0816 MHz
            0.059700            0.042990            0.035861 cm-1


@  Nuclear repulsion energy :  203.429446796516 Hartree


                     .---------------------------------------.
                     | Starting in Integral Section (HERMIT) |
                     `---------------------------------------'



 ***************************************************************************************
 ****************** Output from **INTEGRALS input processing (HERMIT) ******************
 ***************************************************************************************



    *************************************************************************
    ****************** Output from HERMIT input processing ******************
    *************************************************************************


 Default print level:        1

 * Nuclear model: Point charge

 Calculation of one- and two-electron Hamiltonian integrals.

 The following one-electron property integrals are calculated as requested:
          - overlap integrals
          - dipole length integrals

 Center of mass  (bohr):      0.929532560839     -0.189298777579     -0.672999514538
 Operator center (bohr):      0.000000000000      0.000000000000      0.000000000000
 Gauge origin    (bohr):      0.000000000000      0.000000000000      0.000000000000
 Dipole origin   (bohr):      0.000000000000      0.000000000000      0.000000000000
 
  *********************************** 
  QMMM electrostatic potential: 
  Multipole order                                    0
  Isotropic polarization  
  *********************************** 
 
  ---------------- 
  QMMM information 
  ---------------- 
 
  MM coordinates in au 
  -------------------- 
     1    -11.035706      4.465071    -10.205377
     2    -11.916382      4.086975    -11.842764
     3     -9.310834      3.591513    -10.353341
     4      5.636431      3.905835     -4.728631
     5      6.518724      5.533014     -4.575295
     6      7.033657      2.687841     -4.197089
     7      7.530370      8.662505     -4.445477
     8      7.873043      9.543287     -2.739009
     9      9.209372      8.328983     -5.250092
    10    -11.455478     -7.098628    -10.163510
    11    -11.793469     -5.966918    -11.500541
    12    -12.555216     -6.218374     -8.734441
    13      5.393345      4.442126      0.954527
    14      6.871490      5.526035      1.278237
    15      5.546021      3.828757     -0.786279
    16    -11.425530      8.625657     -7.551204
    17    -11.296023      7.200117     -8.593479
    18    -11.535145      9.964163     -8.781523
    19     -1.615975     -9.612833      7.431571
    20     -2.479064    -10.872369      6.437539
    21     -3.047896     -8.968827      8.477474
    22      8.391686     -3.649715     10.304718
    23      7.124623     -3.740257     11.699187
    24      7.931288     -4.737872      8.792136
    25     10.314326    -10.609610      4.285821
    26     11.689007    -10.941146      3.023316
    27     10.731148    -11.996265      5.604085
    28      0.301680      5.163760     11.541629
    29      1.023742      6.559372     10.541486
    30      1.843449      4.265735     12.039957
    31     -8.174961      0.687318      2.076216
    32     -9.945587      0.388917      2.767317
    33     -7.015259      1.799480      3.109796
    34      7.963353    -10.832932    -10.005697
    35      9.264447     -9.723782    -10.440026
    36      7.457547    -10.345595     -8.248724
    37      3.140526     -3.354818     -8.176422
    38      2.373553     -5.134443     -7.906563
    39      3.378834     -2.758267     -6.349680
    40    -10.638068      1.234014     -3.254585
    41     -9.191295      0.576758     -4.221191
    42    -10.039255      2.412256     -2.086866
    43      9.769007     -4.438587     -6.024326
    44      8.170435     -5.346315     -5.618575
    45      9.103826     -2.759556     -6.540930
    46     10.422265      6.438907      2.257431
    47     11.210810      7.508636      0.934162
    48     10.700644      7.166571      3.886509
    49      7.596463      7.345794     11.577434
    50      6.934187      5.919731     12.328235
    51      8.170248      8.452280     12.867251
    52     -1.842884      7.367868      0.279625
    53     -0.141756      7.673180      1.160324
    54     -1.198128      6.420976     -1.351205
    55     10.137944      0.996919      2.656397
    56      9.861509      1.092156      4.483570
    57     10.300079      2.833983      2.021406
    58      2.055551     11.203631     -6.063715
    59      3.642052     10.392350     -5.795773
    60      0.809587      9.901313     -6.882124
    61     -9.200506     -5.087130      3.853669
    62    -10.393745     -5.002423      2.295244
    63     -8.540589     -3.419182      3.775002
    64     -0.197987     -5.300026      4.800893
    65      1.528813     -5.170105      4.327006
    66     -0.616844     -7.150215      4.983642
    67     -2.659147      2.384670      8.386593
    68     -2.207151      0.569648      8.074834
    69     -1.473189      3.070648      9.747980
    70     -7.622951     -9.143408     -5.539243
    71     -6.997937    -10.159232     -6.939668
    72     -7.460554     -7.459303     -6.233156
    73     -1.399508      8.515832     -8.414191
    74     -2.571964      7.458159     -7.367817
    75     -0.410942      7.620434     -9.779238
    76     10.878259     -5.745531     -0.432732
    77      9.222835     -5.300714      0.418582
    78     10.834170     -4.986528     -2.144079
    79     -3.620717     -7.722024    -10.964000
    80     -4.538606     -9.377651    -10.853187
    81     -1.982209     -7.722630     -9.971671
    82      5.791172     11.111285      1.551624
    83      7.108405     11.532806      2.730883
    84      5.244757     12.741974      0.826079
    85     -5.485775     -0.101614     -5.313428
    86     -5.972370     -1.710467     -6.263080
    87     -5.149802     -0.666043     -3.529128
    88      3.090250     -8.841133      9.582232
    89      1.504505     -8.854334      8.679253
    90      3.143871    -10.619170     10.042813
    91     -0.122681     -0.596142    -10.612991
    92     -1.328341     -1.474353    -11.695490
    93      1.176912     -1.890015     -9.754836
    94      3.291266      0.537854      8.523162
    95      2.216233      0.391763     10.102954
    96      4.500177     -0.947223      8.815939
    97     -4.709596      4.407998      4.189778
    98     -3.741711      3.662771      5.554334
    99     -3.610360      5.188302      2.859097
   100     -7.676580     -9.953371      1.873558
   101     -6.422259     -9.019557      1.018579
   102     -8.137743     -8.850219      3.283344
   103     -6.157614     10.873864    -10.193217
   104     -6.718574     10.084935    -11.847957
   105     -4.509693     10.190890     -9.586611
   106      7.149049     -7.014849      6.328700
   107      8.388555     -8.045082      5.505657
   108      5.782900     -8.208624      6.931965
   109     -7.488276      7.553893      9.472218
   110     -6.841171      6.064804     10.372025
   111     -6.388333      7.895229      8.065678
   112     -4.669827     -7.521189     -1.396338
   113     -3.288583     -8.773809     -1.686104
   114     -5.869493     -8.220959     -2.763728
   115      9.650077      0.836929      8.093536
   116     11.402830      0.132853      8.150359
   117      8.870456     -0.550678      8.903813
   118      6.065824     -4.774391      1.746685
   119      6.477324     -5.597809      3.362025
   120      5.559289     -2.995428      2.275946
   121      2.929525      8.806211      8.914210
   122      2.771983      8.773114      6.998115
   123      4.679570      8.287592      9.273243
   124      8.325907      0.216073     -1.963112
   125      8.657639      0.439182     -0.150624
   126      9.991742     -0.117617     -2.683477
   127     -6.342093      2.715357    -11.236487
   128     -5.184152      1.975346    -12.551336
   129     -5.172126      3.059253     -9.819811
   130     -9.532971     -3.156033      9.003171
   131     -7.809599     -2.689889      8.918540
   132     -9.775566     -3.884410      7.277607
   133      9.530127     -0.128932     -8.485433
   134     10.255264     -1.258765     -9.825612
   135     10.551223      1.493195     -8.595561
   136      2.480077      8.231176      3.513377
   137      3.698717      9.374130      2.502710
   138      3.144410      6.546113      3.192978
   139     -2.253553      2.804242     -7.505928
   140     -1.245180      1.555110     -8.420697
   141     -3.499142      1.692563     -6.523078
   142     -2.746477     -3.802439      9.324050
   143     -2.875553     -5.178736     10.659752
   144     -2.018558     -4.457117      7.674025
   145      1.226742     -7.968444     -9.080079
   146      1.966166     -9.441393     -7.997429
   147      2.116871     -8.196511    -10.698632
   148     -6.821492     -4.469830     -8.179411
   149     -5.701483     -5.714568     -9.007058
   150     -8.615808     -4.912768     -8.698196
   151      5.186113      3.188240     -9.829329
   152      5.151382      3.327883     -7.953867
   153      6.317364      1.824920    -10.252484
   154     10.834061      8.645042      7.834111
   155     12.473207      8.317586      8.668418
   156      9.623090      8.031138      9.180907
   157      6.381581     -8.523086     -4.917392
   158      5.160324     -8.717227     -3.574190
   159      7.916439     -9.599552     -4.526695
   160      3.158666     -8.531864     -0.792808
   161      3.193705     -7.090659      0.375175
   162      1.619552     -9.414476     -0.900180
   163     11.366111    -10.500282     -3.520059
   164     12.734774    -10.169293     -4.796180
   165     11.411512     -9.102805     -2.239730
   166     -5.928441      8.286396     -5.119234
   167     -5.436752      8.240687     -3.411277
   168     -7.784895      8.762324     -5.069687
   169     -4.625796      9.834575      5.551242
   170     -4.089949      8.321555      4.691929
   171     -5.585078     10.821343      4.291593
   172     -9.987461      9.206912     -0.809419
   173    -11.132685     10.253076     -1.732730
   174     -8.972565     10.479901      0.146529
   175     -1.059656    -11.375074     -2.028190
   176     -1.336040    -12.952264     -1.113874
   177     -0.466640    -11.887526     -3.681655
 
  MM charges 
  ---------- 
     1     -0.674440
     2      0.337220
     3      0.337220
     4     -0.674440
     5      0.337220
     6      0.337220
     7     -0.674440
     8      0.337220
     9      0.337220
    10     -0.674440
    11      0.337220
    12      0.337220
    13     -0.674440
    14      0.337220
    15      0.337220
    16     -0.674440
    17      0.337220
    18      0.337220
    19     -0.674440
    20      0.337220
    21      0.337220
    22     -0.674440
    23      0.337220
    24      0.337220
    25     -0.674440
    26      0.337220
    27      0.337220
    28     -0.674440
    29      0.337220
    30      0.337220
    31     -0.674440
    32      0.337220
    33      0.337220
    34     -0.674440
    35      0.337220
    36      0.337220
    37     -0.674440
    38      0.337220
    39      0.337220
    40     -0.674440
    41      0.337220
    42      0.337220
    43     -0.674440
    44      0.337220
    45      0.337220
    46     -0.674440
    47      0.337220
    48      0.337220
    49     -0.674440
    50      0.337220
    51      0.337220
    52     -0.674440
    53      0.337220
    54      0.337220
    55     -0.674440
    56      0.337220
    57      0.337220
    58     -0.674440
    59      0.337220
    60      0.337220
    61     -0.674440
    62      0.337220
    63      0.337220
    64     -0.674440
    65      0.337220
    66      0.337220
    67     -0.674440
    68      0.337220
    69      0.337220
    70     -0.674440
    71      0.337220
    72      0.337220
    73     -0.674440
    74      0.337220
    75      0.337220
    76     -0.674440
    77      0.337220
    78      0.337220
    79     -0.674440
    80      0.337220
    81      0.337220
    82     -0.674440
    83      0.337220
    84      0.337220
    85     -0.674440
    86      0.337220
    87      0.337220
    88     -0.674440
    89      0.337220
    90      0.337220
    91     -0.674440
    92      0.337220
    93      0.337220
    94     -0.674440
    95      0.337220
    96      0.337220
    97     -0.674440
    98      0.337220
    99      0.337220
   100     -0.674440
   101      0.337220
   102      0.337220
   103     -0.674440
   104      0.337220
   105      0.337220
   106     -0.674440
   107      0.337220
   108      0.337220
   109     -0.674440
   110      0.337220
   111      0.337220
   112     -0.674440
   113      0.337220
   114      0.337220
   115     -0.674440
   116      0.337220
   117      0.337220
   118     -0.674440
   119      0.337220
   120      0.337220
   121     -0.674440
   122      0.337220
   123      0.337220
   124     -0.674440
   125      0.337220
   126      0.337220
   127     -0.674440
   128      0.337220
   129      0.337220
   130     -0.674440
   131      0.337220
   132      0.337220
   133     -0.674440
   134      0.337220
   135      0.337220
   136     -0.674440
   137      0.337220
   138      0.337220
   139     -0.674440
   140      0.337220
   141      0.337220
   142     -0.674440
   143      0.337220
   144      0.337220
   145     -0.674440
   146      0.337220
   147      0.337220
   148     -0.674440
   149      0.337220
   150      0.337220
   151     -0.674440
   152      0.337220
   153      0.337220
   154     -0.674440
   155      0.337220
   156      0.337220
   157     -0.674440
   158      0.337220
   159      0.337220
   160     -0.674440
   161      0.337220
   162      0.337220
   163     -0.674440
   164      0.337220
   165      0.337220
   166     -0.674440
   167      0.337220
   168      0.337220
   169     -0.674440
   170      0.337220
   171      0.337220
   172     -0.674440
   173      0.337220
   174      0.337220
   175     -0.674440
   176      0.337220
   177      0.337220
 
  MM isotropic polarizabilities in au 
  ----------------------------------- 
     1      5.739350
     2      2.308390
     3      2.308390
     4      5.739350
     5      2.308390
     6      2.308390
     7      5.739350
     8      2.308390
     9      2.308390
    10      5.739350
    11      2.308390
    12      2.308390
    13      5.739350
    14      2.308390
    15      2.308390
    16      5.739350
    17      2.308390
    18      2.308390
    19      5.739350
    20      2.308390
    21      2.308390
    22      5.739350
    23      2.308390
    24      2.308390
    25      5.739350
    26      2.308390
    27      2.308390
    28      5.739350
    29      2.308390
    30      2.308390
    31      5.739350
    32      2.308390
    33      2.308390
    34      5.739350
    35      2.308390
    36      2.308390
    37      5.739350
    38      2.308390
    39      2.308390
    40      5.739350
    41      2.308390
    42      2.308390
    43      5.739350
    44      2.308390
    45      2.308390
    46      5.739350
    47      2.308390
    48      2.308390
    49      5.739350
    50      2.308390
    51      2.308390
    52      5.739350
    53      2.308390
    54      2.308390
    55      5.739350
    56      2.308390
    57      2.308390
    58      5.739350
    59      2.308390
    60      2.308390
    61      5.739350
    62      2.308390
    63      2.308390
    64      5.739350
    65      2.308390
    66      2.308390
    67      5.739350
    68      2.308390
    69      2.308390
    70      5.739350
    71      2.308390
    72      2.308390
    73      5.739350
    74      2.308390
    75      2.308390
    76      5.739350
    77      2.308390
    78      2.308390
    79      5.739350
    80      2.308390
    81      2.308390
    82      5.739350
    83      2.308390
    84      2.308390
    85      5.739350
    86      2.308390
    87      2.308390
    88      5.739350
    89      2.308390
    90      2.308390
    91      5.739350
    92      2.308390
    93      2.308390
    94      5.739350
    95      2.308390
    96      2.308390
    97      5.739350
    98      2.308390
    99      2.308390
   100      5.739350
   101      2.308390
   102      2.308390
   103      5.739350
   104      2.308390
   105      2.308390
   106      5.739350
   107      2.308390
   108      2.308390
   109      5.739350
   110      2.308390
   111      2.308390
   112      5.739350
   113      2.308390
   114      2.308390
   115      5.739350
   116      2.308390
   117      2.308390
   118      5.739350
   119      2.308390
   120      2.308390
   121      5.739350
   122      2.308390
   123      2.308390
   124      5.739350
   125      2.308390
   126      2.308390
   127      5.739350
   128      2.308390
   129      2.308390
   130      5.739350
   131      2.308390
   132      2.308390
   133      5.739350
   134      2.308390
   135      2.308390
   136      5.739350
   137      2.308390
   138      2.308390
   139      5.739350
   140      2.308390
   141      2.308390
   142      5.739350
   143      2.308390
   144      2.308390
   145      5.739350
   146      2.308390
   147      2.308390
   148      5.739350
   149      2.308390
   150      2.308390
   151      5.739350
   152      2.308390
   153      2.308390
   154      5.739350
   155      2.308390
   156      2.308390
   157      5.739350
   158      2.308390
   159      2.308390
   160      5.739350
   161      2.308390
   162      2.308390
   163      5.739350
   164      2.308390
   165      2.308390
   166      5.739350
   167      2.308390
   168      2.308390
   169      5.739350
   170      2.308390
   171      2.308390
   172      5.739350
   173      2.308390
   174      2.308390
   175      5.739350
   176      2.308390
   177      2.308390


     ************************************************************************
     ************************** Output from HERINT **************************
     ************************************************************************



                      Nuclear contribution to dipole moments
                      --------------------------------------

                 au               Debye          C m (/(10**-30)

      x     47.61389660       121.02244589       403.68742661
      y     -9.43126026       -23.97187095       -79.96155443
      z    -33.49512722       -85.13611595      -283.98351485


  Time used in OVERLAP    is       0.15 seconds
  Time used in POPOVLP    is       0.10 seconds
  Time used in DIPLEN     is       0.22 seconds
  Time used in QUADRUP    is       0.21 seconds
  Time used in KINENE     is       0.11 seconds

 Threshold for neglecting two-electron integrals:  1.00D-12
 HERMIT - Number of two-electron integrals written:    17246034 ( 47.6% )
 HERMIT - Megabytes written:                            197.479

  Time used in TWOINT     is       8.83 seconds
  Total CPU  time used in HERMIT:   9.75 seconds
  Total wall time used in HERMIT:   5.74 seconds


                        .----------------------------------.
                        | End of Integral Section (HERMIT) |
                        `----------------------------------'



                   .--------------------------------------------.
                   | Starting in Wave Function Section (SIRIUS) |
                   `--------------------------------------------'

NCCEXCI for singlet:   15
 CCSD_INPUT: core-val requested
 Requested number of core orbs per sym
                     1
 Indices of requested core orbs
                     1

 *** Output from Huckel module :

     Using EWMO model:          T
     Using EHT  model:          F
     Number of Huckel orbitals each symmetry:   37

 EWMO - Energy Weighted Maximum Overlap - is a Huckel type method,
        which normally is better than Extended Huckel Theory.
 Reference: Linderberg and Ohrn, Propagators in Quantum Chemistry (Wiley, 1973)

 Huckel EWMO eigenvalues for symmetry :  1
          -20.684779     -20.684501     -20.684233     -20.684118     -15.675603
           -1.813351      -1.618700      -1.595818      -1.575744      -1.480393
           -0.831393      -0.813496      -0.793122      -0.781569      -0.768643
           -0.757463      -0.740639      -0.696764      -0.670003      -0.649121
           -0.634528      -0.610394      -0.581192      -0.562200      -0.555478
           -0.267485      -0.251157      -0.248472      -0.231626      -0.189137
           -0.183689      -0.177472      -0.176552      -0.174364      -0.151309
           -0.142151      -0.139142

 **********************************************************************
 *SIRIUS* a direct, restricted step, second order MCSCF program       *
 **********************************************************************

 
     Date and time (Linux)  : Wed Dec 19 13:50:30 2018
     Host name              : n-62-23-10                              

 Title lines from ".mol" input file:
                                                                             
                                                                             

 Print level on unit LUPRI =   2 is   0
 Print level on unit LUW4  =   2 is  11

@    (Integral direct) CC calculation.

@    This is a combination run starting with
@              a restricted, closed shell Hartree-Fock calculation


 Initial molecular orbitals are obtained according to
 ".MOSTART EWMO  " input option

@    QM part is embedded in an environment :

@         Model: QMMM

     Wave function specification
     ============================

     For the specification of the Coupled Cluster: see later.

@    Wave function type        --- CC ---
@    Number of closed shell electrons          50
@    Number of electrons in active shells       0
@    Total charge of the molecule               1

@    Spin multiplicity and 2 M_S                1         0
@    Total number of symmetries                 1 (point group: C1 )
@    Reference state symmetry                   1 (irrep name : A  )

     Orbital specifications
     ======================
@    Abelian symmetry species          All |    1
@                                          |  A  
                                       --- |  ---
@    Occupied SCF orbitals              25 |   25
@    Secondary orbitals                105 |  105
@    Total number of orbitals          130 |  130
@    Number of basis functions         130 |  130

     Optimization information
     ========================
@    Number of configurations                 1
@    Number of orbital rotations           2625
     ------------------------------------------
@    Total number of variables             2626

     Maximum number of Fock   iterations      0
     Maximum number of DIIS   iterations     60
     Maximum number of QC-SCF iterations     60
     Threshold for SCF convergence     1.00D-07


 Changes of defaults for CC:
 ---------------------------


 -Implicit frozen core calculation
 -Excitation energies calculated
 -One-photon absorption strengths will be calculated
 -Oscillator strengths calculated
  
* Read MO coefficients from SIRIUS.RST with label "NEWORB  " and header info: 19Dec18  REORTHO 


 ***********************************************
 ***** DIIS acceleration of SCF iterations *****
 ***********************************************

 C1-DIIS algorithm; max error vectors =    8
 -----------------------------------------------------------------------------

 *** DIIS iteration number    1
 RDSUPM called. NFMAT, ISYMDM(1:NFMAT)                     1
                     1

Calculating AOSUPINT
     (Precalculated two-electron integrals are transformed to P-supermatrix elements.
      Threshold for discarding integrals :  1.00D-12 )
  CPU  time used in FORMSUP    is   4.02 seconds
  WALL time used in FORMSUP    is   2.99 seconds

 ITDIIS, energy, error norm, change in energy, scr.thr., difden:
@ DIIS iter.   1    -360.117164010        3.67033D+00   -3.60D+02  -20    F

 (DIIS_RED) Control Parameters C2DIIS =         F NEVC =    1


 (DIIS_RED) B matrix:

               Column   1
       1      13.47131943
    ==== End of matrix output ====

 DIIS C vector; C2DIIS = F, LAMBDA = -1.35D+01
    1.000000
* Read MO coefficients from SIRIUS.RST with label "NEWORB  " and header info: 19Dec18  DIIS   1
      Virial theorem: -V/T =      2.006286
@      MULPOP N       0.21; H       0.14; H       0.17; H       0.15; H       0.13; O      -0.48; O      -0.46; O      -0.52; O      -0.51; H       0.27; 
@             H       0.27; H       0.27; H       0.27; H       0.28; H       0.26; H       0.27; H       0.28; 
   1  Level shift: doubly occupied orbital energies shifted by -2.00D-01

 DIIS Fock eigenvalues in symmetry 1
      -20.87890      -20.86961      -20.85172      -20.82851      -16.45657
       -1.72838       -1.68039       -1.63987       -1.63390       -1.60376
       -1.21204       -1.20102       -1.17571       -1.04477       -1.03436
       -1.01351       -0.96937       -0.93190       -0.88834       -0.88295
       -0.87788       -0.86550       -0.85938       -0.84874       -0.82406
        0.02854        0.09103        0.09937        0.12366        0.14402
        0.17174        0.20756        0.21134        0.23602        0.24587
        0.25757        0.27508        0.55308        0.58830        0.60409
        0.78899        0.82726        0.86200        0.86676        0.88242
        0.89554        0.90539        0.92885        0.95565        0.96646
        0.97775        0.98672        1.02291        1.03929        1.04896
        1.07004        1.09326        1.15656        1.17976        1.18131
        1.18896        1.22020        1.23271        1.24978        1.27420
        1.31926        1.42090        1.47651        1.58260        1.59224
        1.61477        1.62890        1.63606        1.64679        1.66492
        1.68236        1.70060        1.70855        1.73435        1.76141
        1.78314        1.81507        1.97359        2.08618        2.09164
        2.20697        2.25456        2.29724        2.33240        2.34143
        2.35750        2.37825        2.38603        2.39694        2.40484
        2.40926        2.43689        2.56169        2.56805        2.61010
        2.64654        2.67808        2.70168        2.73575        2.76796
        2.77182        2.78883        2.79823        2.81033        2.84065
        2.88392        2.91489        3.01804        3.07032        3.09076
        3.14845        3.15182        3.17317        3.28429        3.43868
        3.47721        3.49909        3.51213        3.53303        3.57222
        3.67368        3.68658        3.72299        3.76042        3.77313
 Time used in FCKEIG, thr_jaco:   2.11D-01  2.30D-02  1.79D-04
 CPU and wall times used in FCKEIG, THR_FCKEIG:   2.11D-01  2.30D-02  3.67D-02
 -----------------------------------------------------------------------------

 *** DIIS iteration number    2
 RDSUPM called. NFMAT, ISYMDM(1:NFMAT)                     1
                     1

 ITDIIS, energy, error norm, change in energy, scr.thr., difden:
@ DIIS iter.   2    -361.005493575        1.05216D+00   -8.88D-01  -20    F

 (DIIS_RED) Control Parameters C2DIIS =         F NEVC =    2


 (DIIS_RED) B matrix:

               Column   1     Column   2
       1      13.47131943
       2       1.17885336     1.10703695
    ==== End of matrix output ====

 DIIS C vector; C2DIIS = F, LAMBDA = -1.11D+00
   -0.005877    1.005877
* Read MO coefficients from SIRIUS.RST with label "NEWORB  " and header info: 19Dec18  DIIS   2
      Virial theorem: -V/T =      2.003723
@      MULPOP N      -0.76; H       0.40; H       0.38; H       0.41; H       0.36; O      -0.68; O      -0.68; O      -0.67; O      -0.67; H       0.39; 
@             H       0.35; H       0.37; H       0.38; H       0.35; H       0.34; H       0.33; H       0.38; 
   2  Level shift: doubly occupied orbital energies shifted by -1.00D-01

 DIIS Fock eigenvalues in symmetry 1
      -20.79975      -20.79350      -20.77668      -20.76894      -15.62261
       -1.56164       -1.52971       -1.52855       -1.49986       -1.37954
       -0.91176       -0.91091       -0.89279       -0.88799       -0.87836
       -0.84852       -0.83962       -0.81589       -0.77636       -0.75596
       -0.74742       -0.73715       -0.72191       -0.71138       -0.69132
        0.10583        0.15320        0.15689        0.18040        0.22379
        0.23826        0.26677        0.27994        0.28647        0.29464
        0.32954        0.35879        0.69865        0.73703        0.75331
        0.87448        0.90635        0.91381        0.92950        0.94415
        0.96434        0.99230        0.99868        1.01129        1.03323
        1.05003        1.06225        1.07727        1.10649        1.11742
        1.14269        1.16614        1.18518        1.20621        1.20797
        1.25056        1.25763        1.28577        1.29880        1.45947
        1.47063        1.53129        1.56705        1.61607        1.63437
        1.66105        1.68051        1.68903        1.69388        1.71706
        1.72519        1.73865        1.75751        1.79202        1.80754
        1.85888        1.87747        2.03556        2.22054        2.24254
        2.32961        2.36293        2.40031        2.41281        2.41794
        2.43186        2.44375        2.45942        2.47890        2.49876
        2.52574        2.55144        2.60725        2.61135        2.67317
        2.70563        2.73326        2.81217        2.82127        2.82396
        2.82731        2.83775        2.85959        2.88465        2.92214
        2.93786        3.06641        3.14347        3.18785        3.19278
        3.20647        3.22163        3.27326        3.47700        3.56603
        3.57654        3.60928        3.63056        3.70581        3.73350
        3.74769        3.76281        3.77947        3.80959        3.82632
 Time used in FCKEIG, thr_jaco:   1.75D-01  1.90D-02  5.13D-05
 CPU and wall times used in FCKEIG, THR_FCKEIG:   1.75D-01  1.90D-02  1.05D-02
 -----------------------------------------------------------------------------

 *** DIIS iteration number    3
 RDSUPM called. NFMAT, ISYMDM(1:NFMAT)                     1
                     1

 ITDIIS, energy, error norm, change in energy, scr.thr., difden:
@ DIIS iter.   3    -361.078336492        3.64719D-01   -7.28D-02  -20    F

 (DIIS_RED) Control Parameters C2DIIS =         F NEVC =    3


 (DIIS_RED) B matrix:

               Column   1     Column   2     Column   3
       1      13.47131943
       2       1.17885336     1.10703695
       3       0.83499072    -0.01815742     0.13302014
    ==== End of matrix output ====

 DIIS C vector; C2DIIS = F, LAMBDA = -6.58D-02
   -0.064774    0.143566    0.921209
* Read MO coefficients from SIRIUS.RST with label "NEWORB  " and header info: 19Dec18  DIIS   3
      Virial theorem: -V/T =      2.004906
@      MULPOP N      -0.68; H       0.40; H       0.36; H       0.41; H       0.34; O      -0.81; O      -0.80; O      -0.77; O      -0.78; H       0.46; 
@             H       0.40; H       0.42; H       0.44; H       0.40; H       0.39; H       0.38; H       0.44; 
   3  Level shift: doubly occupied orbital energies shifted by -5.00D-02

 DIIS Fock eigenvalues in symmetry 1
      -20.72295      -20.70429      -20.69736      -20.67512      -15.78688
       -1.49894       -1.46411       -1.46080       -1.43039       -1.38441
       -0.87150       -0.86499       -0.84657       -0.84411       -0.82267
       -0.82024       -0.77785       -0.75288       -0.70824       -0.69029
       -0.68272       -0.66999       -0.65006       -0.64512       -0.61856
        0.11115        0.16012        0.16319        0.18811        0.22252
        0.24523        0.27297        0.28570        0.28768        0.30441
        0.32557        0.35349        0.68632        0.72535        0.74163
        0.87910        0.91374        0.92509        0.93798        0.95511
        0.97229        1.00468        1.00986        1.01238        1.04554
        1.04878        1.07162        1.08769        1.10803        1.11841
        1.14175        1.16433        1.20044        1.21833        1.22258
        1.25941        1.26804        1.30108        1.30959        1.44278
        1.46595        1.53046        1.56057        1.63178        1.64520
        1.67886        1.70005        1.70419        1.70972        1.73309
        1.74422        1.75840        1.76847        1.80403        1.82290
        1.86713        1.89007        2.04389        2.22124        2.23915
        2.33331        2.36767        2.41531        2.42817        2.43327
        2.44497        2.45838        2.46816        2.48437        2.49488
        2.51777        2.54707        2.62608        2.63038        2.68843
        2.72013        2.74594        2.81607        2.83107        2.83875
        2.84176        2.85305        2.87202        2.88963        2.92926
        2.94768        3.06237        3.15659        3.18368        3.20757
        3.21050        3.23022        3.26106        3.46338        3.58160
        3.58581        3.62478        3.62752        3.68668        3.72426
        3.74804        3.77101        3.78318        3.82158        3.83844
 Time used in FCKEIG, thr_jaco:   1.53D-01  1.70D-02  1.78D-05
 CPU and wall times used in FCKEIG, THR_FCKEIG:   1.53D-01  1.70D-02  3.65D-03
 -----------------------------------------------------------------------------

 *** DIIS iteration number    4
 RDSUPM called. NFMAT, ISYMDM(1:NFMAT)                     1
                     1

 ITDIIS, energy, error norm, change in energy, scr.thr., difden:
@ DIIS iter.   4    -361.088111223        7.29453D-02   -9.77D-03  -20    F

 (DIIS_RED) Control Parameters C2DIIS =         F NEVC =    4


 (DIIS_RED) B matrix:

               Column   1     Column   2     Column   3     Column   4
       1      13.47131943
       2       1.17885336     1.10703695
       3       0.83499072    -0.01815742     0.13302014
       4       0.07819312     0.04858391     0.00757078     0.00532101
    ==== End of matrix output ====

 DIIS C vector; C2DIIS = F, LAMBDA = -3.24D-03
    0.001298   -0.047559   -0.052843    1.099104
* Read MO coefficients from SIRIUS.RST with label "NEWORB  " and header info: 19Dec18  DIIS   4
      Virial theorem: -V/T =      2.004795
@      MULPOP N      -0.79; H       0.42; H       0.39; H       0.44; H       0.37; O      -0.84; O      -0.84; O      -0.80; O      -0.80; H       0.47; 
@             H       0.42; H       0.44; H       0.46; H       0.41; H       0.41; H       0.39; H       0.46; 
   4  Level shift: doubly occupied orbital energies shifted by -1.25D-02

 DIIS Fock eigenvalues in symmetry 1
      -20.69347      -20.67734      -20.67150      -20.65234      -15.72559
       -1.46494       -1.42923       -1.42628       -1.39685       -1.33691
       -0.82575       -0.81888       -0.81190       -0.80842       -0.78731
       -0.77401       -0.74393       -0.71684       -0.67135       -0.65339
       -0.64606       -0.63209       -0.61178       -0.60664       -0.58158
        0.11108        0.15951        0.16200        0.18679        0.22448
        0.24391        0.27376        0.28660        0.28844        0.30382
        0.33068        0.35898        0.69275        0.73130        0.74757
        0.87900        0.91375        0.92388        0.93708        0.95375
        0.97210        1.00360        1.00856        1.01403        1.04688
        1.05152        1.07295        1.08913        1.11071        1.11907
        1.14452        1.16746        1.19961        1.21768        1.22127
        1.25888        1.26701        1.29872        1.30816        1.44876
        1.46836        1.53264        1.56339        1.63137        1.64536
        1.67746        1.69827        1.70224        1.70751        1.73252
        1.74199        1.75683        1.76849        1.80335        1.82279
        1.86879        1.89150        2.04648        2.22775        2.24595
        2.33551        2.37072        2.41528        2.42725        2.43145
        2.44469        2.45649        2.46709        2.48533        2.49567
        2.52223        2.55199        2.62358        2.62797        2.68518
        2.71922        2.74430        2.82013        2.83069        2.83692
        2.83965        2.85127        2.87130        2.89022        2.92987
        2.94748        3.06898        3.15482        3.19011        3.20614
        3.20948        3.22916        3.26698        3.47093        3.58061
        3.58432        3.62063        3.62969        3.69432        3.72931
        3.74893        3.77275        3.78318        3.81995        3.83688
 Time used in FCKEIG, thr_jaco:   1.36D-01  1.60D-02  3.56D-06
 CPU and wall times used in FCKEIG, THR_FCKEIG:   1.36D-01  1.60D-02  7.29D-04
 -----------------------------------------------------------------------------

 *** DIIS iteration number    5
 RDSUPM called. NFMAT, ISYMDM(1:NFMAT)                     1
                     1

 ITDIIS, energy, error norm, change in energy, scr.thr., difden:
@ DIIS iter.   5    -361.088801705        2.52052D-02   -6.90D-04  -20    F

 (DIIS_RED) Control Parameters C2DIIS =         F NEVC =    5


 (DIIS_RED) B matrix:

               Column   1     Column   2     Column   3     Column   4     Column   5
       1      13.47131943
       2       1.17885336     1.10703695
       3       0.83499072    -0.01815742     0.13302014
       4       0.07819312     0.04858391     0.00757078     0.00532101
       5       0.01482582     0.00449632     0.00412152     0.00065349     0.00063530
    ==== End of matrix output ====

 DIIS C vector; C2DIIS = F, LAMBDA = -4.56D-04
    0.002393   -0.011587   -0.048789    0.109311    0.948672
* Read MO coefficients from SIRIUS.RST with label "NEWORB  " and header info: 19Dec18  DIIS   5
      Virial theorem: -V/T =      2.004529
@      MULPOP N      -0.79; H       0.43; H       0.39; H       0.44; H       0.36; O      -0.85; O      -0.85; O      -0.81; O      -0.82; H       0.48; 
@             H       0.42; H       0.45; H       0.47; H       0.42; H       0.41; H       0.39; H       0.46; 

 DIIS Fock eigenvalues in symmetry 1
      -20.67716      -20.65849      -20.65167      -20.63149      -15.71043
       -1.45087       -1.41406       -1.41125       -1.38124       -1.32304
       -0.81204       -0.80507       -0.79767       -0.79477       -0.77298
       -0.75994       -0.72909       -0.70329       -0.65683       -0.63863
       -0.63119       -0.61738       -0.59610       -0.59108       -0.56543
        0.11164        0.16003        0.16245        0.18741        0.22520
        0.24433        0.27447        0.28708        0.28936        0.30469
        0.33169        0.36006        0.69382        0.73234        0.74857
        0.87958        0.91447        0.92463        0.93795        0.95451
        0.97289        1.00471        1.00948        1.01552        1.04904
        1.05257        1.07479        1.09077        1.11235        1.12037
        1.14638        1.16902        1.20126        1.21925        1.22307
        1.26070        1.26884        1.30070        1.30976        1.45015
        1.46962        1.53404        1.56464        1.63317        1.64731
        1.67892        1.69957        1.70335        1.70854        1.73421
        1.74382        1.75859        1.77015        1.80463        1.82452
        1.87067        1.89314        2.04814        2.22867        2.24694
        2.33630        2.37189        2.41678        2.42872        2.43225
        2.44582        2.45745        2.46760        2.48570        2.49669
        2.52334        2.55312        2.62502        2.62931        2.68585
        2.72029        2.74478        2.82088        2.83133        2.83761
        2.84049        2.85206        2.87214        2.89091        2.93054
        2.94827        3.07007        3.15544        3.19110        3.20691
        3.21038        3.22963        3.26798        3.47218        3.58164
        3.58534        3.62119        3.63080        3.69566        3.73059
        3.75012        3.77405        3.78450        3.82120        3.83790
 Time used in FCKEIG, thr_jaco:   1.25D-01  1.40D-02  1.23D-06
 CPU and wall times used in FCKEIG, THR_FCKEIG:   1.25D-01  1.40D-02  2.52D-04
 -----------------------------------------------------------------------------

 *** DIIS iteration number    6
 RDSUPM called. NFMAT, ISYMDM(1:NFMAT)                     1
                     1

 ITDIIS, energy, error norm, change in energy, scr.thr., difden:
@ DIIS iter.   6    -361.088863023        8.86452D-03   -6.13D-05  -20    F

 (DIIS_RED) Control Parameters C2DIIS =         F NEVC =    6


 (DIIS_RED) B matrix:

               Column   1     Column   2     Column   3     Column   4     Column   5     Column   6
       1      13.47131943
       2       1.17885336     1.10703695
       3       0.83499072    -0.01815742     0.13302014
       4       0.07819312     0.04858391     0.00757078     0.00532101
       5       0.01482582     0.00449632     0.00412152     0.00065349     0.00063530
       6      -0.00372197    -0.00036918     0.00037170     0.00038247     0.00001411     0.00007858
    ==== End of matrix output ====

 DIIS C vector; C2DIIS = F, LAMBDA = -2.44D-05
    0.000564    0.005338   -0.001157   -0.138085    0.114349    1.018990
* Read MO coefficients from SIRIUS.RST with label "NEWORB  " and header info: 19Dec18  DIIS   6
      Virial theorem: -V/T =      2.004738
@      MULPOP N      -0.79; H       0.43; H       0.38; H       0.44; H       0.36; O      -0.85; O      -0.85; O      -0.82; O      -0.82; H       0.48; 
@             H       0.42; H       0.45; H       0.47; H       0.42; H       0.41; H       0.39; H       0.47; 

 DIIS Fock eigenvalues in symmetry 1
      -20.67804      -20.66017      -20.65385      -20.63399      -15.71176
       -1.45096       -1.41470       -1.41163       -1.38193       -1.32338
       -0.81246       -0.80536       -0.79837       -0.79497       -0.77336
       -0.76017       -0.72972       -0.70373       -0.65746       -0.63939
       -0.63202       -0.61741       -0.59641       -0.59137       -0.56593
        0.11159        0.15993        0.16229        0.18721        0.22515
        0.24426        0.27437        0.28681        0.28922        0.30447
        0.33145        0.35974        0.69371        0.73218        0.74845
        0.87945        0.91418        0.92445        0.93767        0.95425
        0.97260        1.00438        1.00920        1.01530        1.04882
        1.05231        1.07449        1.09053        1.11213        1.12021
        1.14609        1.16871        1.20091        1.21897        1.22252
        1.26020        1.26829        1.30015        1.30945        1.44984
        1.46940        1.53381        1.56447        1.63282        1.64682
        1.67845        1.69934        1.70319        1.70839        1.73384
        1.74331        1.75818        1.76980        1.80444        1.82404
        1.87019        1.89282        2.04793        2.22857        2.24682
        2.33602        2.37161        2.41649        2.42824        2.43198
        2.44552        2.45727        2.46731        2.48554        2.49654
        2.52304        2.55290        2.62457        2.62892        2.68568
        2.71977        2.74440        2.82069        2.83117        2.83738
        2.84009        2.85178        2.87188        2.89073        2.93031
        2.94791        3.07000        3.15505        3.19087        3.20662
        3.21001        3.22944        3.26780        3.47201        3.58128
        3.58495        3.62102        3.63039        3.69537        3.73017
        3.74963        3.77365        3.78409        3.82079        3.83757
 Time used in FCKEIG, thr_jaco:   1.25D-01  1.40D-02  4.33D-07
 CPU and wall times used in FCKEIG, THR_FCKEIG:   1.25D-01  1.40D-02  8.86D-05
 -----------------------------------------------------------------------------

 *** DIIS iteration number    7
 RDSUPM called. NFMAT, ISYMDM(1:NFMAT)                     1
                     1

 ITDIIS, energy, error norm, change in energy, scr.thr., difden:
@ DIIS iter.   7    -361.088871928        1.79816D-03   -8.91D-06  -20    F

 (DIIS_RED) Control Parameters C2DIIS =         F NEVC =    7


 (DIIS_RED) B matrix:

               Column   1     Column   2     Column   3     Column   4     Column   5     Column   6
       1      13.47131943
       2       1.17885336     1.10703695
       3       0.83499072    -0.01815742     0.13302014
       4       0.07819312     0.04858391     0.00757078     0.00532101
       5       0.01482582     0.00449632     0.00412152     0.00065349     0.00063530
       6      -0.00372197    -0.00036918     0.00037170     0.00038247     0.00001411     0.00007858
       7       0.00012195     0.00021354    -0.00001336     0.00001223     0.00003267     0.00000136

               Column   7
       7       0.00000323
    ==== End of matrix output ====

 DIIS C vector; C2DIIS = F, LAMBDA = -6.89D-07
   -0.000256   -0.000494    0.003748    0.021354   -0.094602   -0.131189    1.201440
* Read MO coefficients from SIRIUS.RST with label "NEWORB  " and header info: 19Dec18  DIIS   7
      Virial theorem: -V/T =      2.004693
@      MULPOP N      -0.79; H       0.43; H       0.38; H       0.44; H       0.36; O      -0.85; O      -0.86; O      -0.82; O      -0.82; H       0.49; 
@             H       0.42; H       0.45; H       0.47; H       0.42; H       0.41; H       0.39; H       0.47; 

 DIIS Fock eigenvalues in symmetry 1
      -20.67802      -20.65994      -20.65361      -20.63361      -15.71141
       -1.45092       -1.41457       -1.41152       -1.38177       -1.32320
       -0.81231       -0.80522       -0.79831       -0.79491       -0.77328
       -0.76002       -0.72960       -0.70378       -0.65744       -0.63933
       -0.63195       -0.61733       -0.59626       -0.59122       -0.56573
        0.11165        0.15997        0.16233        0.18726        0.22521
        0.24430        0.27442        0.28685        0.28930        0.30453
        0.33155        0.35986        0.69385        0.73232        0.74859
        0.87951        0.91424        0.92450        0.93773        0.95428
        0.97267        1.00443        1.00925        1.01539        1.04893
        1.05242        1.07460        1.09062        1.11223        1.12029
        1.14621        1.16882        1.20101        1.21905        1.22263
        1.26028        1.26840        1.30023        1.30952        1.44999
        1.46950        1.53392        1.56457        1.63292        1.64695
        1.67851        1.69938        1.70322        1.70842        1.73392
        1.74340        1.75826        1.76989        1.80449        1.82413
        1.87032        1.89292        2.04804        2.22871        2.24695
        2.33609        2.37172        2.41657        2.42831        2.43202
        2.44560        2.45730        2.46735        2.48558        2.49663
        2.52316        2.55302        2.62464        2.62898        2.68570
        2.71983        2.74442        2.82078        2.83123        2.83741
        2.84014        2.85182        2.87193        2.89079        2.93038
        2.94797        3.07013        3.15508        3.19100        3.20667
        3.21009        3.22949        3.26794        3.47215        3.58134
        3.58501        3.62103        3.63049        3.69551        3.73030
        3.74973        3.77375        3.78418        3.82086        3.83763
 Time used in FCKEIG, thr_jaco:   1.24D-01  1.40D-02  8.77D-08
 CPU and wall times used in FCKEIG, THR_FCKEIG:   1.25D-01  1.40D-02  1.80D-05
 -----------------------------------------------------------------------------

 *** DIIS iteration number    8
 RDSUPM called. NFMAT, ISYMDM(1:NFMAT)                     1
                     1

 ITDIIS, energy, error norm, change in energy, scr.thr., difden:
@ DIIS iter.   8    -361.088872284        2.89998D-04   -3.56D-07  -20    F

 (DIIS_RED) Control Parameters C2DIIS =         F NEVC =    8


 (DIIS_RED) B matrix:

               Column   1     Column   2     Column   3     Column   4     Column   5     Column   6
       1      13.47131943
       2       1.17885336     1.10703695
       3       0.83499072    -0.01815742     0.13302014
       4       0.07819312     0.04858391     0.00757078     0.00532101
       5       0.01482582     0.00449632     0.00412152     0.00065349     0.00063530
       6      -0.00372197    -0.00036918     0.00037170     0.00038247     0.00001411     0.00007858
       7       0.00012195     0.00021354    -0.00001336     0.00001223     0.00003267     0.00000136
       8       0.00009873    -0.00002023     0.00001037     0.00000033     0.00000063     0.00000071

               Column   7     Column   8
       7       0.00000323
       8       0.00000022     0.00000008
    ==== End of matrix output ====

 DIIS C vector; C2DIIS = F, LAMBDA = -5.76D-08
    0.000010   -0.000041   -0.000499    0.000718    0.010107   -0.009703   -0.162868    1.162278
* Read MO coefficients from SIRIUS.RST with label "NEWORB  " and header info: 19Dec18  DIIS   8
      Virial theorem: -V/T =      2.004704
@      MULPOP N      -0.79; H       0.43; H       0.38; H       0.44; H       0.36; O      -0.85; O      -0.86; O      -0.82; O      -0.82; H       0.49; 
@             H       0.42; H       0.45; H       0.47; H       0.42; H       0.41; H       0.39; H       0.47; 

 DIIS Fock eigenvalues in symmetry 1
      -20.67793      -20.65994      -20.65357      -20.63368      -15.71143
       -1.45089       -1.41456       -1.41151       -1.38179       -1.32320
       -0.81232       -0.80523       -0.79829       -0.79489       -0.77327
       -0.76003       -0.72960       -0.70377       -0.65745       -0.63934
       -0.63197       -0.61730       -0.59625       -0.59121       -0.56575
        0.11165        0.15997        0.16233        0.18726        0.22521
        0.24430        0.27443        0.28686        0.28930        0.30453
        0.33154        0.35984        0.69384        0.73231        0.74858
        0.87951        0.91424        0.92450        0.93772        0.95428
        0.97267        1.00443        1.00924        1.01539        1.04893
        1.05241        1.07459        1.09062        1.11224        1.12030
        1.14621        1.16881        1.20101        1.21906        1.22263
        1.26028        1.26839        1.30022        1.30952        1.44998
        1.46950        1.53391        1.56457        1.63292        1.64694
        1.67852        1.69938        1.70324        1.70843        1.73391
        1.74338        1.75825        1.76989        1.80450        1.82414
        1.87031        1.89292        2.04804        2.22870        2.24694
        2.33609        2.37172        2.41657        2.42832        2.43202
        2.44559        2.45732        2.46735        2.48558        2.49663
        2.52315        2.55301        2.62463        2.62898        2.68572
        2.71984        2.74443        2.82078        2.83123        2.83741
        2.84013        2.85182        2.87192        2.89079        2.93038
        2.94797        3.07012        3.15508        3.19099        3.20667
        3.21008        3.22949        3.26793        3.47214        3.58133
        3.58501        3.62104        3.63049        3.69551        3.73029
        3.74973        3.77374        3.78417        3.82086        3.83763
 Time used in FCKEIG, thr_jaco:   1.24D-01  1.40D-02  1.42D-08
 CPU and wall times used in FCKEIG, THR_FCKEIG:   1.25D-01  1.40D-02  2.90D-06
 -----------------------------------------------------------------------------

 *** DIIS iteration number    9
 RDSUPM called. NFMAT, ISYMDM(1:NFMAT)                     1
                     1

 ITDIIS, energy, error norm, change in energy, scr.thr., difden:
@ DIIS iter.   9    -361.088872294        1.10737D-04   -1.01D-08  -20    F

 (DIIS_RED) Control Parameters C2DIIS =         F NEVC =    8


 (DIIS_RED) B matrix:

               Column   1     Column   2     Column   3     Column   4     Column   5     Column   6
       1       0.00000001
       2       0.00000080     1.10703695
       3      -0.00000130    -0.01815742     0.13302014
       4       0.00000003     0.04858391     0.00757078     0.00532101
       5      -0.00000001     0.00449632     0.00412152     0.00065349     0.00063530
       6       0.00000005    -0.00036918     0.00037170     0.00038247     0.00001411     0.00007858
       7       0.00000005     0.00021354    -0.00001336     0.00001223     0.00003267     0.00000136
       8       0.00000001    -0.00002023     0.00001037     0.00000033     0.00000063     0.00000071

               Column   7     Column   8
       7       0.00000323
       8       0.00000022     0.00000008
    ==== End of matrix output ====

 DIIS C vector; C2DIIS = F, LAMBDA = -7.11D-09
    0.846404    0.000024   -0.000163   -0.000669    0.005820    0.002064   -0.087533    0.234053
* Read MO coefficients from SIRIUS.RST with label "NEWORB  " and header info: 19Dec18  DIIS   9
      Virial theorem: -V/T =      2.004705
@      MULPOP N      -0.79; H       0.43; H       0.38; H       0.44; H       0.36; O      -0.85; O      -0.86; O      -0.82; O      -0.82; H       0.49; 
@             H       0.42; H       0.45; H       0.47; H       0.42; H       0.41; H       0.39; H       0.47; 

 DIIS Fock eigenvalues in symmetry 1
      -20.67798      -20.65994      -20.65359      -20.63364      -15.71143
       -1.45090       -1.41457       -1.41151       -1.38177       -1.32320
       -0.81232       -0.80523       -0.79829       -0.79489       -0.77327
       -0.76003       -0.72959       -0.70378       -0.65746       -0.63934
       -0.63197       -0.61732       -0.59626       -0.59121       -0.56573
        0.11164        0.15997        0.16233        0.18726        0.22521
        0.24430        0.27443        0.28686        0.28930        0.30454
        0.33154        0.35984        0.69384        0.73231        0.74858
        0.87951        0.91424        0.92450        0.93772        0.95428
        0.97267        1.00443        1.00924        1.01538        1.04893
        1.05241        1.07460        1.09061        1.11223        1.12030
        1.14621        1.16881        1.20101        1.21906        1.22263
        1.26028        1.26840        1.30022        1.30952        1.44998
        1.46950        1.53391        1.56457        1.63292        1.64694
        1.67851        1.69938        1.70323        1.70843        1.73392
        1.74339        1.75825        1.76989        1.80449        1.82413
        1.87031        1.89292        2.04804        2.22870        2.24694
        2.33609        2.37172        2.41657        2.42831        2.43202
        2.44559        2.45731        2.46735        2.48558        2.49663
        2.52315        2.55301        2.62463        2.62898        2.68571
        2.71984        2.74443        2.82078        2.83123        2.83741
        2.84014        2.85182        2.87193        2.89079        2.93038
        2.94797        3.07012        3.15508        3.19099        3.20667
        3.21008        3.22949        3.26793        3.47214        3.58133
        3.58501        3.62103        3.63049        3.69551        3.73029
        3.74973        3.77374        3.78418        3.82086        3.83763
 Time used in FCKEIG, thr_jaco:   1.24D-01  1.40D-02  5.40D-09
 CPU and wall times used in FCKEIG, THR_FCKEIG:   1.24D-01  1.40D-02  1.11D-06
 -----------------------------------------------------------------------------

 *** DIIS iteration number   10
 RDSUPM called. NFMAT, ISYMDM(1:NFMAT)                     1
                     1

 ITDIIS, energy, error norm, change in energy, scr.thr., difden:
@ DIIS iter.  10    -361.088872295        3.26389D-05   -8.90D-10  -20    F

 (DIIS_RED) Control Parameters C2DIIS =         F NEVC =    8


 (DIIS_RED) B matrix:

               Column   1     Column   2     Column   3     Column   4     Column   5     Column   6
[...]

 Principal values of diagonalized transition strength matrix:

             a.u.               
 1      -0.00000002
 2      -0.00000000
 3       0.00298153

 Principal axis of diagonalized transition strength matrix:


               Column   1     Column   2     Column   3
       1       0.70737442    -0.19464294     0.67951127
       2       0.43629224    -0.63612036    -0.63639608
       3       0.55612095     0.74663580    -0.36505406
    ==== End of matrix output ====


 CCSD   oscillator strength matrix for state nr. 13 of symmetry 1
 CCSD  excitation energy:15.47440315


               Column   1     Column   2     Column   3
       1       0.01420211    -0.01330112    -0.00762992
       2      -0.01330112     0.01245708     0.00714569
       3      -0.00762992     0.00714569     0.00409894
    ==== End of matrix output ====

 Principal values of diagonalized oscillator strength matrix:

             a.u.               
 1      -0.00000017
 2       0.00000000
 3       0.03075829

 Principal axis of diagonalized oscillator strength matrix:


               Column   1     Column   2     Column   3
       1       0.70737442    -0.19464294     0.67951127
       2       0.43629224    -0.63612036    -0.63639608
       3       0.55612095     0.74663580    -0.36505406
    ==== End of matrix output ====


 CCSD  Transition strength matrix for state nr. 14 of symmetry 1
 CCSD  excitation energy:15.50886567

 Gauge: length

               Column   1     Column   2     Column   3
       1       0.00168593     0.00062819     0.00175069
       2       0.00062819     0.00023407     0.00065232
       3       0.00175069     0.00065232     0.00181784
    ==== End of matrix output ====

 Principal values of diagonalized transition strength matrix:

             a.u.               
 1      -0.00000005
 2       0.00000000
 3       0.00373789

 Principal axis of diagonalized transition strength matrix:


               Column   1     Column   2     Column   3
       1      -0.63986781    -0.37353046     0.67159823
       2      -0.27862677     0.92722480     0.25024248
       3       0.71619572     0.02700314     0.69737688
    ==== End of matrix output ====


 CCSD   oscillator strength matrix for state nr. 14 of symmetry 1
 CCSD  excitation energy:15.50886567


               Column   1     Column   2     Column   3
       1       0.01743129     0.00649501     0.01810082
       2       0.00649501     0.00242008     0.00674452
       3       0.01810082     0.00674452     0.01879510
    ==== End of matrix output ====

 Principal values of diagonalized oscillator strength matrix:

             a.u.               
 1      -0.00000051
 2       0.00000000
 3       0.03864698

 Principal axis of diagonalized oscillator strength matrix:


               Column   1     Column   2     Column   3
       1      -0.63986781    -0.37353046     0.67159823
       2      -0.27862677     0.92722480     0.25024248
       3       0.71619572     0.02700314     0.69737688
    ==== End of matrix output ====


 CCSD  Transition strength matrix for state nr. 15 of symmetry 1
 CCSD  excitation energy:15.52733154

 Gauge: length

               Column   1     Column   2     Column   3
       1       0.00052473     0.00091406    -0.00064700
       2       0.00091406     0.00159219    -0.00112696
       3      -0.00064700    -0.00112696     0.00079764
    ==== End of matrix output ====

 Principal values of diagonalized transition strength matrix:

             a.u.               
 1      -0.00000005
 2      -0.00000000
 3       0.00291460

 Principal axis of diagonalized transition strength matrix:


               Column   1     Column   2     Column   3
       1       0.75523393    -0.49957846     0.42431484
       2       0.02987741     0.67292466     0.73910739
       3       0.65477405     0.54552155    -0.52314165
    ==== End of matrix output ====


 CCSD   oscillator strength matrix for state nr. 15 of symmetry 1
 CCSD  excitation energy:15.52733154


               Column   1     Column   2     Column   3
       1       0.00543173     0.00946194    -0.00669745
       2       0.00946194     0.01648163    -0.01166574
       3      -0.00669745    -0.01166574     0.00825680
    ==== End of matrix output ====

 Principal values of diagonalized oscillator strength matrix:

             a.u.               
 1      -0.00000052
 2      -0.00000000
 3       0.03017068

 Principal axis of diagonalized oscillator strength matrix:


               Column   1     Column   2     Column   3
       1       0.75523393    -0.49957846     0.42431484
       2       0.02987741     0.67292466     0.73910739
       3       0.65477405     0.54552155    -0.52314165
    ==== End of matrix output ====

  Total time for    135 linear response residues:      90.05 seconds.
  

 *******************************************************************************
 *******************************************************************************
 *                                                                             *
 *                                                                             *
 *                   SUMMARY OF COUPLED CLUSTER CALCULATION                    *
 *                                                                             *
 *                                                                             *
 *******************************************************************************
 *******************************************************************************

                                                                                
                                                                                
            Total SCF   energy:                  -361.0888722951                
            Total MP2   energy:                  -362.0795515726                
            Total CCSD  energy:                  -362.1272436076                
                                                                                
                                                                                
            Total SCF   energy:                  -361.0888722951                
            Total RSTAR energy:                  -362.1272436076                
            Total CCSD  energy:                  -362.1273215400                
                                                                                
                                                                                
            Total SCF   energy:                  -361.0888722951                
            Total RSTAR energy:                  -362.1273215400                
            Total CCSD  energy:                  -362.1273229134                
                                                                                
                                                                                
            Total SCF   energy:                  -361.0888722951                
            Total RSTAR energy:                  -362.1273229134                
            Total CCSD  energy:                  -362.1273229903                
                                                                                
                                                                                
            Total SCF   energy:                  -361.0888722951                
            Total RSTAR energy:                  -362.1273229903                
            Total CCSD  energy:                  -362.1273229942                
                                                                                
                                                                                
            Total SCF   energy:                  -361.0888722951                
            Total RSTAR energy:                  -362.1273229942                
            Total CCSD  energy:                  -362.1273229943                
            CCSD Total  energy:                  -362.5413432709                
            CCSD E(QM/MM)     :                    -0.4098285266                
                                                                                
                                                                                
                                                                                
 +=============================================================================+
 |  sym. | Exci.  |        CCSD       Excitation energies            | ||T1||  |
 |(spin, |        +------------------------------------------------------------+
 | spat) |        |     Hartree    |       eV.      |     cm-1       |    %    |
 +=============================================================================+
 | ^1A   |    1   |    15.0176777  |     408.65180  |   3295999.257  |  89.12  |
 | ^1A   |    2   |    15.0562235  |     409.70068  |   3304459.075  |  89.40  |
 | ^1A   |    3   |    15.0936536  |     410.71921  |   3312674.038  |  89.36  |
 | ^1A   |    4   |    15.1141398  |     411.27667  |   3317170.240  |  89.50  |
 | ^1A   |    5   |    15.1846418  |     413.19512  |   3332643.622  |  88.37  |
 | ^1A   |    6   |    15.2021194  |     413.67071  |   3336479.517  |  88.10  |
 | ^1A   |    7   |    15.2237387  |     414.25900  |   3341224.413  |  88.16  |
 | ^1A   |    8   |    15.2415373  |     414.74333  |   3345130.744  |  88.09  |
 | ^1A   |    9   |    15.2688124  |     415.48552  |   3351116.939  |  88.15  |
 | ^1A   |   10   |    15.3017843  |     416.38273  |   3358353.442  |  87.91  |
 | ^1A   |   11   |    15.3030450  |     416.41704  |   3358630.122  |  87.84  |
 | ^1A   |   12   |    15.3247637  |     417.00803  |   3363396.841  |  87.73  |
 | ^1A   |   13   |    15.4744031  |     421.07993  |   3396238.896  |  89.93  |
 | ^1A   |   14   |    15.5088657  |     422.01770  |   3403802.544  |  90.22  |
 | ^1A   |   15   |    15.5273315  |     422.52018  |   3407855.335  |  89.98  |
 +=============================================================================+
                                                                                
                                                                                
     Total energies in Hartree:                                                 
             1 ^1A       -347.1138369987                                        
             2 ^1A       -347.0752912281                                        
             3 ^1A       -347.0378611061                                        
             4 ^1A       -347.0173749021                                        
             5 ^1A       -346.9468729859                                        
             6 ^1A       -346.9293953602                                        
             7 ^1A       -346.9077760249                                        
             8 ^1A       -346.8899774701                                        
             9 ^1A       -346.8627023564                                        
            10 ^1A       -346.8297304251                                        
            11 ^1A       -346.8284697783                                        
            12 ^1A       -346.8067510048                                        
            13 ^1A       -346.6571115947                                        
            14 ^1A       -346.6226490770                                        
            15 ^1A       -346.6041832017                                        
                                                                                
                                                                                
 +=============================================================================+
 |  sym. | Exci.  |        CCSD       Length   Gauge Oscillator Strength       |
 |(spin, |        +------------------------------------------------------------+
 | spat) |        | Dipole Strength(a.u.) | Oscillator strength  | Direction   |
 +=============================================================================+
 | ^1A   |    1   |        0.0005330      |      0.0053363       |  (Y,Z)      |
 | ^1A   |    2   |        0.0037895      |      0.0380369       |  (Y,Z)      |
 | ^1A   |    3   |        0.0034496      |      0.0347114       |  (Y,Z)      |
 | ^1A   |    4   |        0.0038765      |      0.0390601       |  (Y,Z)      |
 | ^1A   |    5   |        0.0002110      |      0.0021364       |  (Y,Z)      |
 | ^1A   |    6   |        0.0002645      |      0.0026806       |  (Y,Z)      |
 | ^1A   |    7   |        0.0005238      |      0.0053161       |  (Y,Z)      |
 | ^1A   |    8   |        0.0004291      |      0.0043599       |  (Y,Z)      |
 | ^1A   |    9   |        0.0000761      |      0.0007750       |  (Y,Z)      |
 | ^1A   |   10   |        0.0000342      |      0.0003485       |  (Y,Z)      |
 | ^1A   |   11   |        0.0000004      |      0.0000041       |  (Y,Z)      |
 | ^1A   |   12   |        0.0000133      |      0.0001354       |  (Y,Z)      |
 | ^1A   |   13   |        0.0029815      |      0.0307581       |  (Y,Z)      |
 | ^1A   |   14   |        0.0037378      |      0.0386465       |  (Y,Z)      |
 | ^1A   |   15   |        0.0029146      |      0.0301702       |  (Y,Z)      |
 +=============================================================================+

  1 a.u. =        27.21138 eV.  
  1 a.u. =    219474.62934 cm-1.
  

 *******************************************************************************
 *******************************************************************************
 *                                                                             *
 *                                                                             *
 *                      END OF COUPLED CLUSTER CALCULATION                     *
 *                                                                             *
 *                                                                             *
 *******************************************************************************
 *******************************************************************************


 CPU and wall time for CC :  224702.799   24215.018

 
     Date and time (Linux)  : Wed Dec 19 20:35:27 2018
     Host name              : n-62-23-10                              


                      .-------------------------------------.
                      | End of Coupled Cluster Section (CC) |
                      `-------------------------------------'

  Total CPU  time used in DALTON:  62 hours 32 minutes  2 seconds
  Total wall time used in DALTON:   6 hours 45 minutes  3 seconds

 
     Date and time (Linux)  : Wed Dec 19 20:35:27 2018
     Host name              : n-62-23-10                              
  

 +---------------------------------------------------------+ 
 | List of selected calculated molecular properties (a.u.) | 
 +---------------------------------------------------------+ 

  Properties are read from unit number                      4

 CCSD       properties :
 #  1 1 CCSD/MM  Ground state Energy =    -362.5413432709
 #  2 1 E_QM/MM  Ground state Energy =      -0.4098285266
 #  3 1 Sy: 1 Sp: 1 Exc:  1 E_tot:   -347.1138369987 w:     15.0176777456 E_grs:   -362.1315147443
 #  4 1 Exctot   Excited state Energy =    -347.1138369987
 #  5 1 Sy: 1 Sp: 1 Exc:  2 E_tot:   -347.0752912281 w:     15.0562235161 E_grs:   -362.1315147443
 #  6 1 Exctot   Excited state Energy =    -347.0752912281
 #  7 1 Sy: 1 Sp: 1 Exc:  3 E_tot:   -347.0378611061 w:     15.0936536382 E_grs:   -362.1315147443
 #  8 1 Exctot   Excited state Energy =    -347.0378611061
 #  9 1 Sy: 1 Sp: 1 Exc:  4 E_tot:   -347.0173749021 w:     15.1141398422 E_grs:   -362.1315147443
 # 10 1 Exctot   Excited state Energy =    -347.0173749021
 # 11 1 Sy: 1 Sp: 1 Exc:  5 E_tot:   -346.9468729859 w:     15.1846417584 E_grs:   -362.1315147443
 # 12 1 Exctot   Excited state Energy =    -346.9468729859
 # 13 1 Sy: 1 Sp: 1 Exc:  6 E_tot:   -346.9293953602 w:     15.2021193841 E_grs:   -362.1315147443
 # 14 1 Exctot   Excited state Energy =    -346.9293953602
 # 15 1 Sy: 1 Sp: 1 Exc:  7 E_tot:   -346.9077760249 w:     15.2237387194 E_grs:   -362.1315147443
 # 16 1 Exctot   Excited state Energy =    -346.9077760249
 # 17 1 Sy: 1 Sp: 1 Exc:  8 E_tot:   -346.8899774701 w:     15.2415372741 E_grs:   -362.1315147443
 # 18 1 Exctot   Excited state Energy =    -346.8899774701
 # 19 1 Sy: 1 Sp: 1 Exc:  9 E_tot:   -346.8627023564 w:     15.2688123879 E_grs:   -362.1315147443
 # 20 1 Exctot   Excited state Energy =    -346.8627023564
 # 21 1 Sy: 1 Sp: 1 Exc: 10 E_tot:   -346.8297304251 w:     15.3017843192 E_grs:   -362.1315147443
 # 22 1 Exctot   Excited state Energy =    -346.8297304251
 # 23 1 Sy: 1 Sp: 1 Exc: 11 E_tot:   -346.8284697783 w:     15.3030449660 E_grs:   -362.1315147443
 # 24 1 Exctot   Excited state Energy =    -346.8284697783
 # 25 1 Sy: 1 Sp: 1 Exc: 12 E_tot:   -346.8067510048 w:     15.3247637395 E_grs:   -362.1315147443
 # 26 1 Exctot   Excited state Energy =    -346.8067510048
 # 27 1 Sy: 1 Sp: 1 Exc: 13 E_tot:   -346.6571115947 w:     15.4744031496 E_grs:   -362.1315147443
 # 28 1 Exctot   Excited state Energy =    -346.6571115947
 # 29 1 Sy: 1 Sp: 1 Exc: 14 E_tot:   -346.6226490770 w:     15.5088656673 E_grs:   -362.1315147443
 # 30 1 Exctot   Excited state Energy =    -346.6226490770
 # 31 1 Sy: 1 Sp: 1 Exc: 15 E_tot:   -346.6041832017 w:     15.5273315425 E_grs:   -362.1315147443
 # 32 1 Exctot   Excited state Energy =    -346.6041832017
 # 33 1 |<O|XDIPLEN |i(15.017678)>| =     0.01027694
 # 35 1 |<O|XDIPLEN |i(15.056224)>| =     0.02084369
 # 37 1 |<O|XDIPLEN |i(15.093654)>| =     0.05553380
 # 39 1 |<O|XDIPLEN |i(15.114140)>| =     0.01096117
 # 41 1 |<O|XDIPLEN |i(15.184642)>| =     0.01444196
 # 43 1 |<O|XDIPLEN |i(15.202119)>| =     0.01258870
 # 45 1 |<O|XDIPLEN |i(15.223739)>| =     0.01254829
 # 47 1 |<O|XDIPLEN |i(15.241537)>| =     0.00271876
 # 49 1 |<O|XDIPLEN |i(15.268812)>| =     0.00099584
 # 51 1 |<O|XDIPLEN |i(15.301784)>| =     0.00558149
 # 53 1 |<O|XDIPLEN |i(15.303045)>| =     0.00056446
 # 55 1 |<O|XDIPLEN |i(15.324764)>| =     0.00158944
 # 57 1 |<O|XDIPLEN |i(15.474403)>| =     0.03710352
 # 59 1 |<O|XDIPLEN |i(15.508866)>| =     0.04106013
 # 61 1 |<O|XDIPLEN |i(15.527332)>| =     0.02290689
 # 63 1 |<O|YDIPLEN |i(15.017678)>| =     0.00299025
 # 65 1 |<O|YDIPLEN |i(15.056224)>| =     0.03338204
 # 67 1 |<O|YDIPLEN |i(15.093654)>| =     0.00043793
 # 69 1 |<O|YDIPLEN |i(15.114140)>| =     0.05296891
 # 71 1 |<O|YDIPLEN |i(15.184642)>| =     0.00094468
 # 73 1 |<O|YDIPLEN |i(15.202119)>| =     0.00302103
 # 75 1 |<O|YDIPLEN |i(15.223739)>| =     0.01907386
 # 77 1 |<O|YDIPLEN |i(15.241537)>| =     0.01417939
 # 79 1 |<O|YDIPLEN |i(15.268812)>| =     0.00852895
 # 81 1 |<O|YDIPLEN |i(15.301784)>| =     0.00159930
 # 83 1 |<O|YDIPLEN |i(15.303045)>| =     0.00005369
 # 85 1 |<O|YDIPLEN |i(15.324764)>| =     0.00310311
 # 87 1 |<O|YDIPLEN |i(15.474403)>| =     0.03474935
 # 89 1 |<O|YDIPLEN |i(15.508866)>| =     0.01529928
 # 91 1 |<O|YDIPLEN |i(15.527332)>| =     0.03990224
 # 93 1 |<O|ZDIPLEN |i(15.017678)>| =     0.02045603
 # 95 1 |<O|ZDIPLEN |i(15.056224)>| =     0.04733568
 # 97 1 |<O|ZDIPLEN |i(15.093654)>| =     0.01911576
 # 99 1 |<O|ZDIPLEN |i(15.114140)>| =     0.03083279
 #101 1 |<O|ZDIPLEN |i(15.184642)>| =     0.00125873
 #103 1 |<O|ZDIPLEN |i(15.202119)>| =     0.00984338
 #105 1 |<O|ZDIPLEN |i(15.223739)>| =     0.00159057
 #107 1 |<O|ZDIPLEN |i(15.241537)>| =     0.01485383
 #109 1 |<O|ZDIPLEN |i(15.268812)>| =     0.00154812
 #111 1 |<O|ZDIPLEN |i(15.301784)>| =     0.00067447
 #113 1 |<O|ZDIPLEN |i(15.303045)>| =     0.00028102
 #115 1 |<O|ZDIPLEN |i(15.324764)>| =     0.00104690
 #117 1 |<O|ZDIPLEN |i(15.474403)>| =     0.01993307
 #119 1 |<O|ZDIPLEN |i(15.508866)>| =     0.04263615
 #121 1 |<O|ZDIPLEN |i(15.527332)>| =     0.02824251

 THE_END   
