

     ************************************************************************
     *************** Dalton - An Electronic Structure Program ***************
     ************************************************************************

    This is output from DALTON release Dalton2017.alpha (2016)
         ( Web site: http://daltonprogram.org )

   ----------------------------------------------------------------------------

    NOTE:
     
    Dalton is an experimental code for the evaluation of molecular
    properties using (MC)SCF, DFT, CI, and CC wave functions.
    The authors accept no responsibility for the performance of
    the code or for the correctness of the results.
     
    The code (in whole or part) is provided under a licence and
    is not to be reproduced for further distribution without
    the written permission of the authors or their representatives.
     
    See the home page "http://daltonprogram.org" for further information.
     
    If results obtained with this code are published,
    the appropriate citations would be both of:
     
       K. Aidas, C. Angeli, K. L. Bak, V. Bakken, R. Bast,
       L. Boman, O. Christiansen, R. Cimiraglia, S. Coriani,
       P. Dahle, E. K. Dalskov, U. Ekstroem,
       T. Enevoldsen, J. J. Eriksen, P. Ettenhuber, B. Fernandez,
       L. Ferrighi, H. Fliegl, L. Frediani, K. Hald, A. Halkier,
       C. Haettig, H. Heiberg, T. Helgaker, A. C. Hennum,
       H. Hettema, E. Hjertenaes, S. Hoest, I.-M. Hoeyvik,
       M. F. Iozzi, B. Jansik, H. J. Aa. Jensen, D. Jonsson,
       P. Joergensen, J. Kauczor, S. Kirpekar,
       T. Kjaergaard, W. Klopper, S. Knecht, R. Kobayashi, H. Koch,
       J. Kongsted, A. Krapp, K. Kristensen, A. Ligabue,
       O. B. Lutnaes, J. I. Melo, K. V. Mikkelsen, R. H. Myhre,
       C. Neiss, C. B. Nielsen, P. Norman, J. Olsen,
       J. M. H. Olsen, A. Osted, M. J. Packer, F. Pawlowski,
       T. B. Pedersen, P. F. Provasi, S. Reine, Z. Rinkevicius,
       T. A. Ruden, K. Ruud, V. Rybkin, P. Salek, C. C. M. Samson,
       A. Sanchez de Meras, T. Saue, S. P. A. Sauer,
       B. Schimmelpfennig, K. Sneskov, A. H. Steindal,
       K. O. Sylvester-Hvid, P. R. Taylor, A. M. Teale,
       E. I. Tellgren, D. P. Tew, A. J. Thorvaldsen, L. Thoegersen,
       O. Vahtras, M. A. Watson, D. J. D. Wilson, M. Ziolkowski
       and H. Agren,
       "The Dalton quantum chemistry program system",
       WIREs Comput. Mol. Sci. 2014, 4:269–284 (doi: 10.1002/wcms.1172)
     
    and
     
       Dalton, a Molecular Electronic Structure Program,
       Release Dalton2017.alpha (2016), see http://daltonprogram.org
   ----------------------------------------------------------------------------

    Authors in alphabetical order (major contribution(s) in parenthesis):

  Kestutis Aidas,           Vilnius University,           Lithuania   (QM/MM)
  Celestino Angeli,         University of Ferrara,        Italy       (NEVPT2)
  Keld L. Bak,              UNI-C,                        Denmark     (AOSOPPA, non-adiabatic coupling, magnetic properties)
  Vebjoern Bakken,          University of Oslo,           Norway      (DALTON; geometry optimizer, symmetry detection)
  Radovan Bast,             UiT The Arctic U. of Norway,  Norway      (DALTON installation and execution frameworks)
  Pablo Baudin,             University of Valencia,       Spain       (Cholesky excitation energies)
  Linus Boman,              NTNU,                         Norway      (Cholesky decomposition and subsystems)
  Ove Christiansen,         Aarhus University,            Denmark     (CC module)
  Renzo Cimiraglia,         University of Ferrara,        Italy       (NEVPT2)
  Sonia Coriani,            University of Trieste,        Italy       (CC module, MCD in RESPONS)
  Janusz Cukras,            University of Trieste,        Italy       (MChD in RESPONS)
  Paal Dahle,               University of Oslo,           Norway      (Parallelization)
  Erik K. Dalskov,          UNI-C,                        Denmark     (SOPPA)
  Thomas Enevoldsen,        Univ. of Southern Denmark,    Denmark     (SOPPA)
  Janus J. Eriksen,         Aarhus University,            Denmark     (Polarizable embedding model, TDA)
  Rasmus Faber,             University of Copenhagen,     Denmark     (Vib.avg. NMR with SOPPA, parallel AO-SOPPA)
  Berta Fernandez,          U. of Santiago de Compostela, Spain       (doublet spin, ESR in RESPONS)
  Lara Ferrighi,            Aarhus University,            Denmark     (PCM Cubic response)
  Heike Fliegl,             University of Oslo,           Norway      (CCSD(R12))
  Luca Frediani,            UiT The Arctic U. of Norway,  Norway      (PCM)
  Bin Gao,                  UiT The Arctic U. of Norway,  Norway      (Gen1Int library)
  Christof Haettig,         Ruhr-University Bochum,       Germany     (CC module)
  Kasper Hald,              Aarhus University,            Denmark     (CC module)
  Asger Halkier,            Aarhus University,            Denmark     (CC module)
  Frederik Beyer Hansen,    University of Copenhagen,     Denmark     (Parallel AO-SOPPA)
  Erik D. Hedegaard,        Univ. of Southern Denmark,    Denmark     (Polarizable embedding model, QM/MM)
  Hanne Heiberg,            University of Oslo,           Norway      (geometry analysis, selected one-electron integrals)
  Trygve Helgaker,          University of Oslo,           Norway      (DALTON; ABACUS, ERI, DFT modules, London, and much more)
  Alf Christian Hennum,     University of Oslo,           Norway      (Parity violation)
  Hinne Hettema,            University of Auckland,       New Zealand (quadratic response in RESPONS; SIRIUS supersymmetry)
  Eirik Hjertenaes,         NTNU,                         Norway      (Cholesky decomposition)
  Pi A. B. Haase,           University of Copenhagen,     Denmark     (Triplet AO-SOPPA)
  Maria Francesca Iozzi,    University of Oslo,           Norway      (RPA)
  Brano Jansik              Technical Univ. of Ostrava    Czech Rep.  (DFT cubic response)
  Hans Joergen Aa. Jensen,  Univ. of Southern Denmark,    Denmark     (DALTON; SIRIUS, RESPONS, ABACUS modules, London, and much more)
  Dan Jonsson,              UiT The Arctic U. of Norway,  Norway      (cubic response in RESPONS module)
  Poul Joergensen,          Aarhus University,            Denmark     (RESPONS, ABACUS, and CC modules)
  Maciej Kaminski,          University of Warsaw,         Poland      (CPPh in RESPONS)
  Joanna Kauczor,           Linkoeping University,        Sweden      (Complex polarization propagator (CPP) module)
  Sheela Kirpekar,          Univ. of Southern Denmark,    Denmark     (Mass-velocity & Darwin integrals)
  Wim Klopper,              KIT Karlsruhe,                Germany     (R12 code in CC, SIRIUS, and ABACUS modules)
  Stefan Knecht,            ETH Zurich,                   Switzerland (Parallel CI and MCSCF)
  Rika Kobayashi,           Australian National Univ.,    Australia   (DIIS in CC, London in MCSCF)
  Henrik Koch,              NTNU,                         Norway      (CC module, Cholesky decomposition)
  Jacob Kongsted,           Univ. of Southern Denmark,    Denmark     (Polarizable embedding model, QM/MM)
  Andrea Ligabue,           University of Modena,         Italy       (CTOCD, AOSOPPA)
  Nanna H. List             Univ. of Southern Denmark,    Denmark     (Polarizable embedding model)
  Ola B. Lutnaes,           University of Oslo,           Norway      (DFT Hessian)
  Juan I. Melo,             University of Buenos Aires,   Argentina   (LRESC, Relativistic Effects on NMR Shieldings)
  Kurt V. Mikkelsen,        University of Copenhagen,     Denmark     (MC-SCRF and QM/MM)
  Rolf H. Myhre,            NTNU,                         Norway      (Cholesky, subsystems and ECC2)
  Christian Neiss,          Univ. Erlangen-Nuernberg,     Germany     (CCSD(R12))
  Christian B. Nielsen,     University of Copenhagen,     Denmark     (QM/MM)
  Patrick Norman,           Linkoeping University,        Sweden      (Cubic response and complex frequency response in RESPONS)
  Jeppe Olsen,              Aarhus University,            Denmark     (SIRIUS CI/density modules)
  Jogvan Magnus H. Olsen,   Univ. of Southern Denmark,    Denmark     (Polarizable embedding model, QM/MM)
  Anders Osted,             Copenhagen University,        Denmark     (QM/MM)
  Martin J. Packer,         University of Sheffield,      UK          (SOPPA)
  Filip Pawlowski,          Kazimierz Wielki University,  Poland      (CC3)
  Morten N. Pedersen,       Univ. of Southern Denmark,    Denmark     (Polarizable embedding model)
  Thomas B. Pedersen,       University of Oslo,           Norway      (Cholesky decomposition)
  Patricio F. Provasi,      University of Northeastern,   Argentina   (Analysis of coupling constants in localized orbitals)
  Zilvinas Rinkevicius,     KTH Stockholm,                Sweden      (open-shell DFT, ESR)
  Elias Rudberg,            KTH Stockholm,                Sweden      (DFT grid and basis info)
  Torgeir A. Ruden,         University of Oslo,           Norway      (Numerical derivatives in ABACUS)
  Kenneth Ruud,             UiT The Arctic U. of Norway,  Norway      (DALTON; ABACUS magnetic properties and much more)
  Pawel Salek,              KTH Stockholm,                Sweden      (DALTON; DFT code)
  Claire C. M. Samson       University of Karlsruhe       Germany     (Boys localization, r12 integrals in ERI)
  Alfredo Sanchez de Meras, University of Valencia,       Spain       (CC module, Cholesky decomposition)
  Trond Saue,               Paul Sabatier University,     France      (direct Fock matrix construction)
  Stephan P. A. Sauer,      University of Copenhagen,     Denmark     (SOPPA(CCSD), SOPPA prop., AOSOPPA, vibrational g-factors)
  Bernd Schimmelpfennig,    Forschungszentrum Karlsruhe,  Germany     (AMFI module)
  Kristian Sneskov,         Aarhus University,            Denmark     (Polarizable embedding model, QM/MM)
  Arnfinn H. Steindal,      UiT The Arctic U. of Norway,  Norway      (parallel QM/MM, Polarizable embedding model)
  Casper Steinmann,         Univ. of Southern Denmark,    Denmark     (QFIT, Polarizable embedding model)
  K. O. Sylvester-Hvid,     University of Copenhagen,     Denmark     (MC-SCRF)
  Peter R. Taylor,          VLSCI/Univ. of Melbourne,     Australia   (Symmetry handling ABACUS, integral transformation)
  Andrew M. Teale,          University of Nottingham,     England     (DFT-AC, DFT-D)
  David P. Tew,             University of Bristol,        England     (CCSD(R12))
  Olav Vahtras,             KTH Stockholm,                Sweden      (triplet response, spin-orbit, ESR, TDDFT, open-shell DFT)
  David J. Wilson,          La Trobe University,          Australia   (DFT Hessian and DFT magnetizabilities)
  Hans Agren,               KTH Stockholm,                Sweden      (SIRIUS module, RESPONS, MC-SCRF solvation model)
 --------------------------------------------------------------------------------

     Date and time (Linux)  : Thu Jun 14 12:36:58 2018
     Host name              : n-62-29-11                              

 * Work memory size             :   512000000 =  3.815 gigabytes.

 * Directories for basis set searches:
   1) /zhome/37/3/129401/NH3NH4/CCSD/AIMD_SAMPLING/nh4_4h2o
   2) /zhome/d7/7/119775/My_Codes/dalton-private/build2016/basis


Compilation information
-----------------------

 Who compiled             | soco
 Host                     | hpclogin1
 System                   | Linux-2.6.32-696.20.1.el6.x86_64
 CMake generator          | Unix Makefiles
 Processor                | x86_64
 64-bit integers          | ON
 MPI                      | OFF
 Fortran compiler         | /opt/intel/2016update2/compilers_and_libraries_201
                          | 6.2.181/linux/bin/intel64/ifort
 Fortran compiler version | ifort (IFORT) 16.0.2 20160204
 C compiler               | /opt/intel/2016update2/compilers_and_libraries_201
                          | 6.2.181/linux/bin/intel64/icc
 C compiler version       | icc (ICC) 16.0.2 20160204
 C++ compiler             | /opt/intel/2016update2/compilers_and_libraries_201
                          | 6.2.181/linux/bin/intel64/icpc
 C++ compiler version     | icpc (ICC) 16.0.2 20160204
 Static linking           | OFF
 Last Git revision        | ed040e3212b88786272871181646ac7f3e590142
 Git branch               | cvs
 Configuration time       | 2018-06-12 16:14:52.545968


   Content of the .dal input file
 ----------------------------------

**DALTON
.RUN WAVE FUNCTIONS
*QMMM
.QMMM
**INTEGRALS
.DIPLEN
**WAVE FUNCTIONS
.CC
*PRINT
!To check the origin of excit
.PRINTL
   0 11
*SCF INP
.THRESH
1.0D-7
*ORBITAL INPUT
.MOSTART
 NEWORB
*CC INP
.RESTART
.CCSD
.THRLEQ
 1.0D-9
.THRENR
 1.0D-10
.FROIMP
4
0
.PRINT
 1
.MAX IT
 1200
.MAXRED
 1200
.MXLRV
1199
*CCSLV
.CCMM
.MXSLIT
200
.MXINIT
4 5
*CCEXCI
.NCCEXC
 30
.CVSEPARA
1
1
*CCLRSD
.DIPOLE
**END OF DALTON INPUT


   Content of the .mol file
 ----------------------------

ATOMBASIS


Atomtypes=4 Charge=1 Nosymm Angstrom
   7.00000    1    Basis=6-311++G**
N          0.000000        0.000000        0.000000
   1.00000    4    Basis=6-311++G**
H         -0.986798        0.158192        0.209252
H          0.099905        0.008150       -1.036203
H          0.306136       -0.830246        0.456604
H          0.602571        0.778264        0.308939
   8.00000    4    Basis=6-31G**
O         -2.851387        0.280971       -0.395421
O          1.557405        2.243639        0.898477
O          0.027701        0.430319       -2.700204
O          2.086789       -1.795203        1.452611
   1.00000    8    Basis=6-31G**
H         -3.332311       -0.400096        0.142368
H         -3.514301        1.053183       -0.434516
H          1.432841        3.232280        1.052153
H          2.267997        2.159980        0.184844
H          0.867235        0.355314       -3.217866
H         -0.496919       -0.303537       -3.061090
H          1.766803       -2.435519        2.169424
H          2.362806       -0.979235        1.975913


       *******************************************************************
       *********** Output from DALTON general input processing ***********
       *******************************************************************

 --------------------------------------------------------------------------------
   Overall default print level:    0
   Print level for DALTON.STAT:    1

    HERMIT 1- and 2-electron integral sections will be executed
    "Old" integral transformation used (limited to max 255 basis functions)
    Wave function sections will be executed (SIRIUS module)
 --------------------------------------------------------------------------------


 Changes of defaults for *QMMM  :
 --------------------------------

 +------------------+
 |  WORD: | CHANGE: |
 +------------------+
 |   QMMM |       T |
 +------------------+
 


   ****************************************************************************
   *************** Output of molecule and basis set information ***************
   ****************************************************************************


    The two title cards from your ".mol" input:
    ------------------------------------------------------------------------
 1:                                                                         
 2:                                                                         
    ------------------------------------------------------------------------

  Coordinates are entered in Angstrom and converted to atomic units.
          - Conversion factor : 1 bohr = 0.52917721 A

  Atomic type no.    1
  --------------------
  Nuclear charge:   7.00000
  Number of symmetry independent centers:    1
  Number of basis sets to read;    1
  The basis set is "6-311++G**" from the basis set library.
  Basis set file used for this atomic type with Z =   7 :
     "/zhome/d7/7/119775/My_Codes/dalton-private/build2016/basis/6-311++G**"

  Info about the basis set file: your basis has no documentation.
  Basis set: 6-311++G**                                                                      

  Atomic type no.    2
  --------------------
  Nuclear charge:   1.00000
  Number of symmetry independent centers:    4
  Number of basis sets to read;    1
  The basis set is "6-311++G**" from the basis set library.
  Basis set file used for this atomic type with Z =   1 :
     "/zhome/d7/7/119775/My_Codes/dalton-private/build2016/basis/6-311++G**"

  Info about the basis set file: your basis has no documentation.
  Basis set: 6-311++G**                                                                      

  Atomic type no.    3
  --------------------
  Nuclear charge:   8.00000
  Number of symmetry independent centers:    4
  Number of basis sets to read;    1
  The basis set is "6-31G**" from the basis set library.
  Basis set file used for this atomic type with Z =   8 :
     "/zhome/d7/7/119775/My_Codes/dalton-private/build2016/basis/6-31G**"

  Info about the basis set file: your basis has no documentation.
  Basis set: 6-31G**                                                                         

  Atomic type no.    4
  --------------------
  Nuclear charge:   1.00000
  Number of symmetry independent centers:    8
  Number of basis sets to read;    1
  The basis set is "6-31G**" from the basis set library.
  Basis set file used for this atomic type with Z =   1 :
     "/zhome/d7/7/119775/My_Codes/dalton-private/build2016/basis/6-31G**"

  Info about the basis set file: your basis has no documentation.
  Basis set: 6-31G**                                                                         


                         SYMGRP: Point group information
                         -------------------------------

@    Point group: C1 


                                 Isotopic Masses
                                 ---------------

                           N          14.003074
                           H           1.007825
                           H           1.007825
                           H           1.007825
                           H           1.007825
                           O          15.994915
                           O          15.994915
                           O          15.994915
                           O          15.994915
                           H           1.007825
                           H           1.007825
                           H           1.007825
                           H           1.007825
                           H           1.007825
                           H           1.007825
                           H           1.007825
                           H           1.007825

                       Total mass:    90.076634 amu
                       Natural abundance:  98.500 %

 Center-of-mass coordinates (a.u.):    0.304421    0.448288   -0.276269


  Atoms and basis sets
  --------------------

  Number of atom types :    4
  Total number of atoms:   17

  label    atoms   charge   prim   cont     basis
  ----------------------------------------------------------------------
  N           1    7.0000    35    22      [12s6p1d|5s4p1d]                                   
  H           4    1.0000     9     7      [6s1p|4s1p]                                        
  O           4    8.0000    27    14      [10s4p1d|3s2p1d]                                   
  H           8    1.0000     7     5      [4s1p|2s1p]                                        
  ----------------------------------------------------------------------
  total:     17   51.0000   235   146
  ----------------------------------------------------------------------
  Spherical harmonic basis used.

  Threshold for neglecting AO integrals:  1.00D-12


  Cartesian Coordinates (a.u.)
  ----------------------------

  Total number of coordinates:   51
  N       :     1  x   0.0000000000    2  y   0.0000000000    3  z   0.0000000000
  H       :     4  x  -1.8647779607    5  y   0.2989395552    6  z   0.3954289711
  H       :     7  x   0.1887930885    8  y   0.0154012679    9  z  -1.9581398799
  H       :    10  x   0.5785131970   11  y  -1.5689375564   12  z   0.8628565076
  H       :    13  x   1.1386941609   14  y   1.4707058129   15  z   0.5838100993
  O       :    16  x  -5.3883405064   17  y   0.5309582391   18  z  -0.7472373941
  O       :    19  x   2.9430689157   20  y   4.2398632334   21  z   1.6978754596
  O       :    22  x   0.0523473034   23  y   0.8131850564   24  z  -5.1026460416
  O       :    25  x   3.9434596906   26  y  -3.3924420088   27  z   2.7450369562
  H       :    28  x  -6.2971551533   29  y  -0.7560718637   30  z   0.2690365290
  H       :    31  x  -6.6410664108   32  y   1.9902274295   33  z  -0.8211162369
  H       :    34  x   2.7076770707   35  y   6.1081239593   36  z   1.9882810116
  H       :    37  x   4.2858931823   38  y   4.0817706355   39  z   0.3493045358
  H       :    40  x   1.6388366360   41  y   0.6714461484   42  z  -6.0808854469
  H       :    43  x  -0.9390408163   44  y  -0.5736017988   45  z  -5.7846217440
  H       :    46  x   3.3387737868   47  y  -4.6024638822   48  z   4.0996172090
  H       :    49  x   4.4650562265   50  y  -1.8504859620   51  z   3.7339344168

  Max    interatomic separation is    6.8441 Angstrom (   12.9335 Bohr)
  between atoms   16 and   11, "H     " and "H     ".

  Min HX interatomic separation is    0.9716 Angstrom (    1.8361 Bohr)

  Min YX interatomic separation is    2.7344 Angstrom (    5.1673 Bohr)


  Bond distances (Angstrom):
  --------------------------

                  atom 1     atom 2       distance
                  ------     ------       --------
  bond distance:  H          N            1.021069
  bond distance:  H          N            1.041040
  bond distance:  H          N            0.995748
  bond distance:  H          N            1.031615
  bond distance:  H          O            0.992148
  bond distance:  H          O            1.018477
  bond distance:  H          O            1.008238
  bond distance:  H          O            1.010550
  bond distance:  H          O            0.989150
  bond distance:  H          O            0.971602
  bond distance:  H          O            1.013023
  bond distance:  H          O            1.007886


  Bond angles (degrees):
  ----------------------

                  atom 1     atom 2     atom 3         angle
                  ------     ------     ------         -----
  bond angle:     H          N          H            107.188
  bond angle:     H          N          H            109.410
  bond angle:     H          N          H            112.721
  bond angle:     H          N          H            115.686
  bond angle:     H          N          H            103.658
  bond angle:     H          N          H            108.187
  bond angle:     H          O          H            103.048
  bond angle:     H          O          H            106.003
  bond angle:     H          O          H            101.924
  bond angle:     H          O          H            103.346




 Principal moments of inertia (u*A**2) and principal axes
 --------------------------------------------------------

   IA     278.928570          0.813318   -0.168257    0.556959
   IB     471.571523          0.378648    0.879879   -0.287122
   IC     508.953087         -0.441746    0.444413    0.779332


 Rotational constants
 --------------------

               A                   B                   C

           1811.8582           1071.6911            992.9776 MHz
            0.060437            0.035748            0.033122 cm-1


@  Nuclear repulsion energy :  197.867445360576 Hartree


                     .---------------------------------------.
                     | Starting in Integral Section (HERMIT) |
                     `---------------------------------------'



 ***************************************************************************************
 ****************** Output from **INTEGRALS input processing (HERMIT) ******************
 ***************************************************************************************



    *************************************************************************
    ****************** Output from HERMIT input processing ******************
    *************************************************************************


 Default print level:        1

 * Nuclear model: Point charge

 Calculation of one- and two-electron Hamiltonian integrals.

 The following one-electron property integrals are calculated as requested:
          - overlap integrals
          - dipole length integrals

 Center of mass  (bohr):      0.304421072511      0.448288259817     -0.276268787024
 Operator center (bohr):      0.000000000000      0.000000000000      0.000000000000
 Gauge origin    (bohr):      0.000000000000      0.000000000000      0.000000000000
 Dipole origin   (bohr):      0.000000000000      0.000000000000      0.000000000000
 
  *********************************** 
  QMMM electrostatic potential: 
  Multipole order                                    0
  Isotropic polarization  
  *********************************** 
 
  ---------------- 
  QMMM information 
  ---------------- 
 
  MM coordinates in au 
  -------------------- 
     1      0.213346      6.818655     -2.976139
     2      1.774785      6.546741     -2.153137
     3      0.302454      8.626057     -3.502551
     4      9.467201      8.707926     -8.190836
     5      7.691482      8.696196     -7.933252
     6     10.088212      6.932317     -8.567856
     7      5.051285      9.308041     -4.626539
     8      6.153661     10.282446     -3.630905
     9      5.268611      7.446417     -4.348914
    10      8.059315    -11.198475     -1.081267
    11      8.611892    -11.652167      0.662693
    12      9.789858    -11.147413     -1.853103
    13     -8.058030     -7.946313     -3.382604
    14     -6.293497     -8.418036     -3.210289
    15     -8.537528     -7.429866     -5.129805
    16    -11.199328     11.069307     -4.686247
    17    -12.108870     10.361718     -6.082872
    18    -10.564293     12.808033     -4.964481
    19     -3.246884     -8.515869      4.018709
    20     -2.487138     -8.825047      2.368052
    21     -4.188740    -10.018752      4.707266
    22      4.865680      0.734867     -6.835689
    23      5.533795     -0.904691     -6.298314
    24      5.445998      0.853132     -8.701040
    25      5.771171    -10.914656      5.797995
    26      7.047129     -9.719712      5.149398
    27      6.349206    -12.693309      5.806909
    28     -2.993464      5.232997     -8.221989
    29     -3.599754      3.906878     -9.395764
    30     -1.731683      4.475185     -6.983218
    31     -9.613965      3.657310     -1.094032
    32    -10.641120      3.191386      0.403014
    33     -9.450286      5.476031     -1.073461
    34      9.372637     -6.316317     -5.085202
    35     10.547805     -5.348195     -5.968666
    36      8.757650     -5.517564     -3.477293
    37     11.135300      1.093233     -4.748147
    38     12.158793     -0.238977     -5.361595
    39     12.088117      2.349846     -3.676897
    40      9.746555     -3.519010     -0.295461
    41      8.515527     -3.668996      1.088161
    42      9.811178     -1.695716     -0.712886
    43      8.331810      7.013359      0.955994
    44      8.079685      6.867159      2.790576
    45     10.263889      7.128831      0.855914
    46      5.918847     -7.351097     -8.864522
    47      4.928791     -8.892488     -8.405987
    48      7.289817     -7.426370     -7.430624
    49     -3.734766      6.968970      0.013638
    50     -2.094752      6.742654     -0.756886
    51     -4.883859      8.086057     -0.765137
    52     11.514309      2.402662      3.265367
    53      9.685158      2.002554      3.646174
    54     12.290017      3.438232      4.597551
    55     -1.272475     11.739829     -4.802319
    56      0.057548     11.839703     -6.117180
    57     -2.712322     10.691390     -5.592522
    58     -8.868485      1.302460     10.357103
    59     -7.197041      0.833571     10.804341
    60     -9.487999     -0.090686      9.187178
    61     -2.460310      0.334531      5.093940
    62     -3.285799      2.123924      4.840919
    63     -3.621201     -0.790026      5.869178
    64      1.935087      1.246314      7.446806
    65      1.839509      0.169102      8.978091
    66      0.367964      0.924089      6.279834
    67    -10.172522     -6.685416      0.760866
    68     -9.499859     -7.363620     -0.829518
    69    -11.548360     -5.463306      0.426086
    70     -5.389847      9.525926     -7.260203
    71     -6.901097      9.155980     -6.147563
    72     -4.812076      7.700162     -7.733799
    73    -10.448865     -4.614757     11.356530
    74     -9.009793     -5.555895     10.936707
    75    -11.942595     -5.586565     10.552911
    76     -5.863975     -7.314801     10.831111
    77     -6.646843     -8.125533     12.354593
    78     -4.232074     -6.539452     11.155849
    79      2.098567      9.941328      3.038426
    80      3.504936     11.208962      3.069202
    81      0.859308     10.856749      1.974960
    82     -4.892567     -1.800695     -5.387664
    83     -4.217780     -3.407503     -4.946339
    84     -5.382086     -0.707007     -3.884430
    85      4.607946      5.203433      9.129428
    86      3.352214      4.089486      8.175896
    87      3.472410      6.313006     10.163550
    88      2.887065     -4.162536     -5.827872
    89      3.814314     -5.004758     -7.183505
    90      3.910046     -4.629672     -4.241562
    91      0.858021     -1.662647    -11.383884
    92      0.868970     -3.577535    -11.862739
    93      2.043272     -1.561169    -10.003086
    94      0.797610      8.357221    -11.547570
    95     -0.019782      9.072301    -13.048107
    96     -0.504478      7.429783    -10.568301
    97    -10.918688     10.088089      7.192228
    98    -11.383427     10.702186      8.953590
    99    -10.270155      8.325642      7.110484
   100    -10.165147     -1.772378      5.923203
   101     -8.886928     -2.766066      5.031651
   102    -10.417342     -0.372439      4.725423
   103     -8.328254     -9.954463     -9.514070
   104     -9.813399    -10.413585    -10.422928
   105     -7.104682    -11.424411     -9.307296
   106      8.043725     -7.722780      9.844279
   107      7.184529     -7.426418     11.497084
   108      6.978349     -8.782326      8.824518
   109     11.101117    -11.640934     11.595308
   110     10.118486    -12.908916     12.632685
   111      9.931852    -10.198725     11.019996
   112     -6.621430     -3.730006      2.456139
   113     -5.462501     -5.002260      3.091977
   114     -7.972112     -4.943541      2.041129
   115      7.140283      1.276219    -11.278577
   116      8.518498      2.377130    -10.761198
   117      6.066042      2.378398    -12.511359
   118      7.410372     -2.272658      7.739029
   119      9.311465     -2.113526      7.912914
   120      7.003699     -2.887462      9.466001
   121     -1.467900      9.207222      7.474322
   122     -0.540199      9.415186      5.900713
   123     -2.929514     10.319619      7.276566
   124      6.698248      1.436693      4.379435
   125      6.847436      0.446002      5.928744
   126      5.208242      2.549225      4.332335
   127     -9.210786      5.341579      6.979545
   128     -7.514791      5.018614      6.183044
   129     -9.107671      4.049313      8.362499
   130     10.667015      3.982925     -9.237166
   131     10.788996      2.877365     -7.716959
   132     12.243917      3.734855    -10.124317
   133      6.245696      4.325279     -2.936343
   134      6.914757      2.864292     -3.922752
   135      7.747505      4.760887     -1.738694
   136     -4.553626      4.931698      4.571412
   137     -4.189916      5.579490      2.720491
   138     -3.725697      6.145941      5.700663
   139     -4.133799      0.693949    -10.507044
   140     -2.349944      0.117256    -10.779368
   141     -4.630738     -0.379737     -9.097739
   142     -0.612232     -6.871345    -11.504639
   143      0.105127     -7.828684    -12.936451
   144     -0.490669     -7.974542    -10.023644
   145     -1.864315     -6.138664     -5.148428
   146     -1.511208     -7.960961     -4.961270
   147     -0.326838     -5.199546     -5.043760
   148    -10.389327     -3.329728     -6.849989
   149    -10.070965     -3.376600     -8.726232
   150     -8.690784     -3.269060     -6.073893
   151      2.736866    -11.508553     -8.288069
   152      2.171564    -12.704971     -9.583311
   153      3.687099    -12.580013     -7.084016
   154      7.436577      7.956061      6.298172
   155      6.447058      6.615723      7.209317
   156      8.940449      8.699127      7.111784
   157      4.773494     -7.006358     -0.772203
   158      4.865357     -5.708541      0.517942
   159      6.276449     -8.136896     -0.878619
   160      1.362175     -7.007086      6.087282
   161      2.330357     -8.634597      6.063647
   162     -0.293000     -7.464237      5.298331
   163      8.700826     -6.585792      4.277794
   164      8.428093     -5.622825      5.860897
   165     10.488095     -7.123309      4.520108
   166     -8.975114      8.914280     -0.567218
   167     -9.353007      9.604924     -2.170528
   168     -9.735064      9.879819      0.789739
   169     -6.253542    -11.189454      6.991331
   170     -7.840525    -12.172057      6.765873
   171     -6.406812     -9.956825      8.363289
   172    -11.383434    -11.337701      2.711770
   173    -10.807712     -9.632573      2.093329
   174    -11.115258    -11.713641      4.590623
   175      0.402306     -9.875191      0.089887
   176     -0.317710    -10.377046     -1.572426
   177      1.905025     -8.806802     -0.099233
 
  MM charges 
  ---------- 
     1     -0.674440
     2      0.337220
     3      0.337220
     4     -0.674440
     5      0.337220
     6      0.337220
     7     -0.674440
     8      0.337220
     9      0.337220
    10     -0.674440
    11      0.337220
    12      0.337220
    13     -0.674440
    14      0.337220
    15      0.337220
    16     -0.674440
    17      0.337220
    18      0.337220
    19     -0.674440
    20      0.337220
    21      0.337220
    22     -0.674440
    23      0.337220
    24      0.337220
    25     -0.674440
    26      0.337220
    27      0.337220
    28     -0.674440
    29      0.337220
    30      0.337220
    31     -0.674440
    32      0.337220
    33      0.337220
    34     -0.674440
    35      0.337220
    36      0.337220
    37     -0.674440
    38      0.337220
    39      0.337220
    40     -0.674440
    41      0.337220
    42      0.337220
    43     -0.674440
    44      0.337220
    45      0.337220
    46     -0.674440
    47      0.337220
    48      0.337220
    49     -0.674440
    50      0.337220
    51      0.337220
    52     -0.674440
    53      0.337220
    54      0.337220
    55     -0.674440
    56      0.337220
    57      0.337220
    58     -0.674440
    59      0.337220
    60      0.337220
    61     -0.674440
    62      0.337220
    63      0.337220
    64     -0.674440
    65      0.337220
    66      0.337220
    67     -0.674440
    68      0.337220
    69      0.337220
    70     -0.674440
    71      0.337220
    72      0.337220
    73     -0.674440
    74      0.337220
    75      0.337220
    76     -0.674440
    77      0.337220
    78      0.337220
    79     -0.674440
    80      0.337220
    81      0.337220
    82     -0.674440
    83      0.337220
    84      0.337220
    85     -0.674440
    86      0.337220
    87      0.337220
    88     -0.674440
    89      0.337220
    90      0.337220
    91     -0.674440
    92      0.337220
    93      0.337220
    94     -0.674440
    95      0.337220
    96      0.337220
    97     -0.674440
    98      0.337220
    99      0.337220
   100     -0.674440
   101      0.337220
   102      0.337220
   103     -0.674440
   104      0.337220
   105      0.337220
   106     -0.674440
   107      0.337220
   108      0.337220
   109     -0.674440
   110      0.337220
   111      0.337220
   112     -0.674440
   113      0.337220
   114      0.337220
   115     -0.674440
   116      0.337220
   117      0.337220
   118     -0.674440
   119      0.337220
   120      0.337220
   121     -0.674440
   122      0.337220
   123      0.337220
   124     -0.674440
   125      0.337220
   126      0.337220
   127     -0.674440
   128      0.337220
   129      0.337220
   130     -0.674440
   131      0.337220
   132      0.337220
   133     -0.674440
   134      0.337220
   135      0.337220
   136     -0.674440
   137      0.337220
   138      0.337220
   139     -0.674440
   140      0.337220
   141      0.337220
   142     -0.674440
   143      0.337220
   144      0.337220
   145     -0.674440
   146      0.337220
   147      0.337220
   148     -0.674440
   149      0.337220
   150      0.337220
   151     -0.674440
   152      0.337220
   153      0.337220
   154     -0.674440
   155      0.337220
   156      0.337220
   157     -0.674440
   158      0.337220
   159      0.337220
   160     -0.674440
   161      0.337220
   162      0.337220
   163     -0.674440
   164      0.337220
   165      0.337220
   166     -0.674440
   167      0.337220
   168      0.337220
   169     -0.674440
   170      0.337220
   171      0.337220
   172     -0.674440
   173      0.337220
   174      0.337220
   175     -0.674440
   176      0.337220
   177      0.337220
 
  MM isotropic polarizabilities in au 
  ----------------------------------- 
     1      5.739350
     2      2.308390
     3      2.308390
     4      5.739350
     5      2.308390
     6      2.308390
     7      5.739350
     8      2.308390
     9      2.308390
    10      5.739350
    11      2.308390
    12      2.308390
    13      5.739350
    14      2.308390
    15      2.308390
    16      5.739350
    17      2.308390
    18      2.308390
    19      5.739350
    20      2.308390
    21      2.308390
    22      5.739350
    23      2.308390
    24      2.308390
    25      5.739350
    26      2.308390
    27      2.308390
    28      5.739350
    29      2.308390
    30      2.308390
    31      5.739350
    32      2.308390
    33      2.308390
    34      5.739350
    35      2.308390
    36      2.308390
    37      5.739350
    38      2.308390
    39      2.308390
    40      5.739350
    41      2.308390
    42      2.308390
    43      5.739350
    44      2.308390
    45      2.308390
    46      5.739350
    47      2.308390
    48      2.308390
    49      5.739350
    50      2.308390
    51      2.308390
    52      5.739350
    53      2.308390
    54      2.308390
    55      5.739350
    56      2.308390
    57      2.308390
    58      5.739350
    59      2.308390
    60      2.308390
    61      5.739350
    62      2.308390
    63      2.308390
    64      5.739350
    65      2.308390
    66      2.308390
    67      5.739350
    68      2.308390
    69      2.308390
    70      5.739350
    71      2.308390
    72      2.308390
    73      5.739350
    74      2.308390
    75      2.308390
    76      5.739350
    77      2.308390
    78      2.308390
    79      5.739350
    80      2.308390
    81      2.308390
    82      5.739350
    83      2.308390
    84      2.308390
    85      5.739350
    86      2.308390
    87      2.308390
    88      5.739350
    89      2.308390
    90      2.308390
    91      5.739350
    92      2.308390
    93      2.308390
    94      5.739350
    95      2.308390
    96      2.308390
    97      5.739350
    98      2.308390
    99      2.308390
   100      5.739350
   101      2.308390
   102      2.308390
   103      5.739350
   104      2.308390
   105      2.308390
   106      5.739350
   107      2.308390
   108      2.308390
   109      5.739350
   110      2.308390
   111      2.308390
   112      5.739350
   113      2.308390
   114      2.308390
   115      5.739350
   116      2.308390
   117      2.308390
   118      5.739350
   119      2.308390
   120      2.308390
   121      5.739350
   122      2.308390
   123      2.308390
   124      5.739350
   125      2.308390
   126      2.308390
   127      5.739350
   128      2.308390
   129      2.308390
   130      5.739350
   131      2.308390
   132      2.308390
   133      5.739350
   134      2.308390
   135      2.308390
   136      5.739350
   137      2.308390
   138      2.308390
   139      5.739350
   140      2.308390
   141      2.308390
   142      5.739350
   143      2.308390
   144      2.308390
   145      5.739350
   146      2.308390
   147      2.308390
   148      5.739350
   149      2.308390
   150      2.308390
   151      5.739350
   152      2.308390
   153      2.308390
   154      5.739350
   155      2.308390
   156      2.308390
   157      5.739350
   158      2.308390
   159      2.308390
   160      5.739350
   161      2.308390
   162      2.308390
   163      5.739350
   164      2.308390
   165      2.308390
   166      5.739350
   167      2.308390
   168      2.308390
   169      5.739350
   170      2.308390
   171      2.308390
   172      5.739350
   173      2.308390
   174      2.308390
   175      5.739350
   176      2.308390
   177      2.308390


     ************************************************************************
     ************************** Output from HERINT **************************
     ************************************************************************



                      Nuclear contribution to dipole moments
                      --------------------------------------

                 au               Debye          C m (/(10**-30)

      x     15.00448023        38.13758224       127.21328111
      y     22.81756991        57.99647406       193.45541394
      z    -13.61826219       -34.61416763      -115.46043507



 Threshold for neglecting two-electron integrals:  1.00D-12
 HERMIT - Number of two-electron integrals written:    30373364 ( 52.7% )
 HERMIT - Megabytes written:                            347.794

  Time used in TWOINT     is       5.72 seconds
  Total CPU  time used in HERMIT:   5.86 seconds
  Total wall time used in HERMIT:   6.42 seconds


                        .----------------------------------.
                        | End of Integral Section (HERMIT) |
                        `----------------------------------'



                   .--------------------------------------------.
                   | Starting in Wave Function Section (SIRIUS) |
                   `--------------------------------------------'

NCCEXCI for singlet:   30
 CCSD_INPUT: core-val requested
 Requested number of core orbs per sym
                     1
 Indices of requested core orbs
                     1
* Read MO coefficients from SIRIUS.RST with label "NEWORB  " and header info: 11Jun18  FOCKDIIS

 **********************************************************************
 *SIRIUS* a direct, restricted step, second order MCSCF program       *
 **********************************************************************

 
     Date and time (Linux)  : Thu Jun 14 12:37:04 2018
     Host name              : n-62-29-11                              

 Title lines from ".mol" input file:
                                                                             
                                                                             

 Print level on unit LUPRI =   2 is   0
 Print level on unit LUW4  =   2 is  11

@    (Integral direct) CC calculation.

@    This is a combination run starting with
@              a restricted, closed shell Hartree-Fock calculation


 Initial molecular orbitals are obtained according to
 ".MOSTART NEWORB" input option

@    QM part is embedded in an environment :

@         Model: QMMM

     Wave function specification
     ============================

     For the specification of the Coupled Cluster: see later.

@    Wave function type        --- CC ---
@    Number of closed shell electrons          50
@    Number of electrons in active shells       0
@    Total charge of the molecule               1

@    Spin multiplicity and 2 M_S                1         0
@    Total number of symmetries                 1 (point group: C1 )
@    Reference state symmetry                   1 (irrep name : A  )

     Orbital specifications
     ======================
@    Abelian symmetry species          All |    1
@                                          |  A  
                                       --- |  ---
@    Occupied SCF orbitals              25 |   25
@    Secondary orbitals                121 |  121
@    Total number of orbitals          146 |  146
@    Number of basis functions         146 |  146

     Optimization information
     ========================
@    Number of configurations                 1
@    Number of orbital rotations           3025
     ------------------------------------------
@    Total number of variables             3026

     Maximum number of Fock   iterations      0
     Maximum number of DIIS   iterations     60
     Maximum number of QC-SCF iterations     60
     Threshold for SCF convergence     1.00D-07


 Changes of defaults for CC:
 ---------------------------


 -Implicit frozen core calculation
 -Excitation energies calculated
 -One-photon absorption strengths will be calculated
 -Oscillator strengths calculated
  
* Read MO coefficients from SIRIUS.RST with label "NEWORB  " and header info: 14Jun18  REORTHO 


 ***********************************************
 ***** DIIS acceleration of SCF iterations *****
 ***********************************************

 C1-DIIS algorithm; max error vectors =    8
 -----------------------------------------------------------------------------

 *** DIIS iteration number    1
 RDSUPM called. NFMAT, ISYMDM(1:NFMAT)                     1
                     1

Calculating AOSUPINT
     (Precalculated AO two-electron integrals are transformed to P-supermatrix elements.
      Threshold for discarding integrals :  1.00D-12 )
  CPU  time used in FORMSUP    is   3.91 seconds
  WALL time used in FORMSUP    is   7.09 seconds

 ITDIIS, energy, error norm, change in energy, scr.thr., difden:
@ DIIS iter.   1    -361.116817775        5.56462D-08   -3.61D+02  -20    F

@ *** DIIS converged in   1 iterations !
@     Converged SCF energy, gradient:   -361.116817775421    5.56D-08
    - total time used in SIRFCK :              0.00 seconds


 *** SCF orbital energy analysis ***
    (incl. solvent contribution)

 Number of electrons :   50
 Orbital occupations :   25

 Sym       Hartree-Fock orbital energies

1 A     -20.66087424   -20.64987290   -20.63394488   -20.63249980   -15.69859812
         -1.40993022    -1.40437479    -1.40105585    -1.38811035    -1.32549597
         -0.80742666    -0.79964948    -0.77389042    -0.76425951    -0.75541507
         -0.74911953    -0.73776528    -0.66625899    -0.64748529    -0.63935809
         -0.63709787    -0.59136672    -0.58134411    -0.57109477    -0.56660335
          0.00539230     0.04331183     0.04596703     0.05769248     0.14852327
          0.15199219     0.17824732     0.19261213     0.20697327     0.24293536
          0.25247502     0.26796148     0.27139697     0.28310488     0.29268265
          0.30175348     0.31265520     0.32881001     0.35414052     0.39062669
          0.54479425     0.55831559     0.58509243     0.82118462     0.89333898
          0.89925330     0.90296788     0.92347948     0.94597586     0.96688247
          0.98150915     1.02228996     1.05026392     1.06221841     1.08326522
          1.09828101     1.11128414     1.11927690     1.13651377     1.15631321
          1.16440874     1.21611744     1.22001534     1.23858390     1.25067998
          1.27292186     1.29300431     1.31395479     1.36457626     1.40580804
          1.53792263     1.54154949     1.59751572     1.61434911     1.68233961
          1.69441143     1.69584947     1.72116712     1.73035581     1.73542878
          1.74490576     1.76381078     1.77275702     1.78430965     1.79286536
          1.79660275     1.84237258     1.86872792     1.91091411     2.10057975
          2.18050013     2.24368169     2.32388105     2.35065070     2.40682056
          2.43105384     2.44531798     2.45292981     2.46337772     2.48074571
          2.50651672     2.53189856     2.58945641     2.61930466     2.63508290
          2.66415336     2.71774685     2.74669386     2.76244168     2.78315723
          2.83012609     2.84371772     2.85196361     2.86683092     2.87287286
          2.89249414     2.90505453     2.91403424     2.96767878     2.98569374
          3.01520035     3.19457887     3.21884789     3.23873755     3.25702605
          3.28393692     3.36342632     3.40863720     3.43926289     3.59829236
          3.62523665     3.65289776     3.72742797     3.78769789     3.81302306
          3.83848660     3.87215433     5.09724188     5.19667825     5.24812641
         36.99766520

    E(LUMO) :     0.00539230 au (symmetry 1)
  - E(HOMO) :    -0.56660335 au (symmetry 1)
  ------------------------------------------
    gap     :     0.57199566 au

 Deviation from canonical Hartree-Fock orbitals :
 Largest off-diagonal Fock matrix element is  2.39D-09

 --- Writing SIRIFC interface file

 CPU and wall time for SCF :      14.502      18.165


                       .-----------------------------------.
                       | --- Final results from SIRIUS --- |
                       `-----------------------------------'


@    Spin multiplicity:           1
@    Spatial symmetry:            1 ( irrep  A   in C1  )
@    Total charge of molecule:    1

     QM/MM "QMMM" calculation converged :

     Charge contribution:         -0.153773868376
     Dipole contribution:          0.000000000000
     Quadrupole contribution:      0.000000000000
     Electronic Pol. energy:       0.518825643367
     Nuclear pol. energy:         -0.551926301524
     Multipole Pol. energy:       -0.220818502624
     Total QM/MM energy:          -0.407693029157

@    Final HF energy:            -361.116817775421                 
@    Nuclear repulsion:           197.867445360576
@    Electronic energy:          -558.576570106840

@    Final gradient norm:           0.000000055646

 
     Date and time (Linux)  : Thu Jun 14 12:37:22 2018
     Host name              : n-62-29-11                              

File label for MO orbitals:  14Jun18   FOCKDIIS

 Molecular orbitals for symmetry species 1  (A  )
 ------------------------------------------------

    Orbital         1        2        3        4        5        6        7
   1 N   :1s     0.0000   0.0000   0.0000  -0.0000  -0.5576   0.0047  -0.0130
   2 N   :1s    -0.0000  -0.0000  -0.0000   0.0000  -0.4682   0.0078  -0.0214
   3 N   :1s     0.0001   0.0004   0.0003  -0.0005  -0.0056  -0.0201   0.0558
   4 N   :1s    -0.0011  -0.0025  -0.0018   0.0029   0.0016  -0.0168   0.0430
   5 N   :1s    -0.0000  -0.0022  -0.0008   0.0024   0.0018   0.0140   0.0054
   6 N   :2px    0.0000  -0.0001   0.0001   0.0000  -0.0001  -0.0008   0.0005
   7 N   :2py    0.0000  -0.0001  -0.0000  -0.0000   0.0001   0.0008   0.0006
   8 N   :2pz   -0.0000  -0.0000  -0.0000  -0.0001  -0.0001  -0.0005  -0.0031
   9 N   :2px   -0.0000   0.0003  -0.0003  -0.0001   0.0000  -0.0009   0.0008
  10 N   :2py   -0.0001   0.0004   0.0000   0.0000  -0.0001   0.0007   0.0008
  11 N   :2pz    0.0001   0.0001   0.0001   0.0006   0.0001  -0.0005  -0.0052
  12 N   :2px   -0.0003  -0.0006   0.0009   0.0001   0.0000  -0.0031   0.0006
  13 N   :2py    0.0005  -0.0009  -0.0002   0.0001   0.0001   0.0032   0.0016
  14 N   :2pz   -0.0003  -0.0004  -0.0000  -0.0013  -0.0001  -0.0012  -0.0075
  15 N   :2px    0.0009  -0.0008  -0.0003   0.0004   0.0000   0.0033   0.0007
  16 N   :2py    0.0006  -0.0004   0.0001  -0.0009   0.0000  -0.0027  -0.0070
  17 N   :2pz   -0.0003  -0.0001  -0.0005  -0.0002   0.0000   0.0013   0.0071
  18 N   :3d2-   0.0000   0.0001  -0.0000   0.0000  -0.0000   0.0002   0.0002
  19 N   :3d1-   0.0000   0.0001   0.0000  -0.0001   0.0000   0.0004  -0.0002
  20 N   :3d0   -0.0000  -0.0000   0.0000  -0.0001  -0.0000  -0.0000   0.0013
  21 N   :3d1+  -0.0000   0.0000  -0.0001   0.0001   0.0000  -0.0002  -0.0001
  22 N   :3d2+  -0.0000  -0.0000   0.0000   0.0000  -0.0000   0.0002   0.0001
  23 H   :1s    -0.0000  -0.0000  -0.0001   0.0000  -0.0002  -0.0029   0.0084
  24 H   :1s     0.0001   0.0007   0.0005  -0.0006  -0.0001  -0.0031   0.0082
  25 H   :1s     0.0004  -0.0006   0.0023   0.0003  -0.0007  -0.0018  -0.0026
  26 H   :1s     0.0008  -0.0001  -0.0010  -0.0001  -0.0000   0.0108  -0.0020
  27 H   :2px    0.0000   0.0002  -0.0001  -0.0002  -0.0000  -0.0009   0.0026
  28 H   :2py   -0.0000   0.0000   0.0000   0.0000  -0.0000  -0.0000  -0.0005
  29 H   :2pz    0.0000  -0.0000  -0.0002   0.0001   0.0000   0.0003  -0.0004
  30 H   :1s    -0.0000  -0.0000  -0.0000   0.0002  -0.0002  -0.0033   0.0168
  31 H   :1s     0.0003   0.0005   0.0003  -0.0009  -0.0001  -0.0020   0.0164
  32 H   :1s    -0.0008   0.0000  -0.0003  -0.0044  -0.0008  -0.0024  -0.0131
  33 H   :1s     0.0003  -0.0000   0.0002   0.0010  -0.0000   0.0040   0.0284
  34 H   :2px    0.0000   0.0000  -0.0001   0.0000  -0.0000   0.0003  -0.0003
  35 H   :2py   -0.0000   0.0000   0.0000  -0.0002   0.0000  -0.0001  -0.0000
  36 H   :2pz    0.0001   0.0002   0.0001   0.0005  -0.0000  -0.0006   0.0006
  37 H   :1s    -0.0000  -0.0000  -0.0000  -0.0000  -0.0003  -0.0060   0.0082
  38 H   :1s     0.0001   0.0006   0.0003  -0.0004  -0.0001  -0.0051   0.0092
  39 H   :1s     0.0023  -0.0002   0.0000  -0.0009  -0.0006   0.0019  -0.0085
  40 H   :1s    -0.0005   0.0005   0.0004  -0.0009  -0.0000  -0.0208  -0.0154
  41 H   :2px    0.0001  -0.0000  -0.0001   0.0000   0.0000  -0.0001  -0.0009
  42 H   :2py    0.0001   0.0002   0.0001  -0.0001  -0.0000  -0.0003   0.0022
  43 H   :2pz   -0.0000  -0.0001  -0.0000   0.0002   0.0000   0.0001  -0.0010
  44 H   :1s    -0.0000  -0.0001  -0.0000   0.0000  -0.0002  -0.0035   0.0094
  45 H   :1s     0.0003   0.0004   0.0004  -0.0007  -0.0002  -0.0022   0.0091
  46 H   :1s    -0.0010   0.0043  -0.0001   0.0007  -0.0009  -0.0033   0.0000
  47 H   :1s    -0.0009  -0.0001   0.0004  -0.0001  -0.0001  -0.0062   0.0003
  48 H   :2px   -0.0000   0.0001  -0.0001   0.0001   0.0000   0.0005  -0.0015
  49 H   :2py   -0.0001   0.0003  -0.0001   0.0001   0.0000   0.0007  -0.0021
  50 H   :2pz    0.0000   0.0001  -0.0000   0.0001   0.0000   0.0002  -0.0008
  51 O   :1s    -0.0000  -0.0000   0.9957   0.0004  -0.0000   0.0018  -0.0105
  52 O   :1s    -0.0000  -0.0000   0.0219  -0.0000  -0.0000  -0.0041   0.0232
  53 O   :1s     0.0000   0.0001  -0.0065  -0.0000   0.0001  -0.0035   0.0233
  54 O   :2px   -0.0000  -0.0000  -0.0014  -0.0000  -0.0000   0.0004  -0.0023
  55 O   :2py    0.0000  -0.0000  -0.0000  -0.0000  -0.0000   0.0000  -0.0002
  56 O   :2pz    0.0000  -0.0000   0.0007   0.0000  -0.0000  -0.0003   0.0013
  57 O   :2px    0.0000   0.0000   0.0003   0.0001   0.0001  -0.0004  -0.0005
  58 O   :2py   -0.0001   0.0000  -0.0000   0.0001  -0.0000   0.0002   0.0003
  59 O   :2pz   -0.0000   0.0000  -0.0006  -0.0001   0.0000   0.0003   0.0003
  60 O   :3d2-   0.0000  -0.0000  -0.0000  -0.0000   0.0000  -0.0000  -0.0001
  61 O   :3d1-  -0.0000   0.0000  -0.0002   0.0000  -0.0000  -0.0000   0.0000
  62 O   :3d0    0.0000   0.0000  -0.0001  -0.0000  -0.0000  -0.0000  -0.0001
  63 O   :3d1+  -0.0000  -0.0000  -0.0001   0.0000   0.0000   0.0000  -0.0001
  64 O   :3d2+  -0.0000  -0.0000  -0.0001   0.0000   0.0000  -0.0000   0.0001
  65 O   :1s    -0.0001   0.9957   0.0000  -0.0000  -0.0000   0.0091  -0.0420
  66 O   :1s    -0.0000   0.0220  -0.0000   0.0000  -0.0000  -0.0202   0.0931
  67 O   :1s     0.0000  -0.0067   0.0001  -0.0000   0.0001  -0.0200   0.0933
  68 O   :2px    0.0000   0.0007   0.0000  -0.0000   0.0000  -0.0012   0.0058
  69 O   :2py   -0.0000   0.0010   0.0000  -0.0000   0.0000  -0.0016   0.0088
  70 O   :2pz   -0.0000  -0.0008  -0.0000   0.0000   0.0000   0.0014  -0.0066
  71 O   :2px   -0.0001  -0.0000  -0.0000   0.0000  -0.0000  -0.0012   0.0030
  72 O   :2py   -0.0000   0.0001  -0.0001   0.0001  -0.0001  -0.0009   0.0030
  73 O   :2pz    0.0001   0.0007   0.0000  -0.0000  -0.0000   0.0013  -0.0038
  74 O   :3d2-   0.0000  -0.0002  -0.0000   0.0000   0.0000  -0.0000   0.0002
  75 O   :3d1-  -0.0000   0.0001  -0.0000   0.0000   0.0000  -0.0000   0.0001
  76 O   :3d0   -0.0000  -0.0001   0.0000   0.0000  -0.0000   0.0000  -0.0002
  77 O   :3d1+   0.0000  -0.0002  -0.0000   0.0000   0.0000   0.0002  -0.0006
  78 O   :3d2+  -0.0000  -0.0001   0.0000  -0.0000   0.0000   0.0001  -0.0005
  79 O   :1s    -0.0000  -0.0000   0.0004  -0.9957  -0.0000   0.0106  -0.2070
  80 O   :1s    -0.0000  -0.0000   0.0000  -0.0223  -0.0000  -0.0234   0.4569
  81 O   :1s     0.0001   0.0000  -0.0000   0.0071   0.0001  -0.0227   0.4519
  82 O   :2px   -0.0000   0.0000  -0.0000  -0.0004  -0.0000  -0.0008   0.0151
  83 O   :2py    0.0000   0.0000   0.0000   0.0014   0.0000   0.0028  -0.0539
  84 O   :2pz   -0.0000  -0.0000   0.0000   0.0010  -0.0000   0.0021  -0.0466
  85 O   :2px    0.0000  -0.0001   0.0001   0.0003   0.0000  -0.0002   0.0074
  86 O   :2py   -0.0000  -0.0000  -0.0000  -0.0009  -0.0000   0.0011  -0.0262
  87 O   :2pz    0.0000   0.0000  -0.0001   0.0005   0.0001   0.0005  -0.0129
  88 O   :3d2-   0.0000   0.0000  -0.0000  -0.0002   0.0000  -0.0000   0.0009
  89 O   :3d1-   0.0000   0.0000   0.0000  -0.0003  -0.0000  -0.0000   0.0014
  90 O   :3d0   -0.0000  -0.0000  -0.0000   0.0003   0.0000  -0.0001   0.0019
  91 O   :3d1+  -0.0000   0.0000  -0.0000   0.0001   0.0000   0.0000  -0.0012
  92 O   :3d2+  -0.0000  -0.0000   0.0000  -0.0001   0.0000   0.0000  -0.0004
  93 O   :1s     0.9958   0.0001   0.0000  -0.0000  -0.0000   0.2138   0.0136
  94 O   :1s     0.0218  -0.0000  -0.0000   0.0000  -0.0000  -0.4741  -0.0301
  95 O   :1s    -0.0065   0.0001  -0.0000  -0.0000   0.0000  -0.4742  -0.0309
  96 O   :2px   -0.0001  -0.0000   0.0000   0.0000   0.0000   0.0014  -0.0001
  97 O   :2py    0.0003   0.0000  -0.0000   0.0000   0.0000  -0.0102  -0.0004
  98 O   :2pz    0.0016   0.0000   0.0000  -0.0000  -0.0000  -0.0679  -0.0045
  99 O   :2px    0.0003  -0.0000  -0.0001  -0.0000  -0.0000   0.0010  -0.0001
 100 O   :2py   -0.0003  -0.0000   0.0000  -0.0000   0.0000  -0.0021  -0.0001
 101 O   :2pz   -0.0009  -0.0000  -0.0000   0.0001  -0.0000  -0.0277  -0.0020
 102 O   :3d2-   0.0002   0.0000  -0.0000  -0.0000  -0.0000  -0.0012  -0.0001
 103 O   :3d1-  -0.0000  -0.0000  -0.0000  -0.0000  -0.0000  -0.0014  -0.0001
 104 O   :3d0    0.0000   0.0000  -0.0000  -0.0000  -0.0000  -0.0022  -0.0002
 105 O   :3d1+  -0.0000  -0.0000  -0.0000  -0.0000   0.0000   0.0010   0.0001
 106 O   :3d2+  -0.0002   0.0000   0.0000   0.0000   0.0000   0.0029   0.0002
 107 H   :1s    -0.0000   0.0000  -0.0002   0.0001  -0.0000  -0.0011   0.0065
 108 H   :1s     0.0000  -0.0000   0.0011  -0.0001   0.0000  -0.0008  -0.0000
 109 H   :2px   -0.0000   0.0000  -0.0005  -0.0000  -0.0000  -0.0001   0.0005
 110 H   :2py   -0.0000  -0.0000  -0.0006   0.0000  -0.0000  -0.0002   0.0009
 111 H   :2pz    0.0000  -0.0000   0.0006  -0.0000  -0.0000   0.0001  -0.0007
 112 H   :1s     0.0000  -0.0000  -0.0002  -0.0000  -0.0000  -0.0009   0.0057
 113 H   :1s    -0.0001   0.0000   0.0011   0.0000   0.0000  -0.0014  -0.0006
 114 H   :2px    0.0000  -0.0000  -0.0006  -0.0000  -0.0000  -0.0002   0.0006
 115 H   :2py    0.0000  -0.0000   0.0006  -0.0000  -0.0000   0.0002  -0.0009
 116 H   :2pz    0.0000  -0.0000   0.0000   0.0000  -0.0000  -0.0000   0.0001
 117 H   :1s    -0.0000  -0.0004   0.0000  -0.0000   0.0000  -0.0053   0.0243
 118 H   :1s     0.0001   0.0010   0.0000  -0.0000   0.0000   0.0006   0.0010
 119 H   :2px    0.0000  -0.0001   0.0000  -0.0000   0.0000  -0.0001   0.0007
 120 H   :2py    0.0000   0.0009  -0.0000   0.0000  -0.0000   0.0010  -0.0045
 121 H   :2pz   -0.0000   0.0001  -0.0000   0.0000   0.0000   0.0002  -0.0010
 122 H   :1s     0.0000  -0.0000   0.0000   0.0000  -0.0000  -0.0053   0.0244
 123 H   :1s     0.0001   0.0009  -0.0000  -0.0001   0.0000   0.0017  -0.0004
 124 H   :2px   -0.0000   0.0006   0.0000   0.0000  -0.0000   0.0006  -0.0033
 125 H   :2py   -0.0000  -0.0001   0.0000   0.0000   0.0000  -0.0001   0.0006
 126 H   :2pz    0.0000  -0.0006  -0.0000   0.0000   0.0000  -0.0006   0.0033
 127 H   :1s     0.0000   0.0000  -0.0000   0.0003  -0.0000  -0.0064   0.1232
 128 H   :1s    -0.0000   0.0001  -0.0001  -0.0010   0.0000   0.0001  -0.0019
 129 H   :2px    0.0000  -0.0000   0.0000  -0.0009  -0.0000   0.0011  -0.0220
 130 H   :2py    0.0000   0.0000  -0.0000   0.0001   0.0000   0.0000   0.0001
 131 H   :2pz   -0.0000   0.0000  -0.0000   0.0005  -0.0000  -0.0006   0.0112
 132 H   :1s    -0.0000  -0.0000   0.0000   0.0003  -0.0000  -0.0068   0.1348
 133 H   :1s     0.0001  -0.0000  -0.0000  -0.0010   0.0000  -0.0010   0.0031
 134 H   :2px   -0.0000  -0.0000  -0.0000   0.0006  -0.0000  -0.0008   0.0152
 135 H   :2py   -0.0000  -0.0000   0.0000   0.0009   0.0000  -0.0010   0.0182
 136 H   :2pz    0.0000  -0.0000   0.0000   0.0003  -0.0000  -0.0004   0.0079
 137 H   :1s    -0.0001  -0.0000  -0.0000  -0.0001  -0.0000  -0.1231  -0.0081
 138 H   :1s     0.0012  -0.0000  -0.0000   0.0001   0.0000  -0.0016   0.0013
 139 H   :2px   -0.0003  -0.0000   0.0000  -0.0000   0.0000  -0.0084  -0.0005
 140 H   :2py   -0.0005  -0.0000  -0.0000  -0.0000  -0.0000  -0.0165  -0.0010
 141 H   :2pz    0.0006   0.0000  -0.0000  -0.0000   0.0000   0.0158   0.0010
 142 H   :1s    -0.0001   0.0000  -0.0000   0.0000  -0.0000  -0.1279  -0.0081
 143 H   :1s     0.0013  -0.0001   0.0001  -0.0001   0.0000  -0.0063  -0.0001
 144 H   :2px    0.0002   0.0000  -0.0000   0.0000   0.0000   0.0071   0.0004
 145 H   :2py    0.0007   0.0000  -0.0000   0.0000  -0.0000   0.0201   0.0012
 146 H   :2pz    0.0005   0.0000  -0.0000   0.0000  -0.0000   0.0110   0.0007

    Orbital         8        9       10       11       12       13       14
   1 N   :1s     0.0060   0.0076   0.1091  -0.0004   0.0019   0.0001  -0.0008
   2 N   :1s     0.0099   0.0124   0.1805  -0.0006   0.0032   0.0001  -0.0014
   3 N   :1s    -0.0255  -0.0324  -0.4841   0.0002  -0.0095  -0.0012   0.0045
   4 N   :1s    -0.0231  -0.0248  -0.3175  -0.0080  -0.0093   0.0048  -0.0007
   5 N   :1s    -0.0050   0.0070  -0.1888  -0.0348   0.0093   0.0176  -0.0144
   6 N   :2px   -0.0016   0.0022  -0.0014   0.0226   0.1860   0.0868   0.0219
   7 N   :2py   -0.0020  -0.0001   0.0016  -0.1407   0.0554  -0.1239  -0.0060
   8 N   :2pz   -0.0016  -0.0003  -0.0020   0.1529   0.0268  -0.1204   0.0083
   9 N   :2px   -0.0016   0.0023  -0.0021   0.0356   0.2978   0.1391   0.0351
  10 N   :2py   -0.0019  -0.0001   0.0021  -0.2235   0.0889  -0.1984  -0.0099
  11 N   :2pz   -0.0021  -0.0005  -0.0024   0.2457   0.0433  -0.1948   0.0136
  12 N   :2px   -0.0035   0.0057  -0.0030   0.0209   0.2061   0.0976   0.0231
  13 N   :2py   -0.0052  -0.0004   0.0052  -0.1430   0.0615  -0.1391  -0.0055
  14 N   :2pz   -0.0037   0.0002   0.0012   0.1561   0.0283  -0.1374   0.0086
  15 N   :2px    0.0003  -0.0076  -0.0016  -0.0048   0.0171  -0.0001  -0.0034
  16 N   :2py    0.0033   0.0032  -0.0044  -0.0021   0.0055  -0.0066   0.0172
  17 N   :2pz    0.0047   0.0008   0.0033   0.0029   0.0021  -0.0031  -0.0052
  18 N   :3d2-  -0.0004   0.0001   0.0000  -0.0100   0.0122  -0.0061   0.0006
  19 N   :3d1-  -0.0001   0.0001   0.0018  -0.0125   0.0032  -0.0079  -0.0006
  20 N   :3d0    0.0006   0.0004   0.0005  -0.0128  -0.0000   0.0165  -0.0003
  21 N   :3d1+  -0.0002  -0.0001  -0.0004   0.0055   0.0094   0.0011   0.0011
  22 N   :3d2+   0.0001  -0.0005  -0.0001  -0.0086  -0.0135  -0.0105  -0.0024
  23 H   :1s    -0.0038  -0.0101  -0.0743  -0.0091  -0.1279  -0.1010  -0.0154
  24 H   :1s    -0.0022  -0.0102  -0.0900  -0.0129  -0.1656  -0.1351  -0.0199
  25 H   :1s    -0.0011   0.0040   0.0634   0.0046  -0.0009  -0.0143  -0.0029
  26 H   :1s     0.0045  -0.0302   0.0055  -0.0043  -0.0093  -0.0137  -0.0051
  27 H   :2px   -0.0007  -0.0014  -0.0244  -0.0010  -0.0199  -0.0189  -0.0021
  28 H   :2py    0.0004   0.0003   0.0039  -0.0076   0.0087  -0.0021   0.0003
  29 H   :2pz    0.0003   0.0003   0.0044   0.0096   0.0073  -0.0026   0.0014
  30 H   :1s    -0.0017  -0.0041  -0.0703  -0.1116  -0.0092   0.1031  -0.0044
  31 H   :1s    -0.0011  -0.0046  -0.0851  -0.1519  -0.0144   0.1394  -0.0048
  32 H   :1s     0.0019   0.0022   0.0684  -0.0059  -0.0039   0.0143   0.0008
  33 H   :1s     0.0124   0.0009   0.0120  -0.0052   0.0005   0.0080  -0.0018
  34 H   :2px    0.0002   0.0002   0.0020   0.0034   0.0106   0.0027   0.0017
  35 H   :2py    0.0002   0.0001   0.0010  -0.0066   0.0037  -0.0083  -0.0003
  36 H   :2pz   -0.0013  -0.0017  -0.0248  -0.0185  -0.0007   0.0163  -0.0001
  37 H   :1s    -0.0041  -0.0052  -0.0822   0.1531   0.0163   0.0629   0.0123
  38 H   :1s    -0.0025  -0.0049  -0.0945   0.2083   0.0202   0.0841   0.0159
  39 H   :1s     0.0008   0.0009   0.0619   0.0269  -0.0022   0.0031   0.0219
  40 H   :1s     0.0045   0.0100   0.0012   0.0187   0.0015   0.0050   0.0295
  41 H   :2px    0.0005   0.0003   0.0083  -0.0108   0.0103   0.0009  -0.0001
  42 H   :2py   -0.0006  -0.0012  -0.0207   0.0221   0.0067   0.0035   0.0015
  43 H   :2pz    0.0006   0.0006   0.0115  -0.0079   0.0003  -0.0144  -0.0012
  44 H   :1s    -0.0106  -0.0044  -0.0735  -0.0354   0.1222  -0.0683   0.0085
  45 H   :1s    -0.0105  -0.0039  -0.0925  -0.0496   0.1631  -0.0939   0.0140
  46 H   :1s     0.0136  -0.0033   0.0662   0.0115   0.0064  -0.0178  -0.0090
  47 H   :1s    -0.0278   0.0096   0.0101  -0.0012   0.0030  -0.0031  -0.0179
  48 H   :2px    0.0003   0.0006   0.0144   0.0060  -0.0049   0.0129  -0.0004
  49 H   :2py    0.0008   0.0011   0.0195  -0.0013  -0.0202   0.0056  -0.0017
  50 H   :2pz    0.0004   0.0004   0.0078   0.0127  -0.0081  -0.0021  -0.0006
  51 O   :1s     0.0028   0.2137  -0.0181   0.0006   0.0005   0.0008   0.0004
  52 O   :1s    -0.0064  -0.4721   0.0403  -0.0014  -0.0016  -0.0022  -0.0009
  53 O   :1s    -0.0057  -0.4762   0.0397  -0.0042  -0.0090  -0.0068  -0.0025
  54 O   :2px    0.0006   0.0622  -0.0116  -0.0185  -0.0883  -0.0625  -0.0150
  55 O   :2py    0.0000   0.0025   0.0002  -0.0054   0.0319   0.0256   0.0084
  56 O   :2pz   -0.0005  -0.0288   0.0018   0.0067  -0.0132  -0.0206  -0.0029
  57 O   :2px    0.0004   0.0246  -0.0061  -0.0126  -0.0576  -0.0415  -0.0107
  58 O   :2py    0.0001   0.0042  -0.0003  -0.0031   0.0195   0.0162   0.0047
  59 O   :2pz    0.0001  -0.0100  -0.0005   0.0050  -0.0094  -0.0153  -0.0014
  60 O   :3d2-   0.0000   0.0011  -0.0001   0.0001  -0.0016  -0.0018  -0.0004
  61 O   :3d1-  -0.0000   0.0011  -0.0001  -0.0003   0.0003   0.0005   0.0001
  62 O   :3d0    0.0000   0.0013  -0.0003  -0.0001  -0.0019  -0.0017  -0.0004
  63 O   :3d1+  -0.0000   0.0017  -0.0001  -0.0004  -0.0011  -0.0006  -0.0002
  64 O   :3d2+  -0.0000  -0.0011   0.0002   0.0001   0.0016   0.0013   0.0003
  65 O   :1s     0.2094  -0.0065  -0.0189  -0.0007  -0.0000   0.0019  -0.0001
  66 O   :1s    -0.4638   0.0142   0.0425   0.0019  -0.0003  -0.0038  -0.0000
  67 O   :1s    -0.4662   0.0150   0.0417  -0.0004   0.0088  -0.0131   0.0006
  68 O   :2px   -0.0310   0.0012   0.0069   0.0037   0.0075  -0.0326  -0.0004
  69 O   :2py   -0.0466   0.0018   0.0103   0.0370  -0.1624   0.1621  -0.0062
  70 O   :2pz    0.0322  -0.0009  -0.0012   0.0231  -0.0717   0.0818  -0.0065
  71 O   :2px   -0.0139   0.0006   0.0042   0.0045   0.0008  -0.0169  -0.0020
  72 O   :2py   -0.0136   0.0004   0.0059   0.0236  -0.1040   0.1041  -0.0046
  73 O   :2pz    0.0186  -0.0010  -0.0007   0.0151  -0.0444   0.0505  -0.0042
  74 O   :3d2-  -0.0009   0.0000   0.0002   0.0002  -0.0009   0.0004   0.0000
  75 O   :3d1-  -0.0006   0.0000  -0.0000  -0.0004   0.0014  -0.0007   0.0000
  76 O   :3d0    0.0010  -0.0000  -0.0003  -0.0014   0.0048  -0.0050   0.0003
  77 O   :3d1+   0.0028  -0.0002  -0.0004   0.0002  -0.0022   0.0034  -0.0001
  78 O   :3d2+   0.0024  -0.0001  -0.0003  -0.0015   0.0062  -0.0076   0.0002
  79 O   :1s    -0.0445  -0.0119  -0.0247  -0.0006  -0.0006   0.0004  -0.0000
  80 O   :1s     0.0984   0.0264   0.0557   0.0008   0.0013  -0.0009   0.0001
  81 O   :1s     0.0974   0.0258   0.0534  -0.0053   0.0022   0.0051  -0.0006
  82 O   :2px    0.0032   0.0010   0.0021   0.0281   0.0344  -0.0596   0.0174
  83 O   :2py   -0.0116  -0.0031  -0.0060   0.0001   0.0150  -0.0303   0.0072
  84 O   :2pz   -0.0107  -0.0034  -0.0157  -0.1165  -0.0132   0.1154  -0.0086
  85 O   :2px    0.0013   0.0013   0.0006   0.0156   0.0208  -0.0342   0.0110
  86 O   :2py   -0.0057  -0.0013  -0.0025   0.0023   0.0091  -0.0213   0.0040
  87 O   :2pz   -0.0031  -0.0019  -0.0089  -0.0744  -0.0088   0.0768  -0.0065
  88 O   :3d2-   0.0002  -0.0000   0.0002  -0.0006  -0.0013   0.0018  -0.0007
  89 O   :3d1-   0.0004   0.0001   0.0008   0.0040   0.0001  -0.0036   0.0000
  90 O   :3d0    0.0003   0.0001  -0.0002   0.0006   0.0004  -0.0012   0.0002
  91 O   :3d1+  -0.0002  -0.0001  -0.0003  -0.0025  -0.0011   0.0042  -0.0008
  92 O   :3d2+  -0.0001   0.0000   0.0001   0.0011   0.0013  -0.0029   0.0007
  93 O   :1s    -0.0074  -0.0018  -0.0086   0.0018   0.0011  -0.0007  -0.0034
  94 O   :1s     0.0164   0.0038   0.0193  -0.0044  -0.0023   0.0013   0.0062
  95 O   :1s     0.0168   0.0047   0.0187  -0.0015  -0.0041   0.0063   0.0211
  96 O   :2px    0.0000   0.0002   0.0025  -0.0257   0.0044  -0.0117  -0.1878
  97 O   :2py    0.0002  -0.0000  -0.0015   0.0378   0.0468   0.0156  -0.4665
  98 O   :2pz    0.0025   0.0006   0.0050  -0.0335  -0.0165  -0.0255   0.0410
  99 O   :2px    0.0002  -0.0001   0.0027  -0.0198   0.0008  -0.0086  -0.1145
 100 O   :2py    0.0001   0.0004  -0.0008   0.0248   0.0294   0.0103  -0.2963
 101 O   :2pz    0.0007   0.0007   0.0023  -0.0217  -0.0106  -0.0169   0.0251
 102 O   :3d2-   0.0001   0.0000   0.0002  -0.0010  -0.0004  -0.0004  -0.0014
 103 O   :3d1-   0.0001   0.0000   0.0002   0.0014   0.0022   0.0004  -0.0279
 104 O   :3d0    0.0001   0.0000   0.0002  -0.0017  -0.0011  -0.0010   0.0058
 105 O   :3d1+  -0.0000   0.0000  -0.0001   0.0001   0.0009   0.0002  -0.0120
 106 O   :3d2+  -0.0001  -0.0001  -0.0002   0.0004  -0.0003   0.0002   0.0040
 107 H   :1s    -0.0016  -0.1311   0.0126   0.0080   0.0052  -0.0006  -0.0008
 108 H   :1s    -0.0010  -0.0017  -0.0005   0.0032   0.0027  -0.0004  -0.0007
 109 H   :2px   -0.0002  -0.0103   0.0007   0.0001  -0.0019  -0.0016  -0.0004
 110 H   :2py   -0.0003  -0.0185   0.0018   0.0007   0.0017   0.0008   0.0001
 111 H   :2pz    0.0002   0.0135  -0.0013  -0.0006  -0.0011  -0.0007  -0.0000
 112 H   :1s    -0.0015  -0.1189   0.0121   0.0029   0.0394   0.0294   0.0079
 113 H   :1s    -0.0002  -0.0011   0.0001   0.0012   0.0148   0.0120   0.0032
 114 H   :2px   -0.0002  -0.0148   0.0014  -0.0000   0.0024   0.0017   0.0005
 115 H   :2py    0.0002   0.0187  -0.0018  -0.0005  -0.0042  -0.0029  -0.0007
 116 H   :2pz   -0.0000  -0.0023   0.0003   0.0001   0.0001  -0.0001  -0.0000
 117 H   :1s    -0.1228   0.0040   0.0135   0.0210  -0.0895   0.0927  -0.0040
 118 H   :1s    -0.0046   0.0000  -0.0001   0.0088  -0.0369   0.0412   0.0004
 119 H   :2px   -0.0038   0.0001   0.0004   0.0005  -0.0015   0.0010  -0.0000
 120 H   :2py    0.0227  -0.0007  -0.0023  -0.0022   0.0093  -0.0093   0.0003
 121 H   :2pz    0.0049  -0.0001  -0.0005  -0.0000   0.0007  -0.0004  -0.0001
 122 H   :1s    -0.1218   0.0038   0.0119  -0.0092   0.0402  -0.0543   0.0027
 123 H   :1s    -0.0015  -0.0011  -0.0018  -0.0056   0.0187  -0.0259   0.0034
 124 H   :2px    0.0163  -0.0004  -0.0013   0.0011  -0.0038   0.0044  -0.0004
 125 H   :2py   -0.0032   0.0001   0.0006   0.0010  -0.0040   0.0035  -0.0002
 126 H   :2pz   -0.0165   0.0005   0.0017  -0.0002   0.0016  -0.0030   0.0002
 127 H   :1s     0.0266   0.0071   0.0176   0.0425   0.0187  -0.0563   0.0098
 128 H   :1s     0.0005  -0.0004  -0.0018   0.0150   0.0059  -0.0218   0.0042
 129 H   :2px   -0.0048  -0.0012  -0.0029  -0.0056  -0.0017   0.0063  -0.0009
 130 H   :2py    0.0000  -0.0000   0.0001   0.0003   0.0005  -0.0011   0.0003
 131 H   :2pz    0.0024   0.0006   0.0012   0.0003   0.0011  -0.0011   0.0005
 132 H   :1s     0.0292   0.0079   0.0179   0.0137  -0.0144   0.0095  -0.0069
 133 H   :1s    -0.0001   0.0008  -0.0011   0.0052  -0.0059   0.0039  -0.0038
 134 H   :2px    0.0032   0.0009   0.0019   0.0022  -0.0001  -0.0012  -0.0001
 135 H   :2py    0.0039   0.0011   0.0024   0.0019  -0.0010  -0.0004  -0.0005
 136 H   :2pz    0.0017   0.0005   0.0006  -0.0027  -0.0012   0.0039  -0.0006
 137 H   :1s     0.0044   0.0011   0.0063  -0.0215  -0.0231  -0.0123   0.2117
 138 H   :1s     0.0004  -0.0008  -0.0003  -0.0103  -0.0104  -0.0052   0.0948
 139 H   :2px    0.0003   0.0001   0.0005  -0.0018  -0.0011  -0.0010   0.0054
 140 H   :2py    0.0006   0.0001   0.0008  -0.0013  -0.0011  -0.0008   0.0077
 141 H   :2pz   -0.0006  -0.0001  -0.0007   0.0015   0.0020   0.0007  -0.0193
 142 H   :1s     0.0044   0.0011   0.0053   0.0034   0.0172  -0.0010  -0.2292
 143 H   :1s     0.0008  -0.0013   0.0001   0.0027   0.0106  -0.0032  -0.1156
 144 H   :2px   -0.0002  -0.0000  -0.0001  -0.0011  -0.0008  -0.0002   0.0042
 145 H   :2py   -0.0007  -0.0001  -0.0009   0.0009  -0.0006   0.0007   0.0133
 146 H   :2pz   -0.0003  -0.0000  -0.0002  -0.0012  -0.0018  -0.0005   0.0166

    Orbital        15       16       17       18       19       20       21
   1 N   :1s     0.0023   0.0002  -0.0011  -0.0022   0.0089  -0.0032  -0.0019
   2 N   :1s     0.0038   0.0004  -0.0018  -0.0037   0.0149  -0.0053  -0.0033
   3 N   :1s    -0.0114  -0.0015   0.0053   0.0100  -0.0413   0.0149   0.0108
   4 N   :1s    -0.0084   0.0014   0.0038   0.0179  -0.0728   0.0281   0.0050
   5 N   :1s     0.0152   0.0236  -0.0201   0.0111   0.0095   0.0266  -0.0850
   6 N   :2px   -0.0278   0.0159  -0.0262   0.0080  -0.0091  -0.0227  -0.0536
   7 N   :2py   -0.0713   0.0434  -0.0032  -0.0143  -0.0440  -0.0237  -0.0015
   8 N   :2pz   -0.0303   0.0482   0.0049   0.0020   0.0077  -0.0648   0.0187
   9 N   :2px   -0.0448   0.0262  -0.0421   0.0141  -0.0130  -0.0358  -0.0839
  10 N   :2py   -0.1138   0.0699  -0.0053  -0.0223  -0.0685  -0.0360  -0.0027
  11 N   :2pz   -0.0491   0.0771   0.0085   0.0014   0.0111  -0.1009   0.0273
  12 N   :2px   -0.0314   0.0156  -0.0307   0.0084  -0.0194  -0.0333  -0.0816
  13 N   :2py   -0.0825   0.0496  -0.0002  -0.0218  -0.0586  -0.0440   0.0005
  14 N   :2pz   -0.0378   0.0557   0.0045   0.0079   0.0083  -0.0862   0.0336
  15 N   :2px    0.0021  -0.0127   0.0044  -0.0480  -0.0347   0.0145   0.0112
  16 N   :2py   -0.0099  -0.0043   0.0122  -0.0266  -0.0203  -0.0462   0.0186
  17 N   :2pz   -0.0065  -0.0011  -0.0006   0.0479  -0.0042   0.0033   0.0189
  18 N   :3d2-  -0.0062   0.0040  -0.0017  -0.0004  -0.0024  -0.0015  -0.0020
  19 N   :3d1-  -0.0046   0.0025  -0.0002  -0.0007  -0.0024   0.0006  -0.0004
  20 N   :3d0    0.0038  -0.0048  -0.0008   0.0007   0.0006   0.0033  -0.0005
  21 N   :3d1+  -0.0016   0.0023  -0.0013   0.0005   0.0007  -0.0023  -0.0025
  22 N   :3d2+   0.0000  -0.0004   0.0018  -0.0012  -0.0011   0.0015   0.0026
  23 H   :1s     0.0053   0.0008   0.0175  -0.0081   0.0002   0.0030   0.0302
  24 H   :1s     0.0052   0.0045   0.0265  -0.0035   0.0060  -0.0021   0.0343
  25 H   :1s     0.0035  -0.0195   0.0022  -0.0636  -0.0302   0.0087  -0.0199
  26 H   :1s     0.0000   0.0039   0.0114   0.0034  -0.0054  -0.0138  -0.0051
  27 H   :2px   -0.0006   0.0013   0.0025  -0.0008  -0.0027   0.0000   0.0097
  28 H   :2py   -0.0044   0.0028  -0.0003  -0.0005  -0.0026  -0.0007  -0.0021
  29 H   :2pz   -0.0021   0.0023  -0.0013   0.0006  -0.0006  -0.0035   0.0019
  30 H   :1s     0.0225  -0.0349  -0.0050   0.0015  -0.0018   0.0343  -0.0085
  31 H   :1s     0.0291  -0.0489  -0.0077  -0.0071   0.0035   0.0441  -0.0111
  32 H   :1s    -0.0046  -0.0142   0.0036   0.0713   0.0093  -0.0364   0.0620
  33 H   :1s    -0.0003  -0.0135   0.0056   0.0173  -0.0093  -0.0490  -0.0226
  34 H   :2px   -0.0027   0.0002  -0.0015   0.0010  -0.0014  -0.0013  -0.0015
  35 H   :2py   -0.0046   0.0017  -0.0003  -0.0006  -0.0010  -0.0057   0.0012
  36 H   :2pz    0.0023  -0.0064  -0.0008   0.0006  -0.0064   0.0147  -0.0059
  37 H   :1s     0.0287  -0.0088  -0.0014   0.0098   0.0236  -0.0117  -0.0038
  38 H   :1s     0.0397  -0.0115  -0.0015   0.0120   0.0400  -0.0149  -0.0071
  39 H   :1s    -0.0074  -0.0073   0.0177  -0.0438  -0.0160  -0.0625   0.0324
  40 H   :1s     0.0063  -0.0052  -0.0056  -0.0712  -0.0136   0.0096   0.0187
  41 H   :2px   -0.0040   0.0021  -0.0017  -0.0035  -0.0022  -0.0004  -0.0039
  42 H   :2py    0.0007   0.0014  -0.0002   0.0028   0.0019  -0.0046  -0.0005
  43 H   :2pz   -0.0047   0.0041   0.0002  -0.0013  -0.0020  -0.0036   0.0006
  44 H   :1s    -0.0574   0.0434  -0.0116  -0.0031  -0.0181  -0.0268  -0.0159
  45 H   :1s    -0.0850   0.0607  -0.0155  -0.0057  -0.0269  -0.0387  -0.0187
  46 H   :1s     0.0065   0.0121  -0.0101   0.0266   0.0756   0.0499   0.0037
  47 H   :1s    -0.0137   0.0070  -0.0035   0.0172   0.0563   0.0397   0.0242
  48 H   :2px    0.0074  -0.0049   0.0000   0.0009   0.0063   0.0041  -0.0009
  49 H   :2py    0.0074  -0.0058   0.0018  -0.0005   0.0060   0.0078   0.0038
  50 H   :2pz    0.0022   0.0004   0.0014  -0.0001   0.0059   0.0004   0.0024
  51 O   :1s    -0.0005  -0.0004  -0.0064   0.0031  -0.0201   0.0119   0.0540
  52 O   :1s     0.0010   0.0004   0.0157  -0.0080   0.0462  -0.0278  -0.1252
  53 O   :1s     0.0023   0.0027   0.0305  -0.0106   0.0861  -0.0492  -0.2267
  54 O   :2px    0.0159  -0.0020  -0.0265  -0.0330   0.1739  -0.0988  -0.4325
  55 O   :2py   -0.0239   0.0249   0.4689  -0.0005  -0.0162   0.0171   0.0650
  56 O   :2pz    0.0039  -0.0124  -0.1952   0.0089  -0.0815   0.0493   0.2380
  57 O   :2px    0.0116   0.0004  -0.0206  -0.0225   0.1284  -0.0711  -0.3128
  58 O   :2py   -0.0149   0.0157   0.2965   0.0011  -0.0154   0.0151   0.0582
  59 O   :2pz    0.0011  -0.0090  -0.1219   0.0080  -0.0614   0.0369   0.1806
  60 O   :3d2-   0.0011  -0.0013  -0.0264  -0.0000   0.0006  -0.0009  -0.0029
  61 O   :3d1-  -0.0004   0.0007   0.0114  -0.0003   0.0015  -0.0006  -0.0036
  62 O   :3d0    0.0005  -0.0002  -0.0066  -0.0007   0.0031  -0.0019  -0.0075
  63 O   :3d1+  -0.0001   0.0006   0.0097  -0.0008   0.0059  -0.0033  -0.0151
  64 O   :3d2+  -0.0003   0.0002   0.0021   0.0008  -0.0041   0.0025   0.0108
  65 O   :1s     0.0020  -0.0022   0.0006   0.0012  -0.0483  -0.0320  -0.0120
  66 O   :1s    -0.0070   0.0058  -0.0017  -0.0024   0.1134   0.0749   0.0282
  67 O   :1s    -0.0073   0.0098  -0.0018  -0.0078   0.2047   0.1354   0.0516
  68 O   :2px    0.2597  -0.1053   0.0237   0.0128  -0.2040  -0.1024  -0.0311
  69 O   :2py   -0.2554   0.0610  -0.0099   0.0082  -0.3304  -0.2151  -0.0824
  70 O   :2pz   -0.2320   0.0799  -0.0167  -0.0016   0.2248   0.1618   0.0618
  71 O   :2px    0.1628  -0.0667   0.0156   0.0093  -0.1373  -0.0697  -0.0207
  72 O   :2py   -0.1621   0.0377  -0.0065   0.0059  -0.2403  -0.1555  -0.0586
  73 O   :2pz   -0.1442   0.0502  -0.0104  -0.0005   0.1651   0.1187   0.0449
  74 O   :3d2-   0.0022  -0.0012   0.0003   0.0002  -0.0079  -0.0047  -0.0016
  75 O   :3d1-  -0.0016   0.0010  -0.0003  -0.0003   0.0099   0.0068   0.0025
  76 O   :3d0    0.0110  -0.0033   0.0006  -0.0001   0.0017   0.0008   0.0002
  77 O   :3d1+  -0.0148   0.0055  -0.0013  -0.0003   0.0113   0.0070   0.0023
[...]
 |  sym. | Exci.  |        CCSD       Excitation energies            | ||T1||  |
 |(spin, |        +------------------------------------------------------------+
 | spat) |        |     Hartree    |       eV.      |     cm-1       |    %    |
 +=============================================================================+
 | ^1A   |    1   |    14.9101036  |     405.72456  |   3272389.453  |  88.70  |
 | ^1A   |    2   |    14.9693958  |     407.33798  |   3285402.596  |  88.81  |
 | ^1A   |    3   |    14.9827877  |     407.70239  |   3288341.780  |  88.79  |
 | ^1A   |    4   |    14.9913830  |     407.93628  |   3290228.217  |  88.67  |
 | ^1A   |    5   |    15.0217500  |     408.76261  |   3296893.003  |  88.41  |
 | ^1A   |    6   |    15.0225353  |     408.78398  |   3297065.374  |  88.43  |
 | ^1A   |    7   |    15.0366198  |     409.16724  |   3300156.549  |  88.53  |
 | ^1A   |    8   |    15.0523081  |     409.59414  |   3303599.738  |  88.49  |
 | ^1A   |    9   |    15.0867806  |     410.53218  |   3311165.590  |  89.01  |
 | ^1A   |   10   |    15.0889286  |     410.59063  |   3311637.022  |  88.93  |
 | ^1A   |   11   |    15.1101535  |     411.16819  |   3316295.328  |  89.03  |
 | ^1A   |   12   |    15.1501670  |     412.25702  |   3325077.297  |  87.95  |
 | ^1A   |   13   |    15.1880039  |     413.28661  |   3333381.527  |  88.00  |
 | ^1A   |   14   |    15.1985711  |     413.57416  |   3335700.754  |  87.76  |
 | ^1A   |   15   |    15.2128197  |     413.96188  |   3338827.966  |  87.76  |
 | ^1A   |   16   |    15.2252602  |     414.30040  |   3341558.333  |  87.79  |
 | ^1A   |   17   |    15.2292164  |     414.40806  |   3342426.630  |  87.87  |
 | ^1A   |   18   |    15.2449112  |     414.83514  |   3345871.228  |  87.74  |
 | ^1A   |   19   |    15.2546786  |     415.10092  |   3348014.940  |  87.65  |
 | ^1A   |   20   |    15.2646852  |     415.37321  |   3350211.125  |  87.64  |
 | ^1A   |   21   |    15.3625280  |     418.03565  |   3371685.132  |  88.40  |
 | ^1A   |   22   |    15.3785512  |     418.47167  |   3375201.828  |  88.37  |
 | ^1A   |   23   |    15.3933824  |     418.87524  |   3378456.899  |  88.36  |
 | ^1A   |   24   |    15.5804388  |     423.96531  |   3419511.041  |  89.50  |
 | ^1A   |   25   |    15.5893258  |     424.20713  |   3421461.504  |  89.81  |
 | ^1A   |   26   |    15.6016376  |     424.54216  |   3424163.632  |  88.42  |
 | ^1A   |   27   |    15.6046454  |     424.62400  |   3424823.773  |  89.55  |
 | ^1A   |   28   |    15.7267732  |     427.94727  |   3451627.708  |   5.59  |
 | ^1A   |   29   |    15.7343948  |     428.15466  |   3453300.474  |  82.48  |
 | ^1A   |   30   |    15.7361610  |     428.20272  |   3453688.096  |   0.31  |
 +=============================================================================+
                                                                                
                                                                                
     Total energies in Hartree:                                                 
             1 ^1A       -347.2809013736                                        
             2 ^1A       -347.2216091317                                        
             3 ^1A       -347.2082172240                                        
             4 ^1A       -347.1996219838                                        
             5 ^1A       -347.1692549871                                        
             6 ^1A       -347.1684696040                                        
             7 ^1A       -347.1543851752                                        
             8 ^1A       -347.1386968499                                        
             9 ^1A       -347.1042242934                                        
            10 ^1A       -347.1020762924                                        
            11 ^1A       -347.0808514867                                        
            12 ^1A       -347.0408378924                                        
            13 ^1A       -347.0030010334                                        
            14 ^1A       -346.9924338601                                        
            15 ^1A       -346.9781852330                                        
            16 ^1A       -346.9657447643                                        
            17 ^1A       -346.9617885122                                        
            18 ^1A       -346.9460937704                                        
            19 ^1A       -346.9363262992                                        
            20 ^1A       -346.9263197439                                        
            21 ^1A       -346.8284769662                                        
            22 ^1A       -346.8124537236                                        
            23 ^1A       -346.7976225263                                        
            24 ^1A       -346.6105660927                                        
            25 ^1A       -346.6016791260                                        
            26 ^1A       -346.5893673242                                        
            27 ^1A       -346.5863595035                                        
            28 ^1A       -346.4642317879                                        
            29 ^1A       -346.4566101045                                        
            30 ^1A       -346.4548439685                                        
                                                                                
                                                                                
 +=============================================================================+
 |  sym. | Exci.  |        CCSD       Length   Gauge Oscillator Strength       |
 |(spin, |        +------------------------------------------------------------+
 | spat) |        | Dipole Strength(a.u.) | Oscillator strength  | Direction   |
 +=============================================================================+
 | ^1A   |    1   |        0.0002406      |      0.0023911       |  (Y,Z)      |
 | ^1A   |    2   |        0.0018988      |      0.0189495       |  (Y,Z)      |
 | ^1A   |    3   |        0.0013453      |      0.0134379       |  (Y,Z)      |
 | ^1A   |    4   |        0.0015593      |      0.0155839       |  (Y,Z)      |
 | ^1A   |    5   |        0.0009439      |      0.0094528       |  (Y,Z)      |
 | ^1A   |    6   |        0.0010238      |      0.0102531       |  (Y,Z)      |
 | ^1A   |    7   |        0.0008614      |      0.0086350       |  (Y,Z)      |
 | ^1A   |    8   |        0.0002438      |      0.0024470       |  (Y,Z)      |
 | ^1A   |    9   |        0.0025369      |      0.0255156       |  (Y,Z)      |
 | ^1A   |   10   |        0.0020853      |      0.0209770       |  (Y,Z)      |
 | ^1A   |   11   |        0.0024288      |      0.0244660       |  (Y,Z)      |
 | ^1A   |   12   |        0.0000074      |      0.0000750       |  (Y,Z)      |
 | ^1A   |   13   |        0.0000734      |      0.0007434       |  (Y,Z)      |
 | ^1A   |   14   |        0.0000153      |      0.0001546       |  (Y,Z)      |
 | ^1A   |   15   |        0.0000419      |      0.0004246       |  (Y,Z)      |
 | ^1A   |   16   |        0.0000089      |      0.0000907       |  (Y,Z)      |
 | ^1A   |   17   |        0.0000222      |      0.0002249       |  (Y,Z)      |
 | ^1A   |   18   |        0.0000461      |      0.0004687       |  (Y,Z)      |
 | ^1A   |   19   |        0.0000262      |      0.0002662       |  (Y,Z)      |
 | ^1A   |   20   |        0.0000310      |      0.0003151       |  (Y,Z)      |
 | ^1A   |   21   |        0.0000264      |      0.0002701       |  (Y,Z)      |
 | ^1A   |   22   |        0.0000537      |      0.0005504       |  (Y,Z)      |
 | ^1A   |   23   |        0.0000167      |      0.0001711       |  (Y,Z)      |
 | ^1A   |   24   |        0.0039701      |      0.0412368       |  (Y,Z)      |
 | ^1A   |   25   |        0.0046882      |      0.0487244       |  (Y,Z)      |
 | ^1A   |   26   |        0.0020793      |      0.0216273       |  (Y,Z)      |
 | ^1A   |   27   |        0.0040793      |      0.0424370       |  (Y,Z)      |
 | ^1A   |   28   |        0.0000061      |      0.0000638       |  (Y,Z)      |
 | ^1A   |   29   |        0.0000385      |      0.0004036       |  (Y,Z)      |
 | ^1A   |   30   |        0.0000014      |      0.0000152       |  (Y,Z)      |
 +=============================================================================+

  1 a.u. =        27.21138 eV.  
  1 a.u. =    219474.62934 cm-1.
  

 *******************************************************************************
 *******************************************************************************
 *                                                                             *
 *                                                                             *
 *                      END OF COUPLED CLUSTER CALCULATION                     *
 *                                                                             *
 *                                                                             *
 *******************************************************************************
 *******************************************************************************


 CPU and wall time for CC :   10239.753   10844.804

 
     Date and time (Linux)  : Thu Jun 14 15:38:07 2018
     Host name              : n-62-29-11                              


                      .-------------------------------------.
                      | End of Coupled Cluster Section (CC) |
                      `-------------------------------------'

  Total CPU  time used in DALTON:   2 hours 51 minutes  0 seconds
  Total wall time used in DALTON:   3 hours  1 minute  10 seconds

 
     Date and time (Linux)  : Thu Jun 14 15:38:07 2018
     Host name              : n-62-29-11                              
  

 +---------------------------------------------------------+ 
 | List of selected calculated molecular properties (a.u.) | 
 +---------------------------------------------------------+ 

  Properties are read from unit number                      4

 CCSD       properties :
 #  1 1 CCSD/MM  Ground state Energy =    -362.5931350925
 #  2 1 E_QM/MM  Ground state Energy =      -0.4021301545
 #  3 1 Sy: 1 Sp: 1 Exc:  1 E_tot:   -347.2809013736 w:     14.9101035645 E_grs:   -362.1910049381
 #  4 1 Exctot   Excited state Energy =    -347.2809013736
 #  5 1 Sy: 1 Sp: 1 Exc:  2 E_tot:   -347.2216091317 w:     14.9693958064 E_grs:   -362.1910049381
 #  6 1 Exctot   Excited state Energy =    -347.2216091317
 #  7 1 Sy: 1 Sp: 1 Exc:  3 E_tot:   -347.2082172240 w:     14.9827877140 E_grs:   -362.1910049381
 #  8 1 Exctot   Excited state Energy =    -347.2082172240
 #  9 1 Sy: 1 Sp: 1 Exc:  4 E_tot:   -347.1996219838 w:     14.9913829542 E_grs:   -362.1910049381
 # 10 1 Exctot   Excited state Energy =    -347.1996219838
 # 11 1 Sy: 1 Sp: 1 Exc:  5 E_tot:   -347.1692549871 w:     15.0217499510 E_grs:   -362.1910049381
 # 12 1 Exctot   Excited state Energy =    -347.1692549871
 # 13 1 Sy: 1 Sp: 1 Exc:  6 E_tot:   -347.1684696040 w:     15.0225353341 E_grs:   -362.1910049381
 # 14 1 Exctot   Excited state Energy =    -347.1684696040
 # 15 1 Sy: 1 Sp: 1 Exc:  7 E_tot:   -347.1543851752 w:     15.0366197629 E_grs:   -362.1910049381
 # 16 1 Exctot   Excited state Energy =    -347.1543851752
 # 17 1 Sy: 1 Sp: 1 Exc:  8 E_tot:   -347.1386968499 w:     15.0523080882 E_grs:   -362.1910049381
 # 18 1 Exctot   Excited state Energy =    -347.1386968499
 # 19 1 Sy: 1 Sp: 1 Exc:  9 E_tot:   -347.1042242934 w:     15.0867806447 E_grs:   -362.1910049381
 # 20 1 Exctot   Excited state Energy =    -347.1042242934
 # 21 1 Sy: 1 Sp: 1 Exc: 10 E_tot:   -347.1020762924 w:     15.0889286457 E_grs:   -362.1910049381
 # 22 1 Exctot   Excited state Energy =    -347.1020762924
 # 23 1 Sy: 1 Sp: 1 Exc: 11 E_tot:   -347.0808514867 w:     15.1101534514 E_grs:   -362.1910049381
 # 24 1 Exctot   Excited state Energy =    -347.0808514867
 # 25 1 Sy: 1 Sp: 1 Exc: 12 E_tot:   -347.0408378924 w:     15.1501670457 E_grs:   -362.1910049381
 # 26 1 Exctot   Excited state Energy =    -347.0408378924
 # 27 1 Sy: 1 Sp: 1 Exc: 13 E_tot:   -347.0030010334 w:     15.1880039047 E_grs:   -362.1910049381
 # 28 1 Exctot   Excited state Energy =    -347.0030010334
 # 29 1 Sy: 1 Sp: 1 Exc: 14 E_tot:   -346.9924338601 w:     15.1985710780 E_grs:   -362.1910049381
 # 30 1 Exctot   Excited state Energy =    -346.9924338601
 # 31 1 Sy: 1 Sp: 1 Exc: 15 E_tot:   -346.9781852330 w:     15.2128197051 E_grs:   -362.1910049381
 # 32 1 Exctot   Excited state Energy =    -346.9781852330
 # 33 1 Sy: 1 Sp: 1 Exc: 16 E_tot:   -346.9657447643 w:     15.2252601738 E_grs:   -362.1910049381
 # 34 1 Exctot   Excited state Energy =    -346.9657447643
 # 35 1 Sy: 1 Sp: 1 Exc: 17 E_tot:   -346.9617885122 w:     15.2292164259 E_grs:   -362.1910049381
 # 36 1 Exctot   Excited state Energy =    -346.9617885122
 # 37 1 Sy: 1 Sp: 1 Exc: 18 E_tot:   -346.9460937704 w:     15.2449111676 E_grs:   -362.1910049381
 # 38 1 Exctot   Excited state Energy =    -346.9460937704
 # 39 1 Sy: 1 Sp: 1 Exc: 19 E_tot:   -346.9363262992 w:     15.2546786389 E_grs:   -362.1910049381
 # 40 1 Exctot   Excited state Energy =    -346.9363262992
 # 41 1 Sy: 1 Sp: 1 Exc: 20 E_tot:   -346.9263197439 w:     15.2646851942 E_grs:   -362.1910049381
 # 42 1 Exctot   Excited state Energy =    -346.9263197439
 # 43 1 Sy: 1 Sp: 1 Exc: 21 E_tot:   -346.8284769662 w:     15.3625279718 E_grs:   -362.1910049381
 # 44 1 Exctot   Excited state Energy =    -346.8284769662
 # 45 1 Sy: 1 Sp: 1 Exc: 22 E_tot:   -346.8124537236 w:     15.3785512145 E_grs:   -362.1910049381
 # 46 1 Exctot   Excited state Energy =    -346.8124537236
 # 47 1 Sy: 1 Sp: 1 Exc: 23 E_tot:   -346.7976225263 w:     15.3933824118 E_grs:   -362.1910049381
 # 48 1 Exctot   Excited state Energy =    -346.7976225263
 # 49 1 Sy: 1 Sp: 1 Exc: 24 E_tot:   -346.6105660927 w:     15.5804388454 E_grs:   -362.1910049381
 # 50 1 Exctot   Excited state Energy =    -346.6105660927
 # 51 1 Sy: 1 Sp: 1 Exc: 25 E_tot:   -346.6016791260 w:     15.5893258121 E_grs:   -362.1910049381
 # 52 1 Exctot   Excited state Energy =    -346.6016791260
 # 53 1 Sy: 1 Sp: 1 Exc: 26 E_tot:   -346.5893673242 w:     15.6016376139 E_grs:   -362.1910049381
 # 54 1 Exctot   Excited state Energy =    -346.5893673242
 # 55 1 Sy: 1 Sp: 1 Exc: 27 E_tot:   -346.5863595035 w:     15.6046454345 E_grs:   -362.1910049381
 # 56 1 Exctot   Excited state Energy =    -346.5863595035
 # 57 1 Sy: 1 Sp: 1 Exc: 28 E_tot:   -346.4642317879 w:     15.7267731502 E_grs:   -362.1910049381
 # 58 1 Exctot   Excited state Energy =    -346.4642317879
 # 59 1 Sy: 1 Sp: 1 Exc: 29 E_tot:   -346.4566101045 w:     15.7343948336 E_grs:   -362.1910049381
 # 60 1 Exctot   Excited state Energy =    -346.4566101045
 # 61 1 Sy: 1 Sp: 1 Exc: 30 E_tot:   -346.4548439685 w:     15.7361609696 E_grs:   -362.1910049381
 # 62 1 Exctot   Excited state Energy =    -346.4548439685
 # 63 1 |<O|XDIPLEN |i(14.910104)>| =     0.00449364
 # 65 1 |<O|XDIPLEN |i(14.969396)>| =     0.00235254
 # 67 1 |<O|XDIPLEN |i(14.982788)>| =     0.02792423
 # 69 1 |<O|XDIPLEN |i(14.991383)>| =     0.03070860
 # 71 1 |<O|XDIPLEN |i(15.021750)>| =     0.00392257
 # 73 1 |<O|XDIPLEN |i(15.022535)>| =     0.02718038
 # 75 1 |<O|XDIPLEN |i(15.036620)>| =     0.00579072
 # 77 1 |<O|XDIPLEN |i(15.052308)>| =     0.00706820
 # 79 1 |<O|XDIPLEN |i(15.086781)>| =     0.04571639
 # 81 1 |<O|XDIPLEN |i(15.088929)>| =     0.01247992
 # 83 1 |<O|XDIPLEN |i(15.110153)>| =     0.01717443
 # 85 1 |<O|XDIPLEN |i(15.150167)>| =     0.00003441
 # 87 1 |<O|XDIPLEN |i(15.188004)>| =     0.00159321
 # 89 1 |<O|XDIPLEN |i(15.198571)>| =     0.00152418
 # 91 1 |<O|XDIPLEN |i(15.212820)>| =     0.00317950
 # 93 1 |<O|XDIPLEN |i(15.225260)>| =     0.00161249
 # 95 1 |<O|XDIPLEN |i(15.229216)>| =     0.00250493
 # 97 1 |<O|XDIPLEN |i(15.244911)>| =     0.00108077
 # 99 1 |<O|XDIPLEN |i(15.254679)>| =     0.00365871
 #101 1 |<O|XDIPLEN |i(15.264685)>| =     0.00363526
 #103 1 |<O|XDIPLEN |i(15.362528)>| =     0.00154791
 #105 1 |<O|XDIPLEN |i(15.378551)>| =     0.00566980
 #107 1 |<O|XDIPLEN |i(15.393382)>| =     0.00184606
 #109 1 |<O|XDIPLEN |i(15.580439)>| =     0.01841913
 #111 1 |<O|XDIPLEN |i(15.589326)>| =     0.06345429
 #113 1 |<O|XDIPLEN |i(15.601638)>| =     0.01815140
 #115 1 |<O|XDIPLEN |i(15.604645)>| =     0.01472069
 #117 1 |<O|XDIPLEN |i(15.726773)>| =     0.00047629
 #119 1 |<O|XDIPLEN |i(15.734395)>| =     0.00333048
 #121 1 |<O|XDIPLEN |i(15.736161)>| =     0.00061044
 #123 1 |<O|YDIPLEN |i(14.910104)>| =     0.01255002
 #125 1 |<O|YDIPLEN |i(14.969396)>| =     0.04337800
 #127 1 |<O|YDIPLEN |i(14.982788)>| =     0.00741928
 #129 1 |<O|YDIPLEN |i(14.991383)>| =     0.01023187
 #131 1 |<O|YDIPLEN |i(15.021750)>| =     0.02272834
 #133 1 |<O|YDIPLEN |i(15.022535)>| =     0.01482895
 #135 1 |<O|YDIPLEN |i(15.036620)>| =     0.01174616
 #137 1 |<O|YDIPLEN |i(15.052308)>| =     0.00097482
 #139 1 |<O|YDIPLEN |i(15.086781)>| =     0.01923633
 #141 1 |<O|YDIPLEN |i(15.088929)>| =     0.03720414
 #143 1 |<O|YDIPLEN |i(15.110153)>| =     0.01387376
 #145 1 |<O|YDIPLEN |i(15.150167)>| =     0.00214962
 #147 1 |<O|YDIPLEN |i(15.188004)>| =    -0.00005480
 #149 1 |<O|YDIPLEN |i(15.198571)>| =     0.00218951
 #151 1 |<O|YDIPLEN |i(15.212820)>| =     0.00400892
 #153 1 |<O|YDIPLEN |i(15.225260)>| =     0.00111340
 #155 1 |<O|YDIPLEN |i(15.229216)>| =     0.00289704
 #157 1 |<O|YDIPLEN |i(15.244911)>| =     0.00121234
 #159 1 |<O|YDIPLEN |i(15.254679)>| =     0.00215985
 #161 1 |<O|YDIPLEN |i(15.264685)>| =     0.00211707
 #163 1 |<O|YDIPLEN |i(15.362528)>| =     0.00259907
 #165 1 |<O|YDIPLEN |i(15.378551)>| =     0.00409148
 #167 1 |<O|YDIPLEN |i(15.393382)>| =     0.00352418
 #169 1 |<O|YDIPLEN |i(15.580439)>| =     0.04120632
 #171 1 |<O|YDIPLEN |i(15.589326)>| =     0.01784740
 #173 1 |<O|YDIPLEN |i(15.601638)>| =     0.01097921
 #175 1 |<O|YDIPLEN |i(15.604645)>| =     0.05470914
 #177 1 |<O|YDIPLEN |i(15.726773)>| =     0.00241840
 #179 1 |<O|YDIPLEN |i(15.734395)>| =     0.00489095
 #181 1 |<O|YDIPLEN |i(15.736161)>| =     0.00093467
 #183 1 |<O|ZDIPLEN |i(14.910104)>| =     0.00792813
 #185 1 |<O|ZDIPLEN |i(14.969396)>| =     0.00341201
 #187 1 |<O|ZDIPLEN |i(14.982788)>| =     0.02259490
 #189 1 |<O|ZDIPLEN |i(14.991383)>| =     0.02261803
 #191 1 |<O|ZDIPLEN |i(15.021750)>| =     0.02029653
 #193 1 |<O|ZDIPLEN |i(15.022535)>| =     0.00806859
 #195 1 |<O|ZDIPLEN |i(15.036620)>| =     0.02626572
 #197 1 |<O|ZDIPLEN |i(15.052308)>| =     0.01389019
 #199 1 |<O|ZDIPLEN |i(15.086781)>| =     0.00876680
 #201 1 |<O|ZDIPLEN |i(15.088929)>| =     0.02335463
 #203 1 |<O|ZDIPLEN |i(15.110153)>| =     0.04406043
 #205 1 |<O|ZDIPLEN |i(15.150167)>| =     0.00167313
 #207 1 |<O|ZDIPLEN |i(15.188004)>| =     0.00841919
 #209 1 |<O|ZDIPLEN |i(15.198571)>| =     0.00285400
 #211 1 |<O|ZDIPLEN |i(15.212820)>| =     0.00396084
 #213 1 |<O|ZDIPLEN |i(15.225260)>| =     0.00225744
 #215 1 |<O|ZDIPLEN |i(15.229216)>| =     0.00273599
 #217 1 |<O|ZDIPLEN |i(15.244911)>| =     0.00659420
 #219 1 |<O|ZDIPLEN |i(15.254679)>| =     0.00285080
 #221 1 |<O|ZDIPLEN |i(15.264685)>| =     0.00364251
 #223 1 |<O|ZDIPLEN |i(15.362528)>| =     0.00414929
 #225 1 |<O|ZDIPLEN |i(15.378551)>| =     0.00219053
 #227 1 |<O|ZDIPLEN |i(15.393382)>| =     0.00091932
 #229 1 |<O|ZDIPLEN |i(15.580439)>| =     0.04396399
 #231 1 |<O|ZDIPLEN |i(15.589326)>| =     0.01852754
 #233 1 |<O|ZDIPLEN |i(15.601638)>| =     0.04036480
 #235 1 |<O|ZDIPLEN |i(15.604645)>| =     0.02948697
 #237 1 |<O|ZDIPLEN |i(15.726773)>| =     0.00011690
 #239 1 |<O|ZDIPLEN |i(15.734395)>| =     0.00186045
 #241 1 |<O|ZDIPLEN |i(15.736161)>| =     0.00044742

 THE_END   
