

     ************************************************************************
     *************** Dalton - An Electronic Structure Program ***************
     ************************************************************************

    This is output from DALTON release Dalton2017.alpha (2016)
         ( Web site: http://daltonprogram.org )

   ----------------------------------------------------------------------------

    NOTE:
     
    Dalton is an experimental code for the evaluation of molecular
    properties using (MC)SCF, DFT, CI, and CC wave functions.
    The authors accept no responsibility for the performance of
    the code or for the correctness of the results.
     
    The code (in whole or part) is provided under a licence and
    is not to be reproduced for further distribution without
    the written permission of the authors or their representatives.
     
    See the home page "http://daltonprogram.org" for further information.
     
    If results obtained with this code are published,
    the appropriate citations would be both of:
     
       K. Aidas, C. Angeli, K. L. Bak, V. Bakken, R. Bast,
       L. Boman, O. Christiansen, R. Cimiraglia, S. Coriani,
       P. Dahle, E. K. Dalskov, U. Ekstroem,
       T. Enevoldsen, J. J. Eriksen, P. Ettenhuber, B. Fernandez,
       L. Ferrighi, H. Fliegl, L. Frediani, K. Hald, A. Halkier,
       C. Haettig, H. Heiberg, T. Helgaker, A. C. Hennum,
       H. Hettema, E. Hjertenaes, S. Hoest, I.-M. Hoeyvik,
       M. F. Iozzi, B. Jansik, H. J. Aa. Jensen, D. Jonsson,
       P. Joergensen, J. Kauczor, S. Kirpekar,
       T. Kjaergaard, W. Klopper, S. Knecht, R. Kobayashi, H. Koch,
       J. Kongsted, A. Krapp, K. Kristensen, A. Ligabue,
       O. B. Lutnaes, J. I. Melo, K. V. Mikkelsen, R. H. Myhre,
       C. Neiss, C. B. Nielsen, P. Norman, J. Olsen,
       J. M. H. Olsen, A. Osted, M. J. Packer, F. Pawlowski,
       T. B. Pedersen, P. F. Provasi, S. Reine, Z. Rinkevicius,
       T. A. Ruden, K. Ruud, V. Rybkin, P. Salek, C. C. M. Samson,
       A. Sanchez de Meras, T. Saue, S. P. A. Sauer,
       B. Schimmelpfennig, K. Sneskov, A. H. Steindal,
       K. O. Sylvester-Hvid, P. R. Taylor, A. M. Teale,
       E. I. Tellgren, D. P. Tew, A. J. Thorvaldsen, L. Thoegersen,
       O. Vahtras, M. A. Watson, D. J. D. Wilson, M. Ziolkowski
       and H. Agren,
       "The Dalton quantum chemistry program system",
       WIREs Comput. Mol. Sci. 2014, 4:269–284 (doi: 10.1002/wcms.1172)
     
    and
     
       Dalton, a Molecular Electronic Structure Program,
       Release Dalton2017.alpha (2016), see http://daltonprogram.org
   ----------------------------------------------------------------------------

    Authors in alphabetical order (major contribution(s) in parenthesis):

  Kestutis Aidas,           Vilnius University,           Lithuania   (QM/MM)
  Celestino Angeli,         University of Ferrara,        Italy       (NEVPT2)
  Keld L. Bak,              UNI-C,                        Denmark     (AOSOPPA, non-adiabatic coupling, magnetic properties)
  Vebjoern Bakken,          University of Oslo,           Norway      (DALTON; geometry optimizer, symmetry detection)
  Radovan Bast,             UiT The Arctic U. of Norway,  Norway      (DALTON installation and execution frameworks)
  Pablo Baudin,             University of Valencia,       Spain       (Cholesky excitation energies)
  Linus Boman,              NTNU,                         Norway      (Cholesky decomposition and subsystems)
  Ove Christiansen,         Aarhus University,            Denmark     (CC module)
  Renzo Cimiraglia,         University of Ferrara,        Italy       (NEVPT2)
  Sonia Coriani,            University of Trieste,        Italy       (CC module, MCD in RESPONS)
  Janusz Cukras,            University of Trieste,        Italy       (MChD in RESPONS)
  Paal Dahle,               University of Oslo,           Norway      (Parallelization)
  Erik K. Dalskov,          UNI-C,                        Denmark     (SOPPA)
  Thomas Enevoldsen,        Univ. of Southern Denmark,    Denmark     (SOPPA)
  Janus J. Eriksen,         Aarhus University,            Denmark     (Polarizable embedding model, TDA)
  Rasmus Faber,             University of Copenhagen,     Denmark     (Vib.avg. NMR with SOPPA, parallel AO-SOPPA)
  Berta Fernandez,          U. of Santiago de Compostela, Spain       (doublet spin, ESR in RESPONS)
  Lara Ferrighi,            Aarhus University,            Denmark     (PCM Cubic response)
  Heike Fliegl,             University of Oslo,           Norway      (CCSD(R12))
  Luca Frediani,            UiT The Arctic U. of Norway,  Norway      (PCM)
  Bin Gao,                  UiT The Arctic U. of Norway,  Norway      (Gen1Int library)
  Christof Haettig,         Ruhr-University Bochum,       Germany     (CC module)
  Kasper Hald,              Aarhus University,            Denmark     (CC module)
  Asger Halkier,            Aarhus University,            Denmark     (CC module)
  Frederik Beyer Hansen,    University of Copenhagen,     Denmark     (Parallel AO-SOPPA)
  Erik D. Hedegaard,        Univ. of Southern Denmark,    Denmark     (Polarizable embedding model, QM/MM)
  Hanne Heiberg,            University of Oslo,           Norway      (geometry analysis, selected one-electron integrals)
  Trygve Helgaker,          University of Oslo,           Norway      (DALTON; ABACUS, ERI, DFT modules, London, and much more)
  Alf Christian Hennum,     University of Oslo,           Norway      (Parity violation)
  Hinne Hettema,            University of Auckland,       New Zealand (quadratic response in RESPONS; SIRIUS supersymmetry)
  Eirik Hjertenaes,         NTNU,                         Norway      (Cholesky decomposition)
  Pi A. B. Haase,           University of Copenhagen,     Denmark     (Triplet AO-SOPPA)
  Maria Francesca Iozzi,    University of Oslo,           Norway      (RPA)
  Brano Jansik              Technical Univ. of Ostrava    Czech Rep.  (DFT cubic response)
  Hans Joergen Aa. Jensen,  Univ. of Southern Denmark,    Denmark     (DALTON; SIRIUS, RESPONS, ABACUS modules, London, and much more)
  Dan Jonsson,              UiT The Arctic U. of Norway,  Norway      (cubic response in RESPONS module)
  Poul Joergensen,          Aarhus University,            Denmark     (RESPONS, ABACUS, and CC modules)
  Maciej Kaminski,          University of Warsaw,         Poland      (CPPh in RESPONS)
  Joanna Kauczor,           Linkoeping University,        Sweden      (Complex polarization propagator (CPP) module)
  Sheela Kirpekar,          Univ. of Southern Denmark,    Denmark     (Mass-velocity & Darwin integrals)
  Wim Klopper,              KIT Karlsruhe,                Germany     (R12 code in CC, SIRIUS, and ABACUS modules)
  Stefan Knecht,            ETH Zurich,                   Switzerland (Parallel CI and MCSCF)
  Rika Kobayashi,           Australian National Univ.,    Australia   (DIIS in CC, London in MCSCF)
  Henrik Koch,              NTNU,                         Norway      (CC module, Cholesky decomposition)
  Jacob Kongsted,           Univ. of Southern Denmark,    Denmark     (Polarizable embedding model, QM/MM)
  Andrea Ligabue,           University of Modena,         Italy       (CTOCD, AOSOPPA)
  Nanna H. List             Univ. of Southern Denmark,    Denmark     (Polarizable embedding model)
  Ola B. Lutnaes,           University of Oslo,           Norway      (DFT Hessian)
  Juan I. Melo,             University of Buenos Aires,   Argentina   (LRESC, Relativistic Effects on NMR Shieldings)
  Kurt V. Mikkelsen,        University of Copenhagen,     Denmark     (MC-SCRF and QM/MM)
  Rolf H. Myhre,            NTNU,                         Norway      (Cholesky, subsystems and ECC2)
  Christian Neiss,          Univ. Erlangen-Nuernberg,     Germany     (CCSD(R12))
  Christian B. Nielsen,     University of Copenhagen,     Denmark     (QM/MM)
  Patrick Norman,           Linkoeping University,        Sweden      (Cubic response and complex frequency response in RESPONS)
  Jeppe Olsen,              Aarhus University,            Denmark     (SIRIUS CI/density modules)
  Jogvan Magnus H. Olsen,   Univ. of Southern Denmark,    Denmark     (Polarizable embedding model, QM/MM)
  Anders Osted,             Copenhagen University,        Denmark     (QM/MM)
  Martin J. Packer,         University of Sheffield,      UK          (SOPPA)
  Filip Pawlowski,          Kazimierz Wielki University,  Poland      (CC3)
  Morten N. Pedersen,       Univ. of Southern Denmark,    Denmark     (Polarizable embedding model)
  Thomas B. Pedersen,       University of Oslo,           Norway      (Cholesky decomposition)
  Patricio F. Provasi,      University of Northeastern,   Argentina   (Analysis of coupling constants in localized orbitals)
  Zilvinas Rinkevicius,     KTH Stockholm,                Sweden      (open-shell DFT, ESR)
  Elias Rudberg,            KTH Stockholm,                Sweden      (DFT grid and basis info)
  Torgeir A. Ruden,         University of Oslo,           Norway      (Numerical derivatives in ABACUS)
  Kenneth Ruud,             UiT The Arctic U. of Norway,  Norway      (DALTON; ABACUS magnetic properties and much more)
  Pawel Salek,              KTH Stockholm,                Sweden      (DALTON; DFT code)
  Claire C. M. Samson       University of Karlsruhe       Germany     (Boys localization, r12 integrals in ERI)
  Alfredo Sanchez de Meras, University of Valencia,       Spain       (CC module, Cholesky decomposition)
  Trond Saue,               Paul Sabatier University,     France      (direct Fock matrix construction)
  Stephan P. A. Sauer,      University of Copenhagen,     Denmark     (SOPPA(CCSD), SOPPA prop., AOSOPPA, vibrational g-factors)
  Bernd Schimmelpfennig,    Forschungszentrum Karlsruhe,  Germany     (AMFI module)
  Kristian Sneskov,         Aarhus University,            Denmark     (Polarizable embedding model, QM/MM)
  Arnfinn H. Steindal,      UiT The Arctic U. of Norway,  Norway      (parallel QM/MM, Polarizable embedding model)
  Casper Steinmann,         Univ. of Southern Denmark,    Denmark     (QFIT, Polarizable embedding model)
  K. O. Sylvester-Hvid,     University of Copenhagen,     Denmark     (MC-SCRF)
  Peter R. Taylor,          VLSCI/Univ. of Melbourne,     Australia   (Symmetry handling ABACUS, integral transformation)
  Andrew M. Teale,          University of Nottingham,     England     (DFT-AC, DFT-D)
  David P. Tew,             University of Bristol,        England     (CCSD(R12))
  Olav Vahtras,             KTH Stockholm,                Sweden      (triplet response, spin-orbit, ESR, TDDFT, open-shell DFT)
  David J. Wilson,          La Trobe University,          Australia   (DFT Hessian and DFT magnetizabilities)
  Hans Agren,               KTH Stockholm,                Sweden      (SIRIUS module, RESPONS, MC-SCRF solvation model)
 --------------------------------------------------------------------------------

     Date and time (Linux)  : Thu Jun 14 12:36:48 2018
     Host name              : n-62-29-12                              

 * Work memory size             :   512000000 =  3.815 gigabytes.

 * Directories for basis set searches:
   1) /zhome/37/3/129401/NH3NH4/CCSD/AIMD_SAMPLING/nh4_4h2o
   2) /zhome/d7/7/119775/My_Codes/dalton-private/build2016/basis


Compilation information
-----------------------

 Who compiled             | soco
 Host                     | hpclogin1
 System                   | Linux-2.6.32-696.20.1.el6.x86_64
 CMake generator          | Unix Makefiles
 Processor                | x86_64
 64-bit integers          | ON
 MPI                      | OFF
 Fortran compiler         | /opt/intel/2016update2/compilers_and_libraries_201
                          | 6.2.181/linux/bin/intel64/ifort
 Fortran compiler version | ifort (IFORT) 16.0.2 20160204
 C compiler               | /opt/intel/2016update2/compilers_and_libraries_201
                          | 6.2.181/linux/bin/intel64/icc
 C compiler version       | icc (ICC) 16.0.2 20160204
 C++ compiler             | /opt/intel/2016update2/compilers_and_libraries_201
                          | 6.2.181/linux/bin/intel64/icpc
 C++ compiler version     | icpc (ICC) 16.0.2 20160204
 Static linking           | OFF
 Last Git revision        | ed040e3212b88786272871181646ac7f3e590142
 Git branch               | cvs
 Configuration time       | 2018-06-12 16:14:52.545968


   Content of the .dal input file
 ----------------------------------

**DALTON
.RUN WAVE FUNCTIONS
*QMMM
.QMMM
**INTEGRALS
.DIPLEN
**WAVE FUNCTIONS
.CC
*PRINT
!To check the origin of excit
.PRINTL
   0 11
*SCF INP
.THRESH
1.0D-7
*ORBITAL INPUT
.MOSTART
 NEWORB
*CC INP
.RESTART
.CCSD
.THRLEQ
 1.0D-9
.THRENR
 1.0D-10
.FROIMP
4
0
.PRINT
 1
.MAX IT
 1200
.MAXRED
 1200
.MXLRV
1199
*CCSLV
.CCMM
.MXSLIT
200
.MXINIT
4 5
*CCEXCI
.NCCEXC
 30
.CVSEPARA
1
1
*CCLRSD
.DIPOLE
**END OF DALTON INPUT


   Content of the .mol file
 ----------------------------

ATOMBASIS


Atomtypes=4 Charge=1 Nosymm Angstrom
   7.00000    1    Basis=6-311++G**
N          0.000000        0.000000        0.000000
   1.00000    4    Basis=6-311++G**
H         -0.112056        0.826728       -0.621615
H          0.861780       -0.386913       -0.433710
H         -0.830681       -0.681981        0.014581
H          0.326220        0.231556        0.925057
   8.00000    4    Basis=6-31G**
O          0.232816        2.105672       -1.793888
O         -2.413538       -1.137317       -0.152441
O          2.309668       -0.154431        1.652299
O          2.255505       -1.317352       -1.498130
   1.00000    8    Basis=6-31G**
H         -0.261784        2.028034       -2.700384
H          1.198413        2.216169       -2.069678
H         -2.512175       -2.113269       -0.337352
H         -3.091959       -0.666527        0.410825
H          2.707529        0.669763        1.328129
H          2.328645        0.007792        2.619872
H          2.387514       -2.270762       -1.217689
H          3.119135       -0.823974       -1.305614


       *******************************************************************
       *********** Output from DALTON general input processing ***********
       *******************************************************************

 --------------------------------------------------------------------------------
   Overall default print level:    0
   Print level for DALTON.STAT:    1

    HERMIT 1- and 2-electron integral sections will be executed
    "Old" integral transformation used (limited to max 255 basis functions)
    Wave function sections will be executed (SIRIUS module)
 --------------------------------------------------------------------------------


 Changes of defaults for *QMMM  :
 --------------------------------

 +------------------+
 |  WORD: | CHANGE: |
 +------------------+
 |   QMMM |       T |
 +------------------+
 


   ****************************************************************************
   *************** Output of molecule and basis set information ***************
   ****************************************************************************


    The two title cards from your ".mol" input:
    ------------------------------------------------------------------------
 1:                                                                         
 2:                                                                         
    ------------------------------------------------------------------------

  Coordinates are entered in Angstrom and converted to atomic units.
          - Conversion factor : 1 bohr = 0.52917721 A

  Atomic type no.    1
  --------------------
  Nuclear charge:   7.00000
  Number of symmetry independent centers:    1
  Number of basis sets to read;    1
  The basis set is "6-311++G**" from the basis set library.
  Basis set file used for this atomic type with Z =   7 :
     "/zhome/d7/7/119775/My_Codes/dalton-private/build2016/basis/6-311++G**"

  Info about the basis set file: your basis has no documentation.
  Basis set: 6-311++G**                                                                      

  Atomic type no.    2
  --------------------
  Nuclear charge:   1.00000
  Number of symmetry independent centers:    4
  Number of basis sets to read;    1
  The basis set is "6-311++G**" from the basis set library.
  Basis set file used for this atomic type with Z =   1 :
     "/zhome/d7/7/119775/My_Codes/dalton-private/build2016/basis/6-311++G**"

  Info about the basis set file: your basis has no documentation.
  Basis set: 6-311++G**                                                                      

  Atomic type no.    3
  --------------------
  Nuclear charge:   8.00000
  Number of symmetry independent centers:    4
  Number of basis sets to read;    1
  The basis set is "6-31G**" from the basis set library.
  Basis set file used for this atomic type with Z =   8 :
     "/zhome/d7/7/119775/My_Codes/dalton-private/build2016/basis/6-31G**"

  Info about the basis set file: your basis has no documentation.
  Basis set: 6-31G**                                                                         

  Atomic type no.    4
  --------------------
  Nuclear charge:   1.00000
  Number of symmetry independent centers:    8
  Number of basis sets to read;    1
  The basis set is "6-31G**" from the basis set library.
  Basis set file used for this atomic type with Z =   1 :
     "/zhome/d7/7/119775/My_Codes/dalton-private/build2016/basis/6-31G**"

  Info about the basis set file: your basis has no documentation.
  Basis set: 6-31G**                                                                         


                         SYMGRP: Point group information
                         -------------------------------

@    Point group: C1 


                                 Isotopic Masses
                                 ---------------

                           N          14.003074
                           H           1.007825
                           H           1.007825
                           H           1.007825
                           H           1.007825
                           O          15.994915
                           O          15.994915
                           O          15.994915
                           O          15.994915
                           H           1.007825
                           H           1.007825
                           H           1.007825
                           H           1.007825
                           H           1.007825
                           H           1.007825
                           H           1.007825
                           H           1.007825

                       Total mass:    90.076634 amu
                       Natural abundance:  98.500 %

 Center-of-mass coordinates (a.u.):    0.929533   -0.189299   -0.673000


  Atoms and basis sets
  --------------------

  Number of atom types :    4
  Total number of atoms:   17

  label    atoms   charge   prim   cont     basis
  ----------------------------------------------------------------------
  N           1    7.0000    35    22      [12s6p1d|5s4p1d]                                   
  H           4    1.0000     9     7      [6s1p|4s1p]                                        
  O           4    8.0000    27    14      [10s4p1d|3s2p1d]                                   
  H           8    1.0000     7     5      [4s1p|2s1p]                                        
  ----------------------------------------------------------------------
  total:     17   51.0000   235   146
  ----------------------------------------------------------------------
  Spherical harmonic basis used.

  Threshold for neglecting AO integrals:  1.00D-12


  Cartesian Coordinates (a.u.)
  ----------------------------

  Total number of coordinates:   51
  N       :     1  x   0.0000000000    2  y   0.0000000000    3  z   0.0000000000
  H       :     4  x  -0.2117551507    5  y   1.5622894999    6  z  -1.1746821052
  H       :     7  x   1.6285281800    8  y  -0.7311596042    9  z  -0.8195931177
  H       :    10  x  -1.5697595872   11  y  -1.2887573124   12  z   0.0275540966
  H       :    13  x   0.6164664565   14  y   0.4375774226   15  z   1.7481043800
  O       :    16  x   0.4399584775   17  y   3.9791433891   18  z  -3.3899570189
  O       :    19  x  -4.5609258123   20  y  -2.1492176473   21  z  -0.2880717402
  O       :    22  x   4.3646399597   23  y  -0.2918322952   24  z   3.1223925866
  O       :    25  x   4.2622867236   26  y  -2.4894344902   27  z  -2.8310553996
  H       :    28  x  -0.4947000639   29  y   3.8324288322   30  z  -5.1029861923
  H       :    31  x   2.2646723546   32  y   4.1879524567   33  z  -3.9111245869
  H       :    34  x  -4.7473227281   35  y  -3.9934996384   36  z  -0.6375028877
  H       :    37  x  -5.8429556997   38  y  -1.2595534849   39  z   0.7763467353
  H       :    40  x   5.1164882855   41  y   1.2656686387   42  z   2.5098000687
  H       :    43  x   4.4005012923   44  y   0.0147247460   45  z   4.9508405625
  H       :    46  x   4.5117475796   47  y  -4.2911182750   48  z  -2.3010987154
  H       :    49  x   5.8943108969   50  y  -1.5570851941   51  z  -2.4672528850

  Max    interatomic separation is    6.4458 Angstrom (   12.1808 Bohr)
  between atoms   17 and   13, "H     " and "H     ".

  Min HX interatomic separation is    0.9709 Angstrom (    1.8348 Bohr)

  Min YX interatomic separation is    2.6724 Angstrom (    5.0502 Bohr)


  Bond distances (Angstrom):
  --------------------------

                  atom 1     atom 2       distance
                  ------     ------       --------
  bond distance:  H          N            1.040404
  bond distance:  H          N            1.039457
  bond distance:  H          N            1.074868
  bond distance:  H          N            1.007853
  bond distance:  H          O            1.035564
  bond distance:  H          O            1.010271
  bond distance:  H          O            0.998200
  bond distance:  H          O            0.999583
  bond distance:  H          O            0.970915
  bond distance:  H          O            0.981261
  bond distance:  H          O            1.002529
  bond distance:  H          O            1.013085


  Bond angles (degrees):
  ----------------------

                  atom 1     atom 2     atom 3         angle
                  ------     ------     ------         -----
  bond angle:     H          N          H             97.804
  bond angle:     H          N          H            115.407
  bond angle:     H          N          H            113.621
  bond angle:     H          N          H            114.218
  bond angle:     H          N          H            101.545
  bond angle:     H          N          H            112.549
  bond angle:     H          O          H            103.046
  bond angle:     H          O          H            119.855
  bond angle:     H          O          H            100.426
  bond angle:     H          O          H            107.322




 Principal moments of inertia (u*A**2) and principal axes
 --------------------------------------------------------

   IA     282.370064          0.988279    0.003964    0.152606
   IB     392.125874         -0.105994   -0.701597    0.704646
   IC     470.084327         -0.109861    0.712563    0.692954


 Rotational constants
 --------------------

               A                   B                   C

           1789.7754           1288.8183           1075.0816 MHz
            0.059700            0.042990            0.035861 cm-1


@  Nuclear repulsion energy :  203.429446796516 Hartree


                     .---------------------------------------.
                     | Starting in Integral Section (HERMIT) |
                     `---------------------------------------'



 ***************************************************************************************
 ****************** Output from **INTEGRALS input processing (HERMIT) ******************
 ***************************************************************************************



    *************************************************************************
    ****************** Output from HERMIT input processing ******************
    *************************************************************************


 Default print level:        1

 * Nuclear model: Point charge

 Calculation of one- and two-electron Hamiltonian integrals.

 The following one-electron property integrals are calculated as requested:
          - overlap integrals
          - dipole length integrals

 Center of mass  (bohr):      0.929532560839     -0.189298777579     -0.672999514538
 Operator center (bohr):      0.000000000000      0.000000000000      0.000000000000
 Gauge origin    (bohr):      0.000000000000      0.000000000000      0.000000000000
 Dipole origin   (bohr):      0.000000000000      0.000000000000      0.000000000000
 
  *********************************** 
  QMMM electrostatic potential: 
  Multipole order                                    0
  Isotropic polarization  
  *********************************** 
 
  ---------------- 
  QMMM information 
  ---------------- 
 
  MM coordinates in au 
  -------------------- 
     1    -11.035706      4.465071    -10.205377
     2    -11.916382      4.086975    -11.842764
     3     -9.310834      3.591513    -10.353341
     4      5.636431      3.905835     -4.728631
     5      6.518724      5.533014     -4.575295
     6      7.033657      2.687841     -4.197089
     7      7.530370      8.662505     -4.445477
     8      7.873043      9.543287     -2.739009
     9      9.209372      8.328983     -5.250092
    10    -11.455478     -7.098628    -10.163510
    11    -11.793469     -5.966918    -11.500541
    12    -12.555216     -6.218374     -8.734441
    13      5.393345      4.442126      0.954527
    14      6.871490      5.526035      1.278237
    15      5.546021      3.828757     -0.786279
    16    -11.425530      8.625657     -7.551204
    17    -11.296023      7.200117     -8.593479
    18    -11.535145      9.964163     -8.781523
    19     -1.615975     -9.612833      7.431571
    20     -2.479064    -10.872369      6.437539
    21     -3.047896     -8.968827      8.477474
    22      8.391686     -3.649715     10.304718
    23      7.124623     -3.740257     11.699187
    24      7.931288     -4.737872      8.792136
    25     10.314326    -10.609610      4.285821
    26     11.689007    -10.941146      3.023316
    27     10.731148    -11.996265      5.604085
    28      0.301680      5.163760     11.541629
    29      1.023742      6.559372     10.541486
    30      1.843449      4.265735     12.039957
    31     -8.174961      0.687318      2.076216
    32     -9.945587      0.388917      2.767317
    33     -7.015259      1.799480      3.109796
    34      7.963353    -10.832932    -10.005697
    35      9.264447     -9.723782    -10.440026
    36      7.457547    -10.345595     -8.248724
    37      3.140526     -3.354818     -8.176422
    38      2.373553     -5.134443     -7.906563
    39      3.378834     -2.758267     -6.349680
    40    -10.638068      1.234014     -3.254585
    41     -9.191295      0.576758     -4.221191
    42    -10.039255      2.412256     -2.086866
    43      9.769007     -4.438587     -6.024326
    44      8.170435     -5.346315     -5.618575
    45      9.103826     -2.759556     -6.540930
    46     10.422265      6.438907      2.257431
    47     11.210810      7.508636      0.934162
    48     10.700644      7.166571      3.886509
    49      7.596463      7.345794     11.577434
    50      6.934187      5.919731     12.328235
    51      8.170248      8.452280     12.867251
    52     -1.842884      7.367868      0.279625
    53     -0.141756      7.673180      1.160324
    54     -1.198128      6.420976     -1.351205
    55     10.137944      0.996919      2.656397
    56      9.861509      1.092156      4.483570
    57     10.300079      2.833983      2.021406
    58      2.055551     11.203631     -6.063715
    59      3.642052     10.392350     -5.795773
    60      0.809587      9.901313     -6.882124
    61     -9.200506     -5.087130      3.853669
    62    -10.393745     -5.002423      2.295244
    63     -8.540589     -3.419182      3.775002
    64     -0.197987     -5.300026      4.800893
    65      1.528813     -5.170105      4.327006
    66     -0.616844     -7.150215      4.983642
    67     -2.659147      2.384670      8.386593
    68     -2.207151      0.569648      8.074834
    69     -1.473189      3.070648      9.747980
    70     -7.622951     -9.143408     -5.539243
    71     -6.997937    -10.159232     -6.939668
    72     -7.460554     -7.459303     -6.233156
    73     -1.399508      8.515832     -8.414191
    74     -2.571964      7.458159     -7.367817
    75     -0.410942      7.620434     -9.779238
    76     10.878259     -5.745531     -0.432732
    77      9.222835     -5.300714      0.418582
    78     10.834170     -4.986528     -2.144079
    79     -3.620717     -7.722024    -10.964000
    80     -4.538606     -9.377651    -10.853187
    81     -1.982209     -7.722630     -9.971671
    82      5.791172     11.111285      1.551624
    83      7.108405     11.532806      2.730883
    84      5.244757     12.741974      0.826079
    85     -5.485775     -0.101614     -5.313428
    86     -5.972370     -1.710467     -6.263080
    87     -5.149802     -0.666043     -3.529128
    88      3.090250     -8.841133      9.582232
    89      1.504505     -8.854334      8.679253
    90      3.143871    -10.619170     10.042813
    91     -0.122681     -0.596142    -10.612991
    92     -1.328341     -1.474353    -11.695490
    93      1.176912     -1.890015     -9.754836
    94      3.291266      0.537854      8.523162
    95      2.216233      0.391763     10.102954
    96      4.500177     -0.947223      8.815939
    97     -4.709596      4.407998      4.189778
    98     -3.741711      3.662771      5.554334
    99     -3.610360      5.188302      2.859097
   100     -7.676580     -9.953371      1.873558
   101     -6.422259     -9.019557      1.018579
   102     -8.137743     -8.850219      3.283344
   103     -6.157614     10.873864    -10.193217
   104     -6.718574     10.084935    -11.847957
   105     -4.509693     10.190890     -9.586611
   106      7.149049     -7.014849      6.328700
   107      8.388555     -8.045082      5.505657
   108      5.782900     -8.208624      6.931965
   109     -7.488276      7.553893      9.472218
   110     -6.841171      6.064804     10.372025
   111     -6.388333      7.895229      8.065678
   112     -4.669827     -7.521189     -1.396338
   113     -3.288583     -8.773809     -1.686104
   114     -5.869493     -8.220959     -2.763728
   115      9.650077      0.836929      8.093536
   116     11.402830      0.132853      8.150359
   117      8.870456     -0.550678      8.903813
   118      6.065824     -4.774391      1.746685
   119      6.477324     -5.597809      3.362025
   120      5.559289     -2.995428      2.275946
   121      2.929525      8.806211      8.914210
   122      2.771983      8.773114      6.998115
   123      4.679570      8.287592      9.273243
   124      8.325907      0.216073     -1.963112
   125      8.657639      0.439182     -0.150624
   126      9.991742     -0.117617     -2.683477
   127     -6.342093      2.715357    -11.236487
   128     -5.184152      1.975346    -12.551336
   129     -5.172126      3.059253     -9.819811
   130     -9.532971     -3.156033      9.003171
   131     -7.809599     -2.689889      8.918540
   132     -9.775566     -3.884410      7.277607
   133      9.530127     -0.128932     -8.485433
   134     10.255264     -1.258765     -9.825612
   135     10.551223      1.493195     -8.595561
   136      2.480077      8.231176      3.513377
   137      3.698717      9.374130      2.502710
   138      3.144410      6.546113      3.192978
   139     -2.253553      2.804242     -7.505928
   140     -1.245180      1.555110     -8.420697
   141     -3.499142      1.692563     -6.523078
   142     -2.746477     -3.802439      9.324050
   143     -2.875553     -5.178736     10.659752
   144     -2.018558     -4.457117      7.674025
   145      1.226742     -7.968444     -9.080079
   146      1.966166     -9.441393     -7.997429
   147      2.116871     -8.196511    -10.698632
   148     -6.821492     -4.469830     -8.179411
   149     -5.701483     -5.714568     -9.007058
   150     -8.615808     -4.912768     -8.698196
   151      5.186113      3.188240     -9.829329
   152      5.151382      3.327883     -7.953867
   153      6.317364      1.824920    -10.252484
   154     10.834061      8.645042      7.834111
   155     12.473207      8.317586      8.668418
   156      9.623090      8.031138      9.180907
   157      6.381581     -8.523086     -4.917392
   158      5.160324     -8.717227     -3.574190
   159      7.916439     -9.599552     -4.526695
   160      3.158666     -8.531864     -0.792808
   161      3.193705     -7.090659      0.375175
   162      1.619552     -9.414476     -0.900180
   163     11.366111    -10.500282     -3.520059
   164     12.734774    -10.169293     -4.796180
   165     11.411512     -9.102805     -2.239730
   166     -5.928441      8.286396     -5.119234
   167     -5.436752      8.240687     -3.411277
   168     -7.784895      8.762324     -5.069687
   169     -4.625796      9.834575      5.551242
   170     -4.089949      8.321555      4.691929
   171     -5.585078     10.821343      4.291593
   172     -9.987461      9.206912     -0.809419
   173    -11.132685     10.253076     -1.732730
   174     -8.972565     10.479901      0.146529
   175     -1.059656    -11.375074     -2.028190
   176     -1.336040    -12.952264     -1.113874
   177     -0.466640    -11.887526     -3.681655
 
  MM charges 
  ---------- 
     1     -0.674440
     2      0.337220
     3      0.337220
     4     -0.674440
     5      0.337220
     6      0.337220
     7     -0.674440
     8      0.337220
     9      0.337220
    10     -0.674440
    11      0.337220
    12      0.337220
    13     -0.674440
    14      0.337220
    15      0.337220
    16     -0.674440
    17      0.337220
    18      0.337220
    19     -0.674440
    20      0.337220
    21      0.337220
    22     -0.674440
    23      0.337220
    24      0.337220
    25     -0.674440
    26      0.337220
    27      0.337220
    28     -0.674440
    29      0.337220
    30      0.337220
    31     -0.674440
    32      0.337220
    33      0.337220
    34     -0.674440
    35      0.337220
    36      0.337220
    37     -0.674440
    38      0.337220
    39      0.337220
    40     -0.674440
    41      0.337220
    42      0.337220
    43     -0.674440
    44      0.337220
    45      0.337220
    46     -0.674440
    47      0.337220
    48      0.337220
    49     -0.674440
    50      0.337220
    51      0.337220
    52     -0.674440
    53      0.337220
    54      0.337220
    55     -0.674440
    56      0.337220
    57      0.337220
    58     -0.674440
    59      0.337220
    60      0.337220
    61     -0.674440
    62      0.337220
    63      0.337220
    64     -0.674440
    65      0.337220
    66      0.337220
    67     -0.674440
    68      0.337220
    69      0.337220
    70     -0.674440
    71      0.337220
    72      0.337220
    73     -0.674440
    74      0.337220
    75      0.337220
    76     -0.674440
    77      0.337220
    78      0.337220
    79     -0.674440
    80      0.337220
    81      0.337220
    82     -0.674440
    83      0.337220
    84      0.337220
    85     -0.674440
    86      0.337220
    87      0.337220
    88     -0.674440
    89      0.337220
    90      0.337220
    91     -0.674440
    92      0.337220
    93      0.337220
    94     -0.674440
    95      0.337220
    96      0.337220
    97     -0.674440
    98      0.337220
    99      0.337220
   100     -0.674440
   101      0.337220
   102      0.337220
   103     -0.674440
   104      0.337220
   105      0.337220
   106     -0.674440
   107      0.337220
   108      0.337220
   109     -0.674440
   110      0.337220
   111      0.337220
   112     -0.674440
   113      0.337220
   114      0.337220
   115     -0.674440
   116      0.337220
   117      0.337220
   118     -0.674440
   119      0.337220
   120      0.337220
   121     -0.674440
   122      0.337220
   123      0.337220
   124     -0.674440
   125      0.337220
   126      0.337220
   127     -0.674440
   128      0.337220
   129      0.337220
   130     -0.674440
   131      0.337220
   132      0.337220
   133     -0.674440
   134      0.337220
   135      0.337220
   136     -0.674440
   137      0.337220
   138      0.337220
   139     -0.674440
   140      0.337220
   141      0.337220
   142     -0.674440
   143      0.337220
   144      0.337220
   145     -0.674440
   146      0.337220
   147      0.337220
   148     -0.674440
   149      0.337220
   150      0.337220
   151     -0.674440
   152      0.337220
   153      0.337220
   154     -0.674440
   155      0.337220
   156      0.337220
   157     -0.674440
   158      0.337220
   159      0.337220
   160     -0.674440
   161      0.337220
   162      0.337220
   163     -0.674440
   164      0.337220
   165      0.337220
   166     -0.674440
   167      0.337220
   168      0.337220
   169     -0.674440
   170      0.337220
   171      0.337220
   172     -0.674440
   173      0.337220
   174      0.337220
   175     -0.674440
   176      0.337220
   177      0.337220
 
  MM isotropic polarizabilities in au 
  ----------------------------------- 
     1      5.739350
     2      2.308390
     3      2.308390
     4      5.739350
     5      2.308390
     6      2.308390
     7      5.739350
     8      2.308390
     9      2.308390
    10      5.739350
    11      2.308390
    12      2.308390
    13      5.739350
    14      2.308390
    15      2.308390
    16      5.739350
    17      2.308390
    18      2.308390
    19      5.739350
    20      2.308390
    21      2.308390
    22      5.739350
    23      2.308390
    24      2.308390
    25      5.739350
    26      2.308390
    27      2.308390
    28      5.739350
    29      2.308390
    30      2.308390
    31      5.739350
    32      2.308390
    33      2.308390
    34      5.739350
    35      2.308390
    36      2.308390
    37      5.739350
    38      2.308390
    39      2.308390
    40      5.739350
    41      2.308390
    42      2.308390
    43      5.739350
    44      2.308390
    45      2.308390
    46      5.739350
    47      2.308390
    48      2.308390
    49      5.739350
    50      2.308390
    51      2.308390
    52      5.739350
    53      2.308390
    54      2.308390
    55      5.739350
    56      2.308390
    57      2.308390
    58      5.739350
    59      2.308390
    60      2.308390
    61      5.739350
    62      2.308390
    63      2.308390
    64      5.739350
    65      2.308390
    66      2.308390
    67      5.739350
    68      2.308390
    69      2.308390
    70      5.739350
    71      2.308390
    72      2.308390
    73      5.739350
    74      2.308390
    75      2.308390
    76      5.739350
    77      2.308390
    78      2.308390
    79      5.739350
    80      2.308390
    81      2.308390
    82      5.739350
    83      2.308390
    84      2.308390
    85      5.739350
    86      2.308390
    87      2.308390
    88      5.739350
    89      2.308390
    90      2.308390
    91      5.739350
    92      2.308390
    93      2.308390
    94      5.739350
    95      2.308390
    96      2.308390
    97      5.739350
    98      2.308390
    99      2.308390
   100      5.739350
   101      2.308390
   102      2.308390
   103      5.739350
   104      2.308390
   105      2.308390
   106      5.739350
   107      2.308390
   108      2.308390
   109      5.739350
   110      2.308390
   111      2.308390
   112      5.739350
   113      2.308390
   114      2.308390
   115      5.739350
   116      2.308390
   117      2.308390
   118      5.739350
   119      2.308390
   120      2.308390
   121      5.739350
   122      2.308390
   123      2.308390
   124      5.739350
   125      2.308390
   126      2.308390
   127      5.739350
   128      2.308390
   129      2.308390
   130      5.739350
   131      2.308390
   132      2.308390
   133      5.739350
   134      2.308390
   135      2.308390
   136      5.739350
   137      2.308390
   138      2.308390
   139      5.739350
   140      2.308390
   141      2.308390
   142      5.739350
   143      2.308390
   144      2.308390
   145      5.739350
   146      2.308390
   147      2.308390
   148      5.739350
   149      2.308390
   150      2.308390
   151      5.739350
   152      2.308390
   153      2.308390
   154      5.739350
   155      2.308390
   156      2.308390
   157      5.739350
   158      2.308390
   159      2.308390
   160      5.739350
   161      2.308390
   162      2.308390
   163      5.739350
   164      2.308390
   165      2.308390
   166      5.739350
   167      2.308390
   168      2.308390
   169      5.739350
   170      2.308390
   171      2.308390
   172      5.739350
   173      2.308390
   174      2.308390
   175      5.739350
   176      2.308390
   177      2.308390


     ************************************************************************
     ************************** Output from HERINT **************************
     ************************************************************************



                      Nuclear contribution to dipole moments
                      --------------------------------------

                 au               Debye          C m (/(10**-30)

      x     47.61389660       121.02244589       403.68742661
      y     -9.43126026       -23.97187095       -79.96155443
      z    -33.49512722       -85.13611595      -283.98351485



 Threshold for neglecting two-electron integrals:  1.00D-12
 HERMIT - Number of two-electron integrals written:    32615476 ( 56.6% )
 HERMIT - Megabytes written:                            373.468

  Time used in TWOINT     is       6.24 seconds
  Total CPU  time used in HERMIT:   6.39 seconds
  Total wall time used in HERMIT:   6.98 seconds


                        .----------------------------------.
                        | End of Integral Section (HERMIT) |
                        `----------------------------------'



                   .--------------------------------------------.
                   | Starting in Wave Function Section (SIRIUS) |
                   `--------------------------------------------'

NCCEXCI for singlet:   30
 CCSD_INPUT: core-val requested
 Requested number of core orbs per sym
                     1
 Indices of requested core orbs
                     1
* Read MO coefficients from SIRIUS.RST with label "NEWORB  " and header info:  8Jun18  FOCKDIIS

 **********************************************************************
 *SIRIUS* a direct, restricted step, second order MCSCF program       *
 **********************************************************************

 
     Date and time (Linux)  : Thu Jun 14 12:36:56 2018
     Host name              : n-62-29-12                              

 Title lines from ".mol" input file:
                                                                             
                                                                             

 Print level on unit LUPRI =   2 is   0
 Print level on unit LUW4  =   2 is  11

@    (Integral direct) CC calculation.

@    This is a combination run starting with
@              a restricted, closed shell Hartree-Fock calculation


 Initial molecular orbitals are obtained according to
 ".MOSTART NEWORB" input option

@    QM part is embedded in an environment :

@         Model: QMMM

     Wave function specification
     ============================

     For the specification of the Coupled Cluster: see later.

@    Wave function type        --- CC ---
@    Number of closed shell electrons          50
@    Number of electrons in active shells       0
@    Total charge of the molecule               1

@    Spin multiplicity and 2 M_S                1         0
@    Total number of symmetries                 1 (point group: C1 )
@    Reference state symmetry                   1 (irrep name : A  )

     Orbital specifications
     ======================
@    Abelian symmetry species          All |    1
@                                          |  A  
                                       --- |  ---
@    Occupied SCF orbitals              25 |   25
@    Secondary orbitals                121 |  121
@    Total number of orbitals          146 |  146
@    Number of basis functions         146 |  146

     Optimization information
     ========================
@    Number of configurations                 1
@    Number of orbital rotations           3025
     ------------------------------------------
@    Total number of variables             3026

     Maximum number of Fock   iterations      0
     Maximum number of DIIS   iterations     60
     Maximum number of QC-SCF iterations     60
     Threshold for SCF convergence     1.00D-07


 Changes of defaults for CC:
 ---------------------------


 -Implicit frozen core calculation
 -Excitation energies calculated
 -One-photon absorption strengths will be calculated
 -Oscillator strengths calculated
  
* Read MO coefficients from SIRIUS.RST with label "NEWORB  " and header info: 14Jun18  REORTHO 


 ***********************************************
 ***** DIIS acceleration of SCF iterations *****
 ***********************************************

 C1-DIIS algorithm; max error vectors =    8
 -----------------------------------------------------------------------------

 *** DIIS iteration number    1
 RDSUPM called. NFMAT, ISYMDM(1:NFMAT)                     1
                     1

Calculating AOSUPINT
     (Precalculated AO two-electron integrals are transformed to P-supermatrix elements.
      Threshold for discarding integrals :  1.00D-12 )
  CPU  time used in FORMSUP    is   5.19 seconds
  WALL time used in FORMSUP    is   8.17 seconds

 ITDIIS, energy, error norm, change in energy, scr.thr., difden:
@ DIIS iter.   1    -361.109213859        6.94014D-08   -3.61D+02  -20    F

@ *** DIIS converged in   1 iterations !
@     Converged SCF energy, gradient:   -361.109213859192    6.94D-08
    - total time used in SIRFCK :              0.00 seconds


 *** SCF orbital energy analysis ***
    (incl. solvent contribution)

 Number of electrons :   50
 Orbital occupations :   25

 Sym       Hartree-Fock orbital energies

1 A     -20.68160017   -20.66330444   -20.65766289   -20.63826285   -15.70464709
         -1.45359900    -1.41770735    -1.41398585    -1.38522426    -1.32217606
         -0.81296371    -0.80580566    -0.80138581    -0.79707122    -0.77566542
         -0.76048006    -0.73298880    -0.70600452    -0.65952968    -0.64216521
         -0.63465801    -0.61939383    -0.59863210    -0.59343018    -0.56851060
         -0.00651779     0.02464645     0.03555942     0.05458601     0.14094898
          0.14853778     0.15196429     0.16442294     0.20739085     0.22418602
          0.24590469     0.24897091     0.25754409     0.27926813     0.28864211
          0.29540623     0.31243421     0.32269009     0.34464421     0.36410740
          0.53758353     0.54613900     0.56682918     0.78169448     0.85387021
          0.86174845     0.90057053     0.92267724     0.93243848     0.97759027
          0.99351914     1.00129347     1.00957619     1.03063426     1.05042952
          1.06536166     1.08788378     1.09870122     1.12619653     1.14426148
          1.15604578     1.19036132     1.21959796     1.22492564     1.26917150
          1.27704784     1.30937262     1.32427010     1.34278830     1.37014690
          1.51892842     1.52655428     1.58214896     1.61094649     1.63675025
          1.66325271     1.67954713     1.70496318     1.71013782     1.73172966
          1.73802968     1.74875958     1.75792878     1.76042828     1.77669483
          1.79378422     1.84897210     1.88359425     1.92141339     2.12647749
          2.15978900     2.21233782     2.25398212     2.36600811     2.37473528
          2.41142575     2.43079755     2.43700096     2.45386743     2.47974847
          2.48977780     2.50864590     2.59424173     2.62993518     2.63385378
          2.68170704     2.71933016     2.72735457     2.73334117     2.81171157
          2.81765846     2.83395201     2.83729895     2.84537251     2.85865259
          2.88624432     2.88915357     2.91896132     2.95615839     2.98228909
          2.98538331     3.15673026     3.19893942     3.20942834     3.22563214
          3.26107945     3.34159839     3.38874414     3.41333767     3.62172141
          3.64719971     3.65641464     3.73834510     3.74647051     3.78180998
          3.82234720     3.83706780     4.99313156     5.15486344     5.19874043
         36.94521767

    E(LUMO) :    -0.00651779 au (symmetry 1)
  - E(HOMO) :    -0.56851060 au (symmetry 1)
  ------------------------------------------
    gap     :     0.56199281 au

 Deviation from canonical Hartree-Fock orbitals :
 Largest off-diagonal Fock matrix element is  3.76D-09

 --- Writing SIRIFC interface file

 CPU and wall time for SCF :      16.623      20.075


                       .-----------------------------------.
                       | --- Final results from SIRIUS --- |
                       `-----------------------------------'


@    Spin multiplicity:           1
@    Spatial symmetry:            1 ( irrep  A   in C1  )
@    Total charge of molecule:    1

     QM/MM "QMMM" calculation converged :

     Charge contribution:         -0.160402887908
     Dipole contribution:          0.000000000000
     Quadrupole contribution:      0.000000000000
     Electronic Pol. energy:       0.826671936513
     Nuclear pol. energy:         -0.880470179306
     Multipole Pol. energy:       -0.204865654591
     Total QM/MM energy:          -0.419066785293

@    Final HF energy:            -361.109213859192                 
@    Nuclear repulsion:           203.429446796516
@    Electronic energy:          -564.119593870416

@    Final gradient norm:           0.000000069401

 
     Date and time (Linux)  : Thu Jun 14 12:37:16 2018
     Host name              : n-62-29-12                              

File label for MO orbitals:  14Jun18   FOCKDIIS

 Molecular orbitals for symmetry species 1  (A  )
 ------------------------------------------------

    Orbital         1        2        3        4        5        6        7
   1 N   :1s     0.0000   0.0000   0.0000   0.0000   0.5576   0.0043   0.0109
   2 N   :1s    -0.0000  -0.0000  -0.0000  -0.0000   0.4682   0.0071   0.0180
   3 N   :1s     0.0001   0.0004   0.0004   0.0005   0.0055  -0.0181  -0.0467
   4 N   :1s    -0.0012  -0.0026  -0.0022  -0.0023  -0.0015  -0.0156  -0.0396
   5 N   :1s    -0.0012  -0.0019  -0.0034  -0.0032  -0.0013   0.0139  -0.0165
   6 N   :2px    0.0000  -0.0001   0.0001   0.0000   0.0003  -0.0015   0.0021
   7 N   :2py   -0.0000   0.0000   0.0001  -0.0001   0.0000  -0.0001   0.0017
   8 N   :2pz    0.0000   0.0000  -0.0000   0.0000   0.0001  -0.0011   0.0002
   9 N   :2px   -0.0001   0.0003  -0.0003  -0.0001  -0.0001  -0.0023   0.0044
  10 N   :2py    0.0000  -0.0002  -0.0003   0.0004   0.0000  -0.0002   0.0035
  11 N   :2pz   -0.0001  -0.0002   0.0000  -0.0003  -0.0001  -0.0017   0.0001
  12 N   :2px   -0.0002  -0.0011   0.0007  -0.0001  -0.0000  -0.0030   0.0052
  13 N   :2py   -0.0000   0.0004   0.0008  -0.0009  -0.0000   0.0007   0.0053
  14 N   :2pz   -0.0004   0.0005  -0.0000   0.0007   0.0001  -0.0017   0.0000
  15 N   :2px   -0.0003  -0.0006  -0.0002   0.0004  -0.0001  -0.0014  -0.0061
  16 N   :2py   -0.0005   0.0001   0.0007  -0.0006   0.0000  -0.0028  -0.0048
  17 N   :2pz    0.0006  -0.0000  -0.0003   0.0002   0.0000   0.0061  -0.0002
  18 N   :3d2-  -0.0000  -0.0000   0.0001  -0.0001   0.0000  -0.0001  -0.0015
  20 N   :3d0   -0.0000  -0.0000  -0.0001  -0.0000  -0.0000  -0.0002   0.0008
  21 N   :3d1+  -0.0001  -0.0001  -0.0000   0.0000   0.0000  -0.0004   0.0000
  22 N   :3d2+  -0.0000   0.0000  -0.0001  -0.0001  -0.0000  -0.0003  -0.0007
  23 H   :1s     0.0000  -0.0001   0.0000  -0.0001   0.0002  -0.0024  -0.0064
  24 H   :1s    -0.0000   0.0007   0.0002   0.0004   0.0002  -0.0018  -0.0084
  25 H   :1s     0.0007  -0.0005  -0.0002   0.0045   0.0006  -0.0010   0.0085
  26 H   :1s     0.0005   0.0004   0.0000  -0.0003  -0.0000   0.0081   0.0036
  27 H   :2px   -0.0000   0.0001  -0.0000   0.0002   0.0000   0.0000  -0.0002
  28 H   :2py   -0.0000  -0.0001  -0.0001   0.0002  -0.0000   0.0005   0.0019
  29 H   :2pz    0.0000   0.0001   0.0000  -0.0003   0.0000  -0.0004  -0.0015
  30 H   :1s     0.0001  -0.0001  -0.0000   0.0000   0.0002  -0.0034  -0.0070
  31 H   :1s    -0.0002   0.0004   0.0005   0.0003   0.0002  -0.0058  -0.0062
  32 H   :1s     0.0013   0.0040   0.0005   0.0003   0.0007   0.0092   0.0051
  33 H   :1s     0.0003  -0.0007   0.0007  -0.0005   0.0001  -0.0103   0.0089
  34 H   :2px   -0.0000   0.0001  -0.0002  -0.0001  -0.0001   0.0002   0.0015
  35 H   :2py    0.0000  -0.0001   0.0000   0.0001   0.0000  -0.0003  -0.0010
  36 H   :2pz    0.0001  -0.0001   0.0001   0.0001   0.0000  -0.0009  -0.0008
  37 H   :1s    -0.0000  -0.0001  -0.0001  -0.0000   0.0002  -0.0023  -0.0168
  38 H   :1s     0.0004   0.0005   0.0006   0.0003   0.0001  -0.0004  -0.0147
  39 H   :1s    -0.0009  -0.0004   0.0044   0.0002   0.0006  -0.0094   0.0161
  40 H   :1s     0.0002   0.0002  -0.0009   0.0004  -0.0000   0.0064  -0.0314
  41 H   :2px    0.0001   0.0002  -0.0005   0.0001   0.0000  -0.0004   0.0008
  42 H   :2py    0.0000   0.0000  -0.0000   0.0001   0.0000  -0.0004   0.0001
  43 H   :2pz    0.0000  -0.0000  -0.0001  -0.0000  -0.0000   0.0000   0.0001
  44 H   :1s    -0.0001  -0.0000   0.0000  -0.0000   0.0003  -0.0062  -0.0069
  45 H   :1s     0.0004   0.0006   0.0003   0.0005   0.0002  -0.0056  -0.0064
  46 H   :1s     0.0014   0.0003   0.0005   0.0002   0.0005  -0.0018   0.0056
  47 H   :1s    -0.0011   0.0003   0.0005   0.0006   0.0000  -0.0173   0.0106
  48 H   :2px    0.0001   0.0000  -0.0001  -0.0000  -0.0000  -0.0000   0.0006
  49 H   :2py   -0.0001  -0.0001  -0.0001   0.0000  -0.0000   0.0002   0.0002
  50 H   :2pz   -0.0002  -0.0002  -0.0001  -0.0002  -0.0001   0.0006   0.0019
  51 O   :1s    -0.0000   0.0000  -0.0000   0.9958   0.0000   0.0009   0.0046
  52 O   :1s    -0.0000   0.0000  -0.0000   0.0220   0.0000  -0.0019  -0.0101
  53 O   :1s     0.0000   0.0000   0.0001  -0.0069  -0.0001  -0.0018  -0.0101
  54 O   :2px    0.0000   0.0000  -0.0000   0.0006  -0.0000  -0.0001  -0.0005
  55 O   :2py   -0.0000  -0.0000   0.0000  -0.0001   0.0000   0.0002   0.0005
  56 O   :2pz   -0.0000  -0.0000  -0.0000  -0.0012   0.0000  -0.0000   0.0007
  57 O   :2px   -0.0000  -0.0000   0.0000  -0.0001   0.0000  -0.0002   0.0002
  58 O   :2py    0.0000   0.0001  -0.0000   0.0007   0.0001  -0.0002   0.0003
  59 O   :2pz   -0.0000   0.0000   0.0000   0.0002  -0.0001   0.0004   0.0002
  61 O   :3d1-   0.0000   0.0000   0.0000   0.0001   0.0000   0.0000   0.0000
  64 O   :3d2+   0.0000   0.0000   0.0000   0.0003   0.0000  -0.0000   0.0000
  65 O   :1s    -0.0001  -0.0001   0.9957   0.0000   0.0000   0.0016   0.2137
  66 O   :1s    -0.0000  -0.0000   0.0222  -0.0000   0.0000  -0.0037  -0.4692
  67 O   :1s     0.0001   0.0001  -0.0070   0.0000  -0.0001  -0.0024  -0.4827
  68 O   :2px   -0.0000  -0.0000  -0.0008  -0.0000  -0.0000  -0.0000   0.0373
  69 O   :2py   -0.0000   0.0000  -0.0007  -0.0000  -0.0000   0.0001   0.0272
  70 O   :2pz    0.0000  -0.0000   0.0006   0.0000   0.0000  -0.0002  -0.0204
  71 O   :2px    0.0001   0.0000  -0.0005   0.0001  -0.0001   0.0004   0.0096
  72 O   :2py    0.0000  -0.0000   0.0002   0.0000   0.0000  -0.0001   0.0109
  73 O   :2pz   -0.0000   0.0000  -0.0004  -0.0000  -0.0000   0.0001  -0.0069
  74 O   :3d2-  -0.0000  -0.0000  -0.0002  -0.0000  -0.0000  -0.0000  -0.0007
  75 O   :3d1-  -0.0000  -0.0000   0.0003   0.0000  -0.0000   0.0000  -0.0019
  76 O   :3d0    0.0000   0.0000  -0.0001   0.0000   0.0000   0.0000   0.0024
  77 O   :3d1+  -0.0000  -0.0000  -0.0002   0.0000  -0.0000  -0.0000   0.0017
  78 O   :3d2+  -0.0000  -0.0000  -0.0003  -0.0000  -0.0000  -0.0001  -0.0004
  79 O   :1s     0.9957  -0.0001   0.0001   0.0000   0.0000   0.2136  -0.0032
  80 O   :1s     0.0220   0.0001  -0.0000  -0.0000   0.0000  -0.4713   0.0070
  81 O   :1s    -0.0063  -0.0001   0.0001   0.0001  -0.0000  -0.4636   0.0081
  82 O   :2px    0.0006  -0.0000   0.0000  -0.0000   0.0000  -0.0279   0.0009
  83 O   :2py    0.0014  -0.0000   0.0000  -0.0000   0.0000  -0.0597   0.0010
  84 O   :2pz    0.0009  -0.0001   0.0000  -0.0000   0.0000  -0.0374   0.0009
  85 O   :2px   -0.0001   0.0001  -0.0001   0.0000   0.0000  -0.0122   0.0003
  86 O   :2py   -0.0008   0.0000  -0.0001   0.0000  -0.0000  -0.0167   0.0007
  87 O   :2pz   -0.0004   0.0003  -0.0000   0.0000   0.0000  -0.0124   0.0006
  88 O   :3d2-   0.0002  -0.0000   0.0000   0.0000   0.0000  -0.0006   0.0001
  89 O   :3d1-  -0.0001   0.0000   0.0000  -0.0000   0.0000  -0.0014   0.0000
  90 O   :3d0    0.0002   0.0000   0.0000   0.0000   0.0000  -0.0002   0.0000
  91 O   :3d1+  -0.0001  -0.0000   0.0000  -0.0000  -0.0000  -0.0004  -0.0000
  92 O   :3d2+  -0.0002   0.0000   0.0000  -0.0000  -0.0000   0.0030  -0.0001
  93 O   :1s     0.0001   0.9957   0.0001  -0.0000   0.0000   0.0054   0.0209
  94 O   :1s     0.0001   0.0219  -0.0000   0.0000   0.0000  -0.0112  -0.0464
  95 O   :1s    -0.0001  -0.0067   0.0001  -0.0000  -0.0001  -0.0133  -0.0462
  96 O   :2px   -0.0000   0.0012   0.0000  -0.0000  -0.0000  -0.0012  -0.0049
  97 O   :2py    0.0000  -0.0006  -0.0000   0.0000   0.0000   0.0004   0.0027
  98 O   :2pz    0.0000   0.0007  -0.0000   0.0000   0.0000  -0.0010  -0.0027
  99 O   :2px    0.0001  -0.0003  -0.0000  -0.0000   0.0001  -0.0002  -0.0018
 100 O   :2py   -0.0001  -0.0000   0.0000  -0.0001  -0.0000   0.0000   0.0012
 101 O   :2pz   -0.0001  -0.0008   0.0000  -0.0000  -0.0000  -0.0022  -0.0010
 102 O   :3d2-   0.0000   0.0002   0.0000  -0.0000   0.0000  -0.0000   0.0000
 103 O   :3d1-  -0.0000  -0.0001  -0.0000  -0.0000  -0.0000  -0.0001   0.0000
 104 O   :3d0   -0.0000  -0.0002   0.0000   0.0000   0.0000  -0.0000   0.0002
 105 O   :3d1+   0.0000   0.0001   0.0000   0.0000   0.0000  -0.0000  -0.0001
 106 O   :3d2+  -0.0000  -0.0001  -0.0000  -0.0000  -0.0000   0.0000   0.0000
 107 H   :1s     0.0000   0.0000  -0.0000   0.0000   0.0000  -0.0003  -0.0023
 108 H   :1s    -0.0000   0.0000   0.0000   0.0010  -0.0000  -0.0004   0.0005
 109 H   :2px   -0.0000   0.0000  -0.0000  -0.0004  -0.0000  -0.0000  -0.0003
 110 H   :2py   -0.0000  -0.0000  -0.0000  -0.0001  -0.0000  -0.0000  -0.0000
 111 H   :2pz   -0.0000  -0.0000   0.0000  -0.0007   0.0000  -0.0001  -0.0004
 112 H   :1s     0.0000   0.0000  -0.0000  -0.0002  -0.0000  -0.0006  -0.0025
 113 H   :1s    -0.0000  -0.0000  -0.0001   0.0010  -0.0000   0.0014  -0.0012
 114 H   :2px    0.0000   0.0000   0.0000   0.0009   0.0000   0.0000   0.0006
 116 H   :2pz    0.0000  -0.0000  -0.0000  -0.0003   0.0000  -0.0000  -0.0002
 117 H   :1s     0.0000  -0.0000  -0.0003   0.0000   0.0000  -0.0009  -0.1221
 118 H   :1s     0.0000   0.0000   0.0010  -0.0000  -0.0000  -0.0004   0.0012
 119 H   :2px   -0.0000   0.0000  -0.0001  -0.0000   0.0000  -0.0000  -0.0013
 120 H   :2py    0.0000   0.0000  -0.0010   0.0000   0.0000  -0.0002  -0.0233
 121 H   :2pz    0.0000  -0.0000  -0.0001  -0.0000   0.0000  -0.0001  -0.0049
 122 H   :1s    -0.0000   0.0000  -0.0004  -0.0000   0.0000  -0.0007  -0.1196
 123 H   :1s     0.0001  -0.0001   0.0010   0.0001  -0.0000  -0.0008   0.0018
 124 H   :2px    0.0000  -0.0000  -0.0007   0.0000   0.0000  -0.0002  -0.0159
 125 H   :2py   -0.0000   0.0000   0.0004   0.0000   0.0000   0.0001   0.0126
 126 H   :2pz   -0.0000   0.0000   0.0006  -0.0000   0.0000   0.0001   0.0128
 127 H   :1s    -0.0003   0.0001   0.0001  -0.0000   0.0000  -0.1365   0.0022
 128 H   :1s     0.0013  -0.0000  -0.0000   0.0000   0.0000  -0.0009  -0.0012
 129 H   :2px    0.0004  -0.0000  -0.0000  -0.0000  -0.0000   0.0101  -0.0001
 130 H   :2py    0.0009  -0.0000  -0.0000   0.0000  -0.0000   0.0216  -0.0003
 131 H   :2pz   -0.0003  -0.0000   0.0000  -0.0000   0.0000  -0.0109   0.0001
 132 H   :1s    -0.0003  -0.0001   0.0000  -0.0000   0.0000  -0.1334   0.0022
 133 H   :1s     0.0013  -0.0001  -0.0000  -0.0001  -0.0000  -0.0027  -0.0011
 134 H   :2px   -0.0000  -0.0000   0.0000  -0.0000  -0.0000  -0.0009   0.0001
 135 H   :2py    0.0002   0.0000   0.0000  -0.0000   0.0000   0.0024  -0.0000
 136 H   :2pz    0.0010   0.0000  -0.0000   0.0000  -0.0000   0.0256  -0.0003
 137 H   :1s     0.0000  -0.0002  -0.0000  -0.0000  -0.0000  -0.0029  -0.0126
 138 H   :1s    -0.0001   0.0011   0.0001   0.0000  -0.0000   0.0009  -0.0005
 139 H   :2px   -0.0000   0.0001  -0.0000   0.0000  -0.0000   0.0000   0.0002
 140 H   :2py   -0.0000  -0.0009   0.0000  -0.0000  -0.0000  -0.0004  -0.0023
 141 H   :2pz    0.0000   0.0003  -0.0000   0.0000   0.0000   0.0002   0.0006
 142 H   :1s    -0.0000  -0.0001   0.0000   0.0000   0.0000  -0.0029  -0.0114
 143 H   :1s    -0.0000   0.0011  -0.0001   0.0001  -0.0000   0.0007  -0.0016
 144 H   :2px   -0.0000   0.0007   0.0000  -0.0000  -0.0000   0.0005   0.0020
 145 H   :2py    0.0000   0.0004   0.0000   0.0000   0.0000   0.0003   0.0014
 146 H   :2pz   -0.0000   0.0002  -0.0000   0.0000   0.0000   0.0001   0.0004

    Orbital         8        9       10       11       12       13       14
   1 N   :1s    -0.0040   0.0131  -0.1084   0.0052   0.0011  -0.0002   0.0007
   2 N   :1s    -0.0065   0.0217  -0.1794   0.0089   0.0019  -0.0003   0.0013
   3 N   :1s     0.0166  -0.0568   0.4820  -0.0268  -0.0062   0.0012  -0.0042
   4 N   :1s     0.0148  -0.0449   0.3283  -0.0330  -0.0139  -0.0011  -0.0162
   5 N   :1s    -0.0192  -0.0177   0.1756   0.0204  -0.0070  -0.0068  -0.0315
   6 N   :2px    0.0021  -0.0012   0.0113   0.1488   0.0405  -0.0054   0.0735
   7 N   :2py   -0.0005  -0.0030   0.0030   0.0968  -0.0535   0.0164   0.0282
   8 N   :2pz   -0.0009   0.0021   0.0012  -0.0364   0.1814   0.0096   0.0652
   9 N   :2px    0.0022  -0.0020   0.0160   0.2407   0.0653  -0.0090   0.1181
  10 N   :2py    0.0002  -0.0041   0.0037   0.1571  -0.0860   0.0261   0.0464
  11 N   :2pz   -0.0006   0.0030   0.0014  -0.0583   0.2899   0.0152   0.1037
  12 N   :2px    0.0042  -0.0002   0.0031   0.1630   0.0435  -0.0071   0.0777
  13 N   :2py   -0.0018  -0.0062  -0.0004   0.1134  -0.0614   0.0197   0.0311
  14 N   :2pz   -0.0028   0.0045   0.0000  -0.0412   0.1936   0.0120   0.0718
  15 N   :2px   -0.0065  -0.0035   0.0142   0.0178   0.0062  -0.0172  -0.0042
  16 N   :2py    0.0036   0.0023   0.0003   0.0166  -0.0049   0.0049  -0.0077
  17 N   :2pz    0.0055  -0.0023  -0.0051  -0.0021   0.0106   0.0089   0.0019
  18 N   :3d2-  -0.0002  -0.0001   0.0012  -0.0155   0.0043   0.0001  -0.0043
  19 N   :3d1-  -0.0000   0.0010  -0.0008  -0.0016   0.0148  -0.0006   0.0050
  20 N   :3d0    0.0001  -0.0002   0.0012   0.0062   0.0106   0.0012   0.0082
  21 N   :3d1+  -0.0001  -0.0000   0.0003  -0.0023   0.0087   0.0011   0.0034
  22 N   :3d2+   0.0000   0.0005   0.0009  -0.0004   0.0071  -0.0005   0.0014
  23 H   :1s     0.0028  -0.0170   0.0716   0.0536  -0.1179   0.0065  -0.0204
  24 H   :1s     0.0008  -0.0168   0.0850   0.0661  -0.1579   0.0103  -0.0280
  25 H   :1s     0.0044   0.0183  -0.0626  -0.0098  -0.0000  -0.0000   0.0125
  26 H   :1s    -0.0052  -0.0246  -0.0068  -0.0006  -0.0045   0.0020  -0.0049
  27 H   :2px    0.0000  -0.0004   0.0029   0.0103  -0.0020  -0.0004   0.0036
  28 H   :2py   -0.0003   0.0015  -0.0194  -0.0053   0.0202  -0.0008   0.0053
  29 H   :2pz    0.0004  -0.0011   0.0152   0.0049  -0.0072   0.0015   0.0005
  30 H   :1s     0.0075  -0.0088   0.0765   0.0705  -0.0172  -0.0113   0.0136
  31 H   :1s     0.0074  -0.0099   0.0931   0.0996  -0.0218  -0.0180   0.0195
  32 H   :1s    -0.0002   0.0085  -0.0686   0.0005  -0.0069   0.0220   0.0121
  33 H   :1s     0.0360   0.0003  -0.0144   0.0015  -0.0028   0.0009  -0.0001
  34 H   :2px   -0.0008   0.0024  -0.0206  -0.0062   0.0070   0.0018  -0.0003
  35 H   :2py    0.0004  -0.0013   0.0099   0.0131  -0.0055  -0.0002   0.0031
  36 H   :2pz    0.0004  -0.0010   0.0107   0.0061   0.0100  -0.0007   0.0057
  37 H   :1s     0.0010  -0.0066   0.0628  -0.1390   0.0012  -0.0062  -0.0588
  38 H   :1s    -0.0002  -0.0067   0.0765  -0.1861   0.0011  -0.0059  -0.0784
  39 H   :1s     0.0053   0.0027  -0.0556  -0.0068   0.0023  -0.0109  -0.0145
  40 H   :1s    -0.0093   0.0088  -0.0024  -0.0008  -0.0000  -0.0075  -0.0050
  41 H   :2px    0.0005  -0.0020   0.0188  -0.0174   0.0028  -0.0015  -0.0061
  42 H   :2py    0.0005  -0.0013   0.0137  -0.0145  -0.0021   0.0011  -0.0065
  43 H   :2pz    0.0001  -0.0001  -0.0001  -0.0013   0.0093   0.0008   0.0034
  44 H   :1s     0.0027  -0.0089   0.0818   0.0223   0.1320   0.0089   0.0694
  45 H   :1s     0.0020  -0.0088   0.0949   0.0293   0.1803   0.0133   0.0952
  46 H   :1s     0.0004   0.0065  -0.0583  -0.0066   0.0162  -0.0033   0.0183
  47 H   :1s    -0.0066   0.0072  -0.0010  -0.0059   0.0070   0.0036   0.0194
  48 H   :2px   -0.0004   0.0009  -0.0083   0.0079  -0.0076  -0.0012  -0.0010
  49 H   :2py   -0.0000   0.0008  -0.0050   0.0040  -0.0098   0.0003  -0.0025
  50 H   :2pz   -0.0004   0.0022  -0.0229  -0.0071  -0.0178  -0.0014  -0.0109
  51 O   :1s    -0.0031   0.2133   0.0295   0.0013  -0.0012  -0.0001  -0.0001
  52 O   :1s     0.0067  -0.4711  -0.0662  -0.0028   0.0028   0.0003   0.0003
  53 O   :1s     0.0077  -0.4827  -0.0658  -0.0007  -0.0036   0.0005  -0.0015
  54 O   :2px    0.0004  -0.0292  -0.0056   0.0005   0.0330  -0.0026   0.0119
  55 O   :2py   -0.0003   0.0015  -0.0062  -0.0311   0.0637  -0.0022   0.0116
  56 O   :2pz   -0.0006   0.0549   0.0144   0.0462  -0.0760   0.0047  -0.0090
  57 O   :2px    0.0006  -0.0107  -0.0035  -0.0002   0.0205  -0.0014   0.0078
  58 O   :2py   -0.0002   0.0054  -0.0040  -0.0215   0.0434  -0.0020   0.0083
  59 O   :2pz   -0.0006   0.0193   0.0077   0.0296  -0.0510   0.0032  -0.0060
  60 O   :3d2-   0.0000  -0.0008  -0.0002  -0.0006   0.0006  -0.0000  -0.0000
  61 O   :3d1-  -0.0000   0.0011  -0.0001  -0.0001  -0.0001   0.0000  -0.0001
  62 O   :3d0    0.0000  -0.0024  -0.0005  -0.0015   0.0020  -0.0001   0.0001
  63 O   :3d1+  -0.0000   0.0008   0.0002   0.0003  -0.0013   0.0001  -0.0004
  64 O   :3d2+   0.0001  -0.0021  -0.0007  -0.0009   0.0024  -0.0001   0.0006
  65 O   :1s     0.0224  -0.0073   0.0228  -0.0009   0.0005  -0.0018   0.0007
  66 O   :1s    -0.0490   0.0161  -0.0513   0.0023  -0.0012   0.0046  -0.0019
  67 O   :1s    -0.0511   0.0170  -0.0505  -0.0075  -0.0027   0.0086  -0.0071
  68 O   :2px    0.0043  -0.0023   0.0148  -0.1601  -0.0109  -0.1753  -0.0641
  69 O   :2py    0.0030  -0.0014   0.0076  -0.0589  -0.0032   0.4179  -0.0696
  70 O   :2pz   -0.0021   0.0008  -0.0020   0.0049   0.0148   0.2198  -0.0115
  71 O   :2px    0.0011  -0.0008   0.0085  -0.1087  -0.0064  -0.1101  -0.0440
  72 O   :2py    0.0009  -0.0006   0.0032  -0.0377  -0.0025   0.2573  -0.0439
  73 O   :2pz   -0.0010  -0.0001  -0.0001   0.0027   0.0099   0.1382  -0.0071
  74 O   :3d2-  -0.0000  -0.0000   0.0002   0.0011  -0.0000  -0.0104   0.0016
  75 O   :3d1-  -0.0002   0.0001  -0.0003   0.0003  -0.0000   0.0021  -0.0001
  76 O   :3d0    0.0002  -0.0001   0.0001  -0.0009   0.0001   0.0074  -0.0012
  77 O   :3d1+   0.0002  -0.0001   0.0006  -0.0032  -0.0001  -0.0109  -0.0005
  78 O   :3d2+  -0.0000  -0.0001   0.0006  -0.0013   0.0003   0.0162  -0.0020
  79 O   :1s     0.0059  -0.0020   0.0098  -0.0001  -0.0011   0.0001  -0.0020
  80 O   :1s    -0.0134   0.0044  -0.0220   0.0000   0.0027  -0.0004   0.0042
  81 O   :1s    -0.0124   0.0043  -0.0210   0.0036   0.0099  -0.0001   0.0127
  82 O   :2px   -0.0010   0.0009  -0.0077   0.0158  -0.0233  -0.0111  -0.1557
  83 O   :2py   -0.0021   0.0006  -0.0032   0.0697   0.0628  -0.0160  -0.2216
  84 O   :2pz   -0.0018   0.0008  -0.0062  -0.1690  -0.1902   0.0333   0.3538
  85 O   :2px   -0.0006  -0.0000  -0.0040   0.0064  -0.0206  -0.0075  -0.0973
  86 O   :2py   -0.0001  -0.0003   0.0000   0.0430   0.0399  -0.0103  -0.1393
  87 O   :2pz   -0.0025   0.0002  -0.0035  -0.1058  -0.1189   0.0209   0.2177
  88 O   :3d2-   0.0001  -0.0000  -0.0001   0.0028   0.0017  -0.0010  -0.0119
  89 O   :3d1-  -0.0001   0.0000  -0.0001  -0.0053  -0.0059   0.0011   0.0108
  90 O   :3d0   -0.0000   0.0000   0.0001  -0.0082  -0.0092   0.0018   0.0205
  91 O   :3d1+  -0.0001  -0.0000   0.0001  -0.0022  -0.0032   0.0004   0.0047
  92 O   :3d2+   0.0000  -0.0000   0.0002  -0.0024  -0.0022   0.0006   0.0070
  93 O   :1s    -0.2135  -0.0052   0.0115   0.0005   0.0010  -0.0000  -0.0005
  94 O   :1s     0.4721   0.0116  -0.0259  -0.0012  -0.0029   0.0004   0.0016
  95 O   :1s     0.4767   0.0117  -0.0248   0.0021  -0.0039  -0.0016   0.0012
  96 O   :2px    0.0529   0.0019  -0.0074  -0.0167   0.0145   0.0058  -0.0129
  97 O   :2py   -0.0286  -0.0011   0.0042   0.0511  -0.0059  -0.0061  -0.0192
  98 O   :2pz    0.0261   0.0004   0.0010   0.0139   0.0043  -0.0027  -0.0007
  99 O   :2px    0.0219   0.0003  -0.0048  -0.0121   0.0090   0.0041  -0.0069
 100 O   :2py   -0.0125  -0.0007   0.0034   0.0324  -0.0037  -0.0040  -0.0122
 101 O   :2pz    0.0105  -0.0001   0.0014   0.0116   0.0045  -0.0030  -0.0027
 102 O   :3d2-  -0.0000  -0.0001   0.0001   0.0016  -0.0000  -0.0002  -0.0006
 103 O   :3d1-  -0.0003  -0.0000   0.0001   0.0013  -0.0001  -0.0002  -0.0007
 104 O   :3d0   -0.0024  -0.0000   0.0003   0.0011   0.0001  -0.0002  -0.0001
 105 O   :3d1+   0.0014   0.0000  -0.0001  -0.0000   0.0003   0.0001  -0.0003
 106 O   :3d2+  -0.0002  -0.0001   0.0000   0.0010   0.0001  -0.0001  -0.0011
 107 H   :1s     0.0015  -0.1118  -0.0178  -0.0186   0.0210  -0.0012   0.0003
 108 H   :1s    -0.0004   0.0008   0.0009  -0.0058   0.0065   0.0001   0.0009
 109 H   :2px    0.0001  -0.0128  -0.0020  -0.0016   0.0026  -0.0002   0.0003
 110 H   :2py    0.0000  -0.0022  -0.0005  -0.0010   0.0019  -0.0001   0.0003
 111 H   :2pz    0.0003  -0.0195  -0.0029  -0.0018   0.0015  -0.0000  -0.0001
 112 H   :1s     0.0018  -0.1251  -0.0192  -0.0076   0.0302  -0.0021   0.0078
 113 H   :1s    -0.0017  -0.0037  -0.0002  -0.0030   0.0113   0.0002   0.0036
 114 H   :2px   -0.0002   0.0236   0.0034   0.0013  -0.0039   0.0002  -0.0009
 115 H   :2py   -0.0000   0.0024   0.0002  -0.0008   0.0013  -0.0000   0.0001
 116 H   :2pz    0.0001  -0.0055  -0.0006   0.0009  -0.0005   0.0001   0.0001
 117 H   :1s    -0.0129   0.0045  -0.0161   0.0379   0.0004  -0.2246   0.0393
 118 H   :1s    -0.0001  -0.0008   0.0010   0.0145   0.0003  -0.0822   0.0153
 119 H   :2px   -0.0001   0.0000   0.0002  -0.0034  -0.0002  -0.0067  -0.0011
 120 H   :2py   -0.0025   0.0008  -0.0028   0.0046   0.0001  -0.0236   0.0044
 121 H   :2pz   -0.0005   0.0002  -0.0006   0.0009   0.0004  -0.0011   0.0007
 122 H   :1s    -0.0126   0.0043  -0.0151   0.0415   0.0069   0.2243   0.0011
 123 H   :1s     0.0009   0.0000   0.0003   0.0138   0.0032   0.0737   0.0005
 124 H   :2px   -0.0016   0.0006  -0.0016   0.0008   0.0006   0.0200  -0.0013
 125 H   :2py    0.0013  -0.0005   0.0017  -0.0048  -0.0007  -0.0084  -0.0018
 126 H   :2pz    0.0013  -0.0005   0.0016  -0.0038  -0.0003  -0.0140  -0.0006
 127 H   :1s    -0.0042   0.0012  -0.0072   0.0699   0.0627  -0.0166  -0.2055
 128 H   :1s    -0.0018   0.0019  -0.0019   0.0274   0.0271  -0.0054  -0.0859
 129 H   :2px    0.0004  -0.0001   0.0002  -0.0035  -0.0042   0.0005   0.0068
 130 H   :2py    0.0008  -0.0003   0.0012  -0.0064  -0.0055   0.0015   0.0193
 131 H   :2pz   -0.0003   0.0002  -0.0008  -0.0012  -0.0022   0.0001  -0.0010
 132 H   :1s    -0.0037   0.0016  -0.0086  -0.0860  -0.0976   0.0167   0.1784
 133 H   :1s    -0.0002  -0.0006   0.0002  -0.0358  -0.0428   0.0072   0.0792
 134 H   :2px   -0.0000   0.0000  -0.0003   0.0002  -0.0009  -0.0002  -0.0038
 135 H   :2py    0.0000  -0.0000   0.0001   0.0039   0.0040  -0.0008  -0.0099
 136 H   :2pz    0.0007  -0.0003   0.0015   0.0077   0.0088  -0.0014  -0.0147
 137 H   :1s     0.1284   0.0032  -0.0082  -0.0260   0.0036   0.0032   0.0097
 138 H   :1s     0.0041   0.0006   0.0006  -0.0114   0.0021   0.0024   0.0045
 139 H   :2px   -0.0020  -0.0000   0.0000   0.0001   0.0003   0.0001  -0.0005
 140 H   :2py    0.0229   0.0006  -0.0013  -0.0022   0.0004   0.0004   0.0008
 141 H   :2pz   -0.0067  -0.0002   0.0004   0.0015  -0.0002  -0.0002  -0.0003
 142 H   :1s     0.1193   0.0031  -0.0079   0.0073   0.0044   0.0007  -0.0106
 143 H   :1s    -0.0026   0.0013   0.0017   0.0042   0.0036   0.0004  -0.0079
 144 H   :2px   -0.0199  -0.0006   0.0011  -0.0013  -0.0004  -0.0000   0.0012
 145 H   :2py   -0.0134  -0.0004   0.0009   0.0008  -0.0005  -0.0002   0.0004
 146 H   :2pz   -0.0040  -0.0001   0.0003   0.0004   0.0000  -0.0001   0.0000

    Orbital        15       16       17       18       19       20       21
   1 N   :1s    -0.0002   0.0028   0.0003  -0.0033  -0.0058  -0.0124   0.0030
   2 N   :1s    -0.0003   0.0048   0.0005  -0.0055  -0.0097  -0.0209   0.0051
   3 N   :1s     0.0000  -0.0157  -0.0012   0.0164   0.0256   0.0595  -0.0158
   4 N   :1s     0.0069  -0.0051  -0.0058   0.0162   0.0526   0.0823  -0.0118
   5 N   :1s     0.0443   0.0464  -0.0242  -0.0629   0.0180  -0.1256   0.0765
   6 N   :2px    0.0032   0.0956   0.0122   0.0272   0.0205  -0.0592   0.0329
   7 N   :2py    0.0158  -0.1638  -0.0094  -0.0176  -0.0283   0.0164   0.0697
   8 N   :2pz   -0.0013  -0.0753  -0.0002   0.0139  -0.0279  -0.0136  -0.0195
   9 N   :2px    0.0055   0.1527   0.0196   0.0443   0.0321  -0.0906   0.0507
  10 N   :2py    0.0258  -0.2620  -0.0147  -0.0296  -0.0440   0.0271   0.1071
  11 N   :2pz   -0.0022  -0.1196  -0.0002   0.0228  -0.0452  -0.0219  -0.0283
  12 N   :2px    0.0041   0.1095   0.0122   0.0344   0.0359  -0.0854   0.0465
  13 N   :2py    0.0163  -0.1963  -0.0145  -0.0165  -0.0410   0.0181   0.1054
  14 N   :2pz   -0.0020  -0.0847  -0.0003   0.0208  -0.0335  -0.0179  -0.0335
  15 N   :2px    0.0063   0.0014  -0.0208  -0.0090   0.0233  -0.0546  -0.0353
  16 N   :2py   -0.0075  -0.0138  -0.0281   0.0233  -0.0105   0.0073   0.0259
  17 N   :2pz   -0.0043   0.0045  -0.0013  -0.0337   0.0165   0.0131  -0.0690
  18 N   :3d2-  -0.0007  -0.0073  -0.0014  -0.0010  -0.0020   0.0011  -0.0018
  19 N   :3d1-  -0.0008   0.0082   0.0009   0.0034   0.0003  -0.0023  -0.0009
  20 N   :3d0    0.0008  -0.0108   0.0002   0.0011  -0.0021   0.0001   0.0018
  21 N   :3d1+   0.0006  -0.0142  -0.0004  -0.0009  -0.0029   0.0000   0.0012
  22 N   :3d2+  -0.0010   0.0128   0.0011   0.0022   0.0015  -0.0033   0.0000
  23 H   :1s     0.0103  -0.0839  -0.0058  -0.0205  -0.0064   0.0163   0.0273
  24 H   :1s     0.0137  -0.1168  -0.0099  -0.0242  -0.0159   0.0230   0.0429
  25 H   :1s    -0.0031  -0.0194   0.0299  -0.0349   0.0310  -0.0041  -0.1225
  26 H   :1s     0.0000  -0.0118   0.0224   0.0061  -0.0069  -0.0648  -0.0552
  27 H   :2px    0.0004   0.0039  -0.0002   0.0013   0.0009  -0.0028   0.0018
  28 H   :2py   -0.0007   0.0060   0.0010   0.0016  -0.0019  -0.0091  -0.0093
  29 H   :2pz    0.0014  -0.0163  -0.0016  -0.0015  -0.0020   0.0069   0.0075
  30 H   :1s    -0.0043   0.1391   0.0106   0.0197   0.0237  -0.0278   0.0024
  31 H   :1s    -0.0039   0.1989   0.0160   0.0203   0.0311  -0.0486   0.0038
  32 H   :1s    -0.0287   0.0195   0.0064   0.0375  -0.0495   0.0732  -0.0116
  33 H   :1s    -0.0149   0.0229  -0.0097  -0.0562  -0.0725   0.1083   0.0128
  34 H   :2px    0.0006  -0.0220  -0.0012  -0.0051  -0.0069   0.0017   0.0023
  35 H   :2py   -0.0002   0.0038   0.0000   0.0007   0.0028  -0.0022   0.0053
  36 H   :2pz   -0.0004   0.0106   0.0019  -0.0005   0.0049  -0.0058  -0.0001
  37 H   :1s    -0.0099   0.0199  -0.0040  -0.0072  -0.0004   0.0115  -0.0336
  38 H   :1s    -0.0132   0.0260  -0.0029  -0.0139  -0.0024   0.0191  -0.0467
  39 H   :1s    -0.0167  -0.0185  -0.0306   0.0375   0.0111  -0.0337   0.0016
  40 H   :1s     0.0075  -0.0047  -0.0067   0.0211   0.0134  -0.0115   0.0046
  41 H   :2px   -0.0017   0.0087   0.0003   0.0016   0.0040   0.0106  -0.0158
  42 H   :2py   -0.0006  -0.0061  -0.0009  -0.0016   0.0001   0.0083  -0.0057
  43 H   :2pz   -0.0001  -0.0042   0.0000   0.0009  -0.0018   0.0009  -0.0030
  44 H   :1s     0.0032  -0.0688   0.0011   0.0133  -0.0189  -0.0146   0.0080
  45 H   :1s     0.0038  -0.0974   0.0002   0.0037  -0.0280  -0.0189   0.0027
  46 H   :1s    -0.0039  -0.0313   0.0219   0.0305  -0.0287   0.0242   0.0613
  47 H   :1s    -0.0027  -0.0131  -0.0023   0.0164   0.0155  -0.0073   0.0104
  48 H   :2px    0.0000   0.0129   0.0012  -0.0027   0.0028  -0.0046   0.0031
  49 H   :2py    0.0012  -0.0071  -0.0007   0.0002  -0.0009   0.0020   0.0041
  50 H   :2pz   -0.0007   0.0100  -0.0004  -0.0020   0.0019   0.0004  -0.0018
  51 O   :1s    -0.0006   0.0038  -0.0066   0.0025   0.0068   0.0370   0.0404
  52 O   :1s     0.0011  -0.0090   0.0147  -0.0060  -0.0148  -0.0860  -0.0948
  53 O   :1s     0.0037  -0.0181   0.0335  -0.0109  -0.0331  -0.1533  -0.1620
  54 O   :2px   -0.0088   0.0556  -0.4740   0.0004   0.0258   0.1279   0.1338
  55 O   :2py   -0.0050   0.0424  -0.0567   0.0164   0.0180  -0.0012  -0.0501
  56 O   :2pz    0.0073  -0.0730  -0.1848  -0.0434  -0.0716  -0.3390  -0.3561
  57 O   :2px   -0.0053   0.0368  -0.3068  -0.0004   0.0187   0.0934   0.0978
  58 O   :2py   -0.0022   0.0281  -0.0350   0.0095   0.0130  -0.0055  -0.0445
  59 O   :2pz    0.0051  -0.0502  -0.1265  -0.0286  -0.0526  -0.2506  -0.2636
  60 O   :3d2-   0.0000   0.0002  -0.0009   0.0001   0.0002   0.0007   0.0001
  61 O   :3d1-  -0.0000   0.0000   0.0034   0.0000   0.0001   0.0017   0.0024
  62 O   :3d0   -0.0000   0.0008   0.0185   0.0016   0.0019   0.0098   0.0107
  63 O   :3d1+   0.0003  -0.0022   0.0200   0.0000  -0.0012  -0.0062  -0.0062
  64 O   :3d2+  -0.0003   0.0023  -0.0118   0.0003   0.0011   0.0059   0.0058
  65 O   :1s     0.0002  -0.0006   0.0004   0.0024   0.0072   0.0306  -0.0330
  66 O   :1s    -0.0007   0.0008  -0.0013  -0.0044  -0.0161  -0.0696   0.0751
  67 O   :1s    -0.0002   0.0043  -0.0001  -0.0138  -0.0337  -0.1359   0.1455
  68 O   :2px   -0.0122  -0.0019  -0.0103  -0.0361  -0.0755  -0.2580   0.2184
  69 O   :2py   -0.0080   0.0444  -0.0029  -0.0163  -0.0426  -0.1849   0.2064
  70 O   :2pz   -0.0015   0.0224   0.0008   0.0079   0.0300   0.1518  -0.2336
  71 O   :2px   -0.0086   0.0018  -0.0063  -0.0306  -0.0568  -0.1943   0.1636
  72 O   :2py   -0.0053   0.0289  -0.0021  -0.0141  -0.0303  -0.1397   0.1569
  73 O   :2pz   -0.0005   0.0147   0.0014   0.0083   0.0210   0.1190  -0.1840
  74 O   :3d2-   0.0002  -0.0014   0.0000   0.0003   0.0013   0.0057  -0.0056
  75 O   :3d1-   0.0001   0.0001   0.0001   0.0001  -0.0004  -0.0019   0.0030
  76 O   :3d0   -0.0002   0.0007  -0.0001  -0.0004  -0.0008  -0.0033   0.0026
  77 O   :3d1+  -0.0002  -0.0009  -0.0002  -0.0008  -0.0019  -0.0071   0.0082
  78 O   :3d2+  -0.0002   0.0024   0.0001  -0.0000   0.0001  -0.0010   0.0011
  79 O   :1s     0.0005  -0.0058  -0.0020   0.0608   0.0034  -0.0043  -0.0008
  80 O   :1s    -0.0011   0.0125   0.0045  -0.1381  -0.0092   0.0095   0.0025
  81 O   :1s    -0.0024   0.0247   0.0081  -0.2609  -0.0154   0.0182   0.0018
  82 O   :2px    0.0100  -0.0144  -0.0086   0.1225   0.0457   0.1657  -0.0858
[...]
 |  sym. | Exci.  |        CCSD       Excitation energies            | ||T1||  |
 |(spin, |        +------------------------------------------------------------+
 | spat) |        |     Hartree    |       eV.      |     cm-1       |    %    |
 +=============================================================================+
 | ^1A   |    1   |    14.9025849  |     405.51996  |   3270739.304  |  88.50  |
 | ^1A   |    2   |    14.9508139  |     406.83234  |   3281324.348  |  88.75  |
 | ^1A   |    3   |    14.9692763  |     407.33473  |   3285376.360  |  88.50  |
 | ^1A   |    4   |    14.9874282  |     407.82867  |   3289360.259  |  88.56  |
 | ^1A   |    5   |    15.0003560  |     408.18045  |   3292197.567  |  88.21  |
 | ^1A   |    6   |    15.0149106  |     408.57650  |   3295391.934  |  88.26  |
 | ^1A   |    7   |    15.0229424  |     408.79506  |   3297154.716  |  88.28  |
 | ^1A   |    8   |    15.0378269  |     409.20008  |   3300421.477  |  88.45  |
 | ^1A   |    9   |    15.0729191  |     410.15499  |   3308123.326  |  88.68  |
 | ^1A   |   10   |    15.0941327  |     410.73224  |   3312779.177  |  88.98  |
 | ^1A   |   11   |    15.1034669  |     410.98624  |   3314827.810  |  88.72  |
 | ^1A   |   12   |    15.1501075  |     412.25540  |   3325064.228  |  87.85  |
 | ^1A   |   13   |    15.1671646  |     412.71954  |   3328807.824  |  88.02  |
 | ^1A   |   14   |    15.1843082  |     413.18605  |   3332570.422  |  87.63  |
 | ^1A   |   15   |    15.1984893  |     413.57193  |   3335682.798  |  87.60  |
 | ^1A   |   16   |    15.2118907  |     413.93660  |   3338624.068  |  87.68  |
 | ^1A   |   17   |    15.2273138  |     414.35629  |   3342009.050  |  87.44  |
 | ^1A   |   18   |    15.2323698  |     414.49387  |   3343118.726  |  87.60  |
 | ^1A   |   19   |    15.2511875  |     415.00592  |   3347248.718  |  87.53  |
 | ^1A   |   20   |    15.2556314  |     415.12685  |   3348224.044  |  87.33  |
 | ^1A   |   21   |    15.3461042  |     417.58874  |   3368080.536  |  88.26  |
 | ^1A   |   22   |    15.3693823  |     418.22217  |   3373189.489  |  88.09  |
 | ^1A   |   23   |    15.3883615  |     418.73862  |   3377354.946  |  88.15  |
 | ^1A   |   24   |    15.5315182  |     422.63411  |   3408774.195  |  89.15  |
 | ^1A   |   25   |    15.5588734  |     423.37848  |   3414777.979  |  89.83  |
 | ^1A   |   26   |    15.5842547  |     424.06914  |   3420348.513  |  88.31  |
 | ^1A   |   27   |    15.6018655  |     424.54836  |   3424213.638  |  89.49  |
 | ^1A   |   28   |    15.7166544  |     427.67192  |   3449406.900  |  87.61  |
 | ^1A   |   29   |    15.7297215  |     428.02750  |   3452274.803  |   0.51  |
 | ^1A   |   30   |    15.7426706  |     428.37986  |   3455116.797  |   0.20  |
 +=============================================================================+
                                                                                
                                                                                
     Total energies in Hartree:                                                 
             1 ^1A       -347.2825965775                                        
             2 ^1A       -347.2343675678                                        
             3 ^1A       -347.2159052427                                        
             4 ^1A       -347.1977532619                                        
             5 ^1A       -347.1848255351                                        
             6 ^1A       -347.1702709294                                        
             7 ^1A       -347.1622391018                                        
             8 ^1A       -347.1473546445                                        
             9 ^1A       -347.1122624354                                        
            10 ^1A       -347.0910488183                                        
            11 ^1A       -347.0817145583                                        
            12 ^1A       -347.0350740085                                        
            13 ^1A       -347.0180169305                                        
            14 ^1A       -347.0008732715                                        
            15 ^1A       -346.9866922417                                        
            16 ^1A       -346.9732908279                                        
            17 ^1A       -346.9578677161                                        
            18 ^1A       -346.9528116603                                        
            19 ^1A       -346.9339940307                                        
            20 ^1A       -346.9295501179                                        
            21 ^1A       -346.8390772866                                        
            22 ^1A       -346.8157991815                                        
            23 ^1A       -346.7968199620                                        
            24 ^1A       -346.6536633301                                        
            25 ^1A       -346.6263080765                                        
            26 ^1A       -346.6009268542                                        
            27 ^1A       -346.5833160510                                        
            28 ^1A       -346.4685271025                                        
            29 ^1A       -346.4554599732                                        
            30 ^1A       -346.4425108959                                        
                                                                                
                                                                                
 +=============================================================================+
 |  sym. | Exci.  |        CCSD       Length   Gauge Oscillator Strength       |
 |(spin, |        +------------------------------------------------------------+
 | spat) |        | Dipole Strength(a.u.) | Oscillator strength  | Direction   |
 +=============================================================================+
 | ^1A   |    1   |        0.0002322      |      0.0023069       |  (Y,Z)      |
 | ^1A   |    2   |        0.0022316      |      0.0222423       |  (Y,Z)      |
 | ^1A   |    3   |        0.0015468      |      0.0154362       |  (Y,Z)      |
 | ^1A   |    4   |        0.0012844      |      0.0128328       |  (Y,Z)      |
 | ^1A   |    5   |        0.0005327      |      0.0053273       |  (Y,Z)      |
 | ^1A   |    6   |        0.0010711      |      0.0107215       |  (Y,Z)      |
 | ^1A   |    7   |        0.0008955      |      0.0089690       |  (Y,Z)      |
 | ^1A   |    8   |        0.0003293      |      0.0033013       |  (Y,Z)      |
 | ^1A   |    9   |        0.0015667      |      0.0157434       |  (Y,Z)      |
 | ^1A   |   10   |        0.0032089      |      0.0322901       |  (Y,Z)      |
 | ^1A   |   11   |        0.0020497      |      0.0206382       |  (Y,Z)      |
 | ^1A   |   12   |        0.0000620      |      0.0006266       |  (Y,Z)      |
 | ^1A   |   13   |        0.0000272      |      0.0002754       |  (Y,Z)      |
 | ^1A   |   14   |        0.0000260      |      0.0002634       |  (Y,Z)      |
 | ^1A   |   15   |        0.0000663      |      0.0006718       |  (Y,Z)      |
 | ^1A   |   16   |        0.0000707      |      0.0007166       |  (Y,Z)      |
 | ^1A   |   17   |        0.0000169      |      0.0001711       |  (Y,Z)      |
 | ^1A   |   18   |        0.0000444      |      0.0004511       |  (Y,Z)      |
 | ^1A   |   19   |        0.0001521      |      0.0015463       |  (Y,Z)      |
 | ^1A   |   20   |        0.0000016      |      0.0000163       |  (Y,Z)      |
 | ^1A   |   21   |        0.0000636      |      0.0006510       |  (Y,Z)      |
 | ^1A   |   22   |        0.0000609      |      0.0006240       |  (Y,Z)      |
 | ^1A   |   23   |        0.0000337      |      0.0003460       |  (Y,Z)      |
 | ^1A   |   24   |        0.0031307      |      0.0324168       |  (Y,Z)      |
 | ^1A   |   25   |        0.0046585      |      0.0483204       |  (Y,Z)      |
 | ^1A   |   26   |        0.0021659      |      0.0225025       |  (Y,Z)      |
 | ^1A   |   27   |        0.0044197      |      0.0459707       |  (Y,Z)      |
 | ^1A   |   28   |        0.0002221      |      0.0023272       |  (Y,Z)      |
 | ^1A   |   29   |        0.0000025      |      0.0000264       |  (Y,Z)      |
 | ^1A   |   30   |        0.0000014      |      0.0000146       |  (Y,Z)      |
 +=============================================================================+

  1 a.u. =        27.21138 eV.  
  1 a.u. =    219474.62934 cm-1.
  

 *******************************************************************************
 *******************************************************************************
 *                                                                             *
 *                                                                             *
 *                      END OF COUPLED CLUSTER CALCULATION                     *
 *                                                                             *
 *                                                                             *
 *******************************************************************************
 *******************************************************************************


 CPU and wall time for CC :   11648.289   12201.296

 
     Date and time (Linux)  : Thu Jun 14 16:00:37 2018
     Host name              : n-62-29-12                              


                      .-------------------------------------.
                      | End of Coupled Cluster Section (CC) |
                      `-------------------------------------'

  Total CPU  time used in DALTON:   3 hours 14 minutes 31 seconds
  Total wall time used in DALTON:   3 hours 23 minutes 49 seconds

 
     Date and time (Linux)  : Thu Jun 14 16:00:37 2018
     Host name              : n-62-29-12                              
  

 +---------------------------------------------------------+ 
 | List of selected calculated molecular properties (a.u.) | 
 +---------------------------------------------------------+ 

  Properties are read from unit number                      4

 CCSD       properties :
 #  1 1 CCSD/MM  Ground state Energy =    -362.5969189502
 #  2 1 E_QM/MM  Ground state Energy =      -0.4117374433
 #  3 1 Sy: 1 Sp: 1 Exc:  1 E_tot:   -347.2825965775 w:     14.9025849294 E_grs:   -362.1851815069
 #  4 1 Exctot   Excited state Energy =    -347.2825965775
 #  5 1 Sy: 1 Sp: 1 Exc:  2 E_tot:   -347.2343675678 w:     14.9508139391 E_grs:   -362.1851815069
 #  6 1 Exctot   Excited state Energy =    -347.2343675678
 #  7 1 Sy: 1 Sp: 1 Exc:  3 E_tot:   -347.2159052427 w:     14.9692762642 E_grs:   -362.1851815069
 #  8 1 Exctot   Excited state Energy =    -347.2159052427
 #  9 1 Sy: 1 Sp: 1 Exc:  4 E_tot:   -347.1977532619 w:     14.9874282450 E_grs:   -362.1851815069
 # 10 1 Exctot   Excited state Energy =    -347.1977532619
 # 11 1 Sy: 1 Sp: 1 Exc:  5 E_tot:   -347.1848255351 w:     15.0003559718 E_grs:   -362.1851815069
 # 12 1 Exctot   Excited state Energy =    -347.1848255351
 # 13 1 Sy: 1 Sp: 1 Exc:  6 E_tot:   -347.1702709294 w:     15.0149105775 E_grs:   -362.1851815069
 # 14 1 Exctot   Excited state Energy =    -347.1702709294
 # 15 1 Sy: 1 Sp: 1 Exc:  7 E_tot:   -347.1622391018 w:     15.0229424051 E_grs:   -362.1851815069
 # 16 1 Exctot   Excited state Energy =    -347.1622391018
 # 17 1 Sy: 1 Sp: 1 Exc:  8 E_tot:   -347.1473546445 w:     15.0378268624 E_grs:   -362.1851815069
 # 18 1 Exctot   Excited state Energy =    -347.1473546445
 # 19 1 Sy: 1 Sp: 1 Exc:  9 E_tot:   -347.1122624354 w:     15.0729190715 E_grs:   -362.1851815069
 # 20 1 Exctot   Excited state Energy =    -347.1122624354
 # 21 1 Sy: 1 Sp: 1 Exc: 10 E_tot:   -347.0910488183 w:     15.0941326886 E_grs:   -362.1851815069
 # 22 1 Exctot   Excited state Energy =    -347.0910488183
 # 23 1 Sy: 1 Sp: 1 Exc: 11 E_tot:   -347.0817145583 w:     15.1034669486 E_grs:   -362.1851815069
 # 24 1 Exctot   Excited state Energy =    -347.0817145583
 # 25 1 Sy: 1 Sp: 1 Exc: 12 E_tot:   -347.0350740085 w:     15.1501074984 E_grs:   -362.1851815069
 # 26 1 Exctot   Excited state Energy =    -347.0350740085
 # 27 1 Sy: 1 Sp: 1 Exc: 13 E_tot:   -347.0180169305 w:     15.1671645764 E_grs:   -362.1851815069
 # 28 1 Exctot   Excited state Energy =    -347.0180169305
 # 29 1 Sy: 1 Sp: 1 Exc: 14 E_tot:   -347.0008732715 w:     15.1843082354 E_grs:   -362.1851815069
 # 30 1 Exctot   Excited state Energy =    -347.0008732715
 # 31 1 Sy: 1 Sp: 1 Exc: 15 E_tot:   -346.9866922417 w:     15.1984892652 E_grs:   -362.1851815069
 # 32 1 Exctot   Excited state Energy =    -346.9866922417
 # 33 1 Sy: 1 Sp: 1 Exc: 16 E_tot:   -346.9732908279 w:     15.2118906790 E_grs:   -362.1851815069
 # 34 1 Exctot   Excited state Energy =    -346.9732908279
 # 35 1 Sy: 1 Sp: 1 Exc: 17 E_tot:   -346.9578677161 w:     15.2273137908 E_grs:   -362.1851815069
 # 36 1 Exctot   Excited state Energy =    -346.9578677161
 # 37 1 Sy: 1 Sp: 1 Exc: 18 E_tot:   -346.9528116603 w:     15.2323698466 E_grs:   -362.1851815069
 # 38 1 Exctot   Excited state Energy =    -346.9528116603
 # 39 1 Sy: 1 Sp: 1 Exc: 19 E_tot:   -346.9339940307 w:     15.2511874762 E_grs:   -362.1851815069
 # 40 1 Exctot   Excited state Energy =    -346.9339940307
 # 41 1 Sy: 1 Sp: 1 Exc: 20 E_tot:   -346.9295501179 w:     15.2556313890 E_grs:   -362.1851815069
 # 42 1 Exctot   Excited state Energy =    -346.9295501179
 # 43 1 Sy: 1 Sp: 1 Exc: 21 E_tot:   -346.8390772866 w:     15.3461042203 E_grs:   -362.1851815069
 # 44 1 Exctot   Excited state Energy =    -346.8390772866
 # 45 1 Sy: 1 Sp: 1 Exc: 22 E_tot:   -346.8157991815 w:     15.3693823254 E_grs:   -362.1851815069
 # 46 1 Exctot   Excited state Energy =    -346.8157991815
 # 47 1 Sy: 1 Sp: 1 Exc: 23 E_tot:   -346.7968199620 w:     15.3883615449 E_grs:   -362.1851815069
 # 48 1 Exctot   Excited state Energy =    -346.7968199620
 # 49 1 Sy: 1 Sp: 1 Exc: 24 E_tot:   -346.6536633301 w:     15.5315181768 E_grs:   -362.1851815069
 # 50 1 Exctot   Excited state Energy =    -346.6536633301
 # 51 1 Sy: 1 Sp: 1 Exc: 25 E_tot:   -346.6263080765 w:     15.5588734304 E_grs:   -362.1851815069
 # 52 1 Exctot   Excited state Energy =    -346.6263080765
 # 53 1 Sy: 1 Sp: 1 Exc: 26 E_tot:   -346.6009268542 w:     15.5842546527 E_grs:   -362.1851815069
 # 54 1 Exctot   Excited state Energy =    -346.6009268542
 # 55 1 Sy: 1 Sp: 1 Exc: 27 E_tot:   -346.5833160510 w:     15.6018654559 E_grs:   -362.1851815069
 # 56 1 Exctot   Excited state Energy =    -346.5833160510
 # 57 1 Sy: 1 Sp: 1 Exc: 28 E_tot:   -346.4685271025 w:     15.7166544044 E_grs:   -362.1851815069
 # 58 1 Exctot   Excited state Energy =    -346.4685271025
 # 59 1 Sy: 1 Sp: 1 Exc: 29 E_tot:   -346.4554599732 w:     15.7297215337 E_grs:   -362.1851815069
 # 60 1 Exctot   Excited state Energy =    -346.4554599732
 # 61 1 Sy: 1 Sp: 1 Exc: 30 E_tot:   -346.4425108959 w:     15.7426706110 E_grs:   -362.1851815069
 # 62 1 Exctot   Excited state Energy =    -346.4425108959
 # 63 1 |<O|XDIPLEN |i(14.902585)>| =     0.00492785
 # 65 1 |<O|XDIPLEN |i(14.950814)>| =     0.00029480
 # 67 1 |<O|XDIPLEN |i(14.969276)>| =     0.03200560
 # 69 1 |<O|XDIPLEN |i(14.987428)>| =     0.02351859
 # 71 1 |<O|XDIPLEN |i(15.000356)>| =     0.00076623
 # 73 1 |<O|XDIPLEN |i(15.014911)>| =     0.02969772
 # 75 1 |<O|XDIPLEN |i(15.022942)>| =     0.00498372
 # 77 1 |<O|XDIPLEN |i(15.037827)>| =     0.01182288
 # 79 1 |<O|XDIPLEN |i(15.072919)>| =     0.00345639
 # 81 1 |<O|XDIPLEN |i(15.094133)>| =     0.04072843
 # 83 1 |<O|XDIPLEN |i(15.103467)>| =     0.02738378
 # 85 1 |<O|XDIPLEN |i(15.150107)>| =     0.00186463
 # 87 1 |<O|XDIPLEN |i(15.167165)>| =     0.00322153
 # 89 1 |<O|XDIPLEN |i(15.184308)>| =     0.00196579
 # 91 1 |<O|XDIPLEN |i(15.198489)>| =     0.00731155
 # 93 1 |<O|XDIPLEN |i(15.211891)>| =     0.00339815
 # 95 1 |<O|XDIPLEN |i(15.227314)>| =     0.00153342
 # 97 1 |<O|XDIPLEN |i(15.232370)>| =     0.00141192
 # 99 1 |<O|XDIPLEN |i(15.251187)>| =     0.00931758
 #101 1 |<O|XDIPLEN |i(15.255631)>| =     0.00090772
 #103 1 |<O|XDIPLEN |i(15.346104)>| =     0.00024308
 #105 1 |<O|XDIPLEN |i(15.369382)>| =     0.00478865
 #107 1 |<O|XDIPLEN |i(15.388362)>| =     0.00504976
 #109 1 |<O|XDIPLEN |i(15.531518)>| =     0.04625691
 #111 1 |<O|XDIPLEN |i(15.558873)>| =     0.00175997
 #113 1 |<O|XDIPLEN |i(15.584255)>| =     0.01677983
 #115 1 |<O|XDIPLEN |i(15.601865)>| =     0.04702813
 #117 1 |<O|XDIPLEN |i(15.716654)>| =     0.00465064
 #119 1 |<O|XDIPLEN |i(15.729722)>| =     0.00091019
 #121 1 |<O|XDIPLEN |i(15.742671)>| =     0.00029059
 #123 1 |<O|YDIPLEN |i(14.902585)>| =     0.00037776
 #125 1 |<O|YDIPLEN |i(14.950814)>| =     0.03032091
 #127 1 |<O|YDIPLEN |i(14.969276)>| =     0.00284950
 #129 1 |<O|YDIPLEN |i(14.987428)>| =     0.02085326
 #131 1 |<O|YDIPLEN |i(15.000356)>| =     0.01985868
 #133 1 |<O|YDIPLEN |i(15.014911)>| =     0.01133276
 #135 1 |<O|YDIPLEN |i(15.022942)>| =     0.02340670
 #137 1 |<O|YDIPLEN |i(15.037827)>| =     0.01347596
 #139 1 |<O|YDIPLEN |i(15.072919)>| =     0.02167247
 #141 1 |<O|YDIPLEN |i(15.094133)>| =     0.03660650
 #143 1 |<O|YDIPLEN |i(15.103467)>| =     0.02584268
 #145 1 |<O|YDIPLEN |i(15.150107)>| =     0.00016914
 #147 1 |<O|YDIPLEN |i(15.167165)>| =     0.00247959
 #149 1 |<O|YDIPLEN |i(15.184308)>| =     0.00230605
 #151 1 |<O|YDIPLEN |i(15.198489)>| =     0.00223671
 #153 1 |<O|YDIPLEN |i(15.211891)>| =     0.00041833
 #155 1 |<O|YDIPLEN |i(15.227314)>| =     0.00027815
 #157 1 |<O|YDIPLEN |i(15.232370)>| =     0.00526976
 #159 1 |<O|YDIPLEN |i(15.251187)>| =     0.00564696
 #161 1 |<O|YDIPLEN |i(15.255631)>| =     0.00065558
 #163 1 |<O|YDIPLEN |i(15.346104)>| =     0.00136007
 #165 1 |<O|YDIPLEN |i(15.369382)>| =     0.00068683
 #167 1 |<O|YDIPLEN |i(15.388362)>| =     0.00156936
 #169 1 |<O|YDIPLEN |i(15.531518)>| =     0.02764944
 #171 1 |<O|YDIPLEN |i(15.558873)>| =     0.01876162
 #173 1 |<O|YDIPLEN |i(15.584255)>| =     0.04293831
 #175 1 |<O|YDIPLEN |i(15.601865)>| =     0.04316952
 #177 1 |<O|YDIPLEN |i(15.716654)>| =     0.00521326
 #179 1 |<O|YDIPLEN |i(15.729722)>| =     0.00070005
 #181 1 |<O|YDIPLEN |i(15.742671)>| =     0.00083754
 #183 1 |<O|ZDIPLEN |i(14.902585)>| =     0.01441432
 #185 1 |<O|ZDIPLEN |i(14.950814)>| =     0.03622302
 #187 1 |<O|ZDIPLEN |i(14.969276)>| =     0.02267829
 #189 1 |<O|ZDIPLEN |i(14.987428)>| =     0.01721542
 #191 1 |<O|ZDIPLEN |i(15.000356)>| =     0.01173737
 #193 1 |<O|ZDIPLEN |i(15.014911)>| =     0.00779069
 #195 1 |<O|ZDIPLEN |i(15.022942)>| =     0.01796724
 #197 1 |<O|ZDIPLEN |i(15.037827)>| =     0.00281320
 #199 1 |<O|ZDIPLEN |i(15.072919)>| =     0.03294058
 #201 1 |<O|ZDIPLEN |i(15.094133)>| =     0.01449229
 #203 1 |<O|ZDIPLEN |i(15.103467)>| =     0.02513887
 #205 1 |<O|ZDIPLEN |i(15.150107)>| =     0.00765090
 #207 1 |<O|ZDIPLEN |i(15.167165)>| =     0.00327256
 #209 1 |<O|ZDIPLEN |i(15.184308)>| =     0.00410328
 #211 1 |<O|ZDIPLEN |i(15.198489)>| =     0.00279974
 #213 1 |<O|ZDIPLEN |i(15.211891)>| =     0.00767717
 #215 1 |<O|ZDIPLEN |i(15.227314)>| =     0.00379768
 #217 1 |<O|ZDIPLEN |i(15.232370)>| =     0.00382827
 #219 1 |<O|ZDIPLEN |i(15.251187)>| =     0.00577728
 #221 1 |<O|ZDIPLEN |i(15.255631)>| =     0.00058781
 #223 1 |<O|ZDIPLEN |i(15.346104)>| =     0.00785657
 #225 1 |<O|ZDIPLEN |i(15.369382)>| =     0.00612336
 #227 1 |<O|ZDIPLEN |i(15.388362)>| =     0.00240021
 #229 1 |<O|ZDIPLEN |i(15.531518)>| =     0.01505156
 #231 1 |<O|ZDIPLEN |i(15.558873)>| =     0.06560013
 #233 1 |<O|ZDIPLEN |i(15.584255)>| =     0.00637363
 #235 1 |<O|ZDIPLEN |i(15.601865)>| =     0.01856006
 #237 1 |<O|ZDIPLEN |i(15.716654)>| =     0.01316436
 #239 1 |<O|ZDIPLEN |i(15.729722)>| =     0.00109569
 #241 1 |<O|ZDIPLEN |i(15.742671)>| =     0.00078087

 THE_END   
