

     ************************************************************************
     *************** Dalton - An Electronic Structure Program ***************
     ************************************************************************

    This is output from DALTON release Dalton2017.alpha (2016)
         ( Web site: http://daltonprogram.org )

   ----------------------------------------------------------------------------

    NOTE:
     
    Dalton is an experimental code for the evaluation of molecular
    properties using (MC)SCF, DFT, CI, and CC wave functions.
    The authors accept no responsibility for the performance of
    the code or for the correctness of the results.
     
    The code (in whole or part) is provided under a licence and
    is not to be reproduced for further distribution without
    the written permission of the authors or their representatives.
     
    See the home page "http://daltonprogram.org" for further information.
     
    If results obtained with this code are published,
    the appropriate citations would be both of:
     
       K. Aidas, C. Angeli, K. L. Bak, V. Bakken, R. Bast,
       L. Boman, O. Christiansen, R. Cimiraglia, S. Coriani,
       P. Dahle, E. K. Dalskov, U. Ekstroem,
       T. Enevoldsen, J. J. Eriksen, P. Ettenhuber, B. Fernandez,
       L. Ferrighi, H. Fliegl, L. Frediani, K. Hald, A. Halkier,
       C. Haettig, H. Heiberg, T. Helgaker, A. C. Hennum,
       H. Hettema, E. Hjertenaes, S. Hoest, I.-M. Hoeyvik,
       M. F. Iozzi, B. Jansik, H. J. Aa. Jensen, D. Jonsson,
       P. Joergensen, J. Kauczor, S. Kirpekar,
       T. Kjaergaard, W. Klopper, S. Knecht, R. Kobayashi, H. Koch,
       J. Kongsted, A. Krapp, K. Kristensen, A. Ligabue,
       O. B. Lutnaes, J. I. Melo, K. V. Mikkelsen, R. H. Myhre,
       C. Neiss, C. B. Nielsen, P. Norman, J. Olsen,
       J. M. H. Olsen, A. Osted, M. J. Packer, F. Pawlowski,
       T. B. Pedersen, P. F. Provasi, S. Reine, Z. Rinkevicius,
       T. A. Ruden, K. Ruud, V. Rybkin, P. Salek, C. C. M. Samson,
       A. Sanchez de Meras, T. Saue, S. P. A. Sauer,
       B. Schimmelpfennig, K. Sneskov, A. H. Steindal,
       K. O. Sylvester-Hvid, P. R. Taylor, A. M. Teale,
       E. I. Tellgren, D. P. Tew, A. J. Thorvaldsen, L. Thoegersen,
       O. Vahtras, M. A. Watson, D. J. D. Wilson, M. Ziolkowski
       and H. Agren,
       "The Dalton quantum chemistry program system",
       WIREs Comput. Mol. Sci. 2014, 4:269–284 (doi: 10.1002/wcms.1172)
     
    and
     
       Dalton, a Molecular Electronic Structure Program,
       Release Dalton2017.alpha (2016), see http://daltonprogram.org
   ----------------------------------------------------------------------------

    Authors in alphabetical order (major contribution(s) in parenthesis):

  Kestutis Aidas,           Vilnius University,           Lithuania   (QM/MM)
  Celestino Angeli,         University of Ferrara,        Italy       (NEVPT2)
  Keld L. Bak,              UNI-C,                        Denmark     (AOSOPPA, non-adiabatic coupling, magnetic properties)
  Vebjoern Bakken,          University of Oslo,           Norway      (DALTON; geometry optimizer, symmetry detection)
  Radovan Bast,             UiT The Arctic U. of Norway,  Norway      (DALTON installation and execution frameworks)
  Pablo Baudin,             University of Valencia,       Spain       (Cholesky excitation energies)
  Linus Boman,              NTNU,                         Norway      (Cholesky decomposition and subsystems)
  Ove Christiansen,         Aarhus University,            Denmark     (CC module)
  Renzo Cimiraglia,         University of Ferrara,        Italy       (NEVPT2)
  Sonia Coriani,            University of Trieste,        Italy       (CC module, MCD in RESPONS)
  Janusz Cukras,            University of Trieste,        Italy       (MChD in RESPONS)
  Paal Dahle,               University of Oslo,           Norway      (Parallelization)
  Erik K. Dalskov,          UNI-C,                        Denmark     (SOPPA)
  Thomas Enevoldsen,        Univ. of Southern Denmark,    Denmark     (SOPPA)
  Janus J. Eriksen,         Aarhus University,            Denmark     (Polarizable embedding model, TDA)
  Rasmus Faber,             University of Copenhagen,     Denmark     (Vib.avg. NMR with SOPPA, parallel AO-SOPPA)
  Berta Fernandez,          U. of Santiago de Compostela, Spain       (doublet spin, ESR in RESPONS)
  Lara Ferrighi,            Aarhus University,            Denmark     (PCM Cubic response)
  Heike Fliegl,             University of Oslo,           Norway      (CCSD(R12))
  Luca Frediani,            UiT The Arctic U. of Norway,  Norway      (PCM)
  Bin Gao,                  UiT The Arctic U. of Norway,  Norway      (Gen1Int library)
  Christof Haettig,         Ruhr-University Bochum,       Germany     (CC module)
  Kasper Hald,              Aarhus University,            Denmark     (CC module)
  Asger Halkier,            Aarhus University,            Denmark     (CC module)
  Frederik Beyer Hansen,    University of Copenhagen,     Denmark     (Parallel AO-SOPPA)
  Erik D. Hedegaard,        Univ. of Southern Denmark,    Denmark     (Polarizable embedding model, QM/MM)
  Hanne Heiberg,            University of Oslo,           Norway      (geometry analysis, selected one-electron integrals)
  Trygve Helgaker,          University of Oslo,           Norway      (DALTON; ABACUS, ERI, DFT modules, London, and much more)
  Alf Christian Hennum,     University of Oslo,           Norway      (Parity violation)
  Hinne Hettema,            University of Auckland,       New Zealand (quadratic response in RESPONS; SIRIUS supersymmetry)
  Eirik Hjertenaes,         NTNU,                         Norway      (Cholesky decomposition)
  Pi A. B. Haase,           University of Copenhagen,     Denmark     (Triplet AO-SOPPA)
  Maria Francesca Iozzi,    University of Oslo,           Norway      (RPA)
  Brano Jansik              Technical Univ. of Ostrava    Czech Rep.  (DFT cubic response)
  Hans Joergen Aa. Jensen,  Univ. of Southern Denmark,    Denmark     (DALTON; SIRIUS, RESPONS, ABACUS modules, London, and much more)
  Dan Jonsson,              UiT The Arctic U. of Norway,  Norway      (cubic response in RESPONS module)
  Poul Joergensen,          Aarhus University,            Denmark     (RESPONS, ABACUS, and CC modules)
  Maciej Kaminski,          University of Warsaw,         Poland      (CPPh in RESPONS)
  Joanna Kauczor,           Linkoeping University,        Sweden      (Complex polarization propagator (CPP) module)
  Sheela Kirpekar,          Univ. of Southern Denmark,    Denmark     (Mass-velocity & Darwin integrals)
  Wim Klopper,              KIT Karlsruhe,                Germany     (R12 code in CC, SIRIUS, and ABACUS modules)
  Stefan Knecht,            ETH Zurich,                   Switzerland (Parallel CI and MCSCF)
  Rika Kobayashi,           Australian National Univ.,    Australia   (DIIS in CC, London in MCSCF)
  Henrik Koch,              NTNU,                         Norway      (CC module, Cholesky decomposition)
  Jacob Kongsted,           Univ. of Southern Denmark,    Denmark     (Polarizable embedding model, QM/MM)
  Andrea Ligabue,           University of Modena,         Italy       (CTOCD, AOSOPPA)
  Nanna H. List             Univ. of Southern Denmark,    Denmark     (Polarizable embedding model)
  Ola B. Lutnaes,           University of Oslo,           Norway      (DFT Hessian)
  Juan I. Melo,             University of Buenos Aires,   Argentina   (LRESC, Relativistic Effects on NMR Shieldings)
  Kurt V. Mikkelsen,        University of Copenhagen,     Denmark     (MC-SCRF and QM/MM)
  Rolf H. Myhre,            NTNU,                         Norway      (Cholesky, subsystems and ECC2)
  Christian Neiss,          Univ. Erlangen-Nuernberg,     Germany     (CCSD(R12))
  Christian B. Nielsen,     University of Copenhagen,     Denmark     (QM/MM)
  Patrick Norman,           Linkoeping University,        Sweden      (Cubic response and complex frequency response in RESPONS)
  Jeppe Olsen,              Aarhus University,            Denmark     (SIRIUS CI/density modules)
  Jogvan Magnus H. Olsen,   Univ. of Southern Denmark,    Denmark     (Polarizable embedding model, QM/MM)
  Anders Osted,             Copenhagen University,        Denmark     (QM/MM)
  Martin J. Packer,         University of Sheffield,      UK          (SOPPA)
  Filip Pawlowski,          Kazimierz Wielki University,  Poland      (CC3)
  Morten N. Pedersen,       Univ. of Southern Denmark,    Denmark     (Polarizable embedding model)
  Thomas B. Pedersen,       University of Oslo,           Norway      (Cholesky decomposition)
  Patricio F. Provasi,      University of Northeastern,   Argentina   (Analysis of coupling constants in localized orbitals)
  Zilvinas Rinkevicius,     KTH Stockholm,                Sweden      (open-shell DFT, ESR)
  Elias Rudberg,            KTH Stockholm,                Sweden      (DFT grid and basis info)
  Torgeir A. Ruden,         University of Oslo,           Norway      (Numerical derivatives in ABACUS)
  Kenneth Ruud,             UiT The Arctic U. of Norway,  Norway      (DALTON; ABACUS magnetic properties and much more)
  Pawel Salek,              KTH Stockholm,                Sweden      (DALTON; DFT code)
  Claire C. M. Samson       University of Karlsruhe       Germany     (Boys localization, r12 integrals in ERI)
  Alfredo Sanchez de Meras, University of Valencia,       Spain       (CC module, Cholesky decomposition)
  Trond Saue,               Paul Sabatier University,     France      (direct Fock matrix construction)
  Stephan P. A. Sauer,      University of Copenhagen,     Denmark     (SOPPA(CCSD), SOPPA prop., AOSOPPA, vibrational g-factors)
  Bernd Schimmelpfennig,    Forschungszentrum Karlsruhe,  Germany     (AMFI module)
  Kristian Sneskov,         Aarhus University,            Denmark     (Polarizable embedding model, QM/MM)
  Arnfinn H. Steindal,      UiT The Arctic U. of Norway,  Norway      (parallel QM/MM, Polarizable embedding model)
  Casper Steinmann,         Univ. of Southern Denmark,    Denmark     (QFIT, Polarizable embedding model)
  K. O. Sylvester-Hvid,     University of Copenhagen,     Denmark     (MC-SCRF)
  Peter R. Taylor,          VLSCI/Univ. of Melbourne,     Australia   (Symmetry handling ABACUS, integral transformation)
  Andrew M. Teale,          University of Nottingham,     England     (DFT-AC, DFT-D)
  David P. Tew,             University of Bristol,        England     (CCSD(R12))
  Olav Vahtras,             KTH Stockholm,                Sweden      (triplet response, spin-orbit, ESR, TDDFT, open-shell DFT)
  David J. Wilson,          La Trobe University,          Australia   (DFT Hessian and DFT magnetizabilities)
  Hans Agren,               KTH Stockholm,                Sweden      (SIRIUS module, RESPONS, MC-SCRF solvation model)
 --------------------------------------------------------------------------------

     Date and time (Linux)  : Mon Jun 11 17:22:37 2018
     Host name              : n-62-29-9                               

 * Work memory size             :   512000000 =  3.815 gigabytes.

 * Directories for basis set searches:
   1) /zhome/37/3/129401/NH3NH4/CCSD/AIMD_SAMPLING/nh3_4h2o
   2) /zhome/9a/4/124800/source/dalton/build-mlcc/basis


Compilation information
-----------------------

 Who compiled             | rfaber
 Host                     | hpclogin1
 System                   | Linux-2.6.32-696.1.1.el6.x86_64
 CMake generator          | Unix Makefiles
 Processor                | x86_64
 64-bit integers          | ON
 MPI                      | OFF
 Fortran compiler         | /opt/intel/2016update2/compilers_and_libraries_201
                          | 6.2.181/linux/bin/intel64/ifort
 Fortran compiler version | ifort (IFORT) 16.0.2 20160204
 C compiler               | /opt/intel/2016update2/compilers_and_libraries_201
                          | 6.2.181/linux/bin/intel64/icc
 C compiler version       | icc (ICC) 16.0.2 20160204
 C++ compiler             | /opt/intel/2016update2/compilers_and_libraries_201
                          | 6.2.181/linux/bin/intel64/icpc
 C++ compiler version     | icpc (ICC) 16.0.2 20160204
 Static linking           | OFF
 Last Git revision        | bb4d1599ca5680a9f3980451fc8bbefdba436d59
 Git branch               | mlcc
 Configuration time       | 2017-06-13 16:11:03.928841


   Content of the .dal input file
 ----------------------------------

**DALTON
.RUN WAVE FUNCTIONS
*QMMM
.QMMM
**INTEGRALS
.DIPLEN
**WAVE FUNCTIONS
.CC
*PRINT
!To check the origin of excit
.PRINTL
   0 11
*SCF INP
.THRESH
1.0D-7
*CC INP
.CCSD
.THRLEQ
 1.0D-9
.THRENR
 1.0D-10
.FROIMP
4
0
.PRINT
 1
.MAX IT
 1200
.MAXRED
 1200
.MXLRV
1199
*CCSLV
.CCMM
.MXSLIT
200
.MXINIT
4 5
*CCEXCI
.NCCEXC
 25
.CVSEPARA
1
1
*CCLRSD
.DIPOLE
**END OF DALTON INPUT


   Content of the .mol file
 ----------------------------

ATOMBASIS


Atomtypes=4 Charge=0 Nosymm Angstrom
   7.00000    1    Basis=6-311++G**
N          0.000000        0.000000        0.000000
   1.00000    3    Basis=6-311++G**
H         -0.289697       -0.595427       -0.786813
H          0.725456       -0.549821        0.359388
H         -0.662062       -0.013191        0.779102
   8.00000    4    Basis=6-31G**
O         -1.568349       -1.999512       -1.363307
O          1.970561       -2.148947        0.621290
O          0.430559        2.677908       -0.288482
O         -3.104181        0.240492        1.996511
   1.00000    8    Basis=6-31G**
H         -0.853407       -2.521728       -1.772188
H         -2.401309       -2.086574       -1.991420
H          2.758511       -2.517247        0.173949
H          1.247031       -2.187999       -0.034818
H          1.362711        3.056804       -0.043166
H          0.396938        1.667331       -0.210000
H         -3.490122        0.621238        1.201654
H         -2.592811        0.919226        2.434691


       *******************************************************************
       *********** Output from DALTON general input processing ***********
       *******************************************************************

 --------------------------------------------------------------------------------
   Overall default print level:    0
   Print level for DALTON.STAT:    1

    HERMIT 1- and 2-electron integral sections will be executed
    "Old" integral transformation used (limited to max 255 basis functions)
    Wave function sections will be executed (SIRIUS module)
 --------------------------------------------------------------------------------


 Changes of defaults for *QMMM  :
 --------------------------------

 +------------------+
 |  WORD: | CHANGE: |
 +------------------+
 |   QMMM |       T |
 +------------------+
 


   ****************************************************************************
   *************** Output of molecule and basis set information ***************
   ****************************************************************************


    The two title cards from your ".mol" input:
    ------------------------------------------------------------------------
 1:                                                                         
 2:                                                                         
    ------------------------------------------------------------------------

  Coordinates are entered in Angstrom and converted to atomic units.
          - Conversion factor : 1 bohr = 0.52917721 A

  Atomic type no.    1
  --------------------
  Nuclear charge:   7.00000
  Number of symmetry independent centers:    1
  Number of basis sets to read;    2
  The basis set is "6-311++G**" from the basis set library.
  Basis set file used for this atomic type with Z =   7 :
     "/zhome/9a/4/124800/source/dalton/build-mlcc/basis/6-311++G**"

  Info about the basis set file: your basis has no documentation.
  Basis set: 6-311++G**                                                                      

  Atomic type no.    2
  --------------------
  Nuclear charge:   1.00000
  Number of symmetry independent centers:    3
  Number of basis sets to read;    2
  The basis set is "6-311++G**" from the basis set library.
  Basis set file used for this atomic type with Z =   1 :
     "/zhome/9a/4/124800/source/dalton/build-mlcc/basis/6-311++G**"

  Info about the basis set file: your basis has no documentation.
  Basis set: 6-311++G**                                                                      

  Atomic type no.    3
  --------------------
  Nuclear charge:   8.00000
  Number of symmetry independent centers:    4
  Number of basis sets to read;    2
  The basis set is "6-31G**" from the basis set library.
  Basis set file used for this atomic type with Z =   8 :
     "/zhome/9a/4/124800/source/dalton/build-mlcc/basis/6-31G**"

  Info about the basis set file: your basis has no documentation.
  Basis set: 6-31G**                                                                         

  Atomic type no.    4
  --------------------
  Nuclear charge:   1.00000
  Number of symmetry independent centers:    8
  Number of basis sets to read;    2
  The basis set is "6-31G**" from the basis set library.
  Basis set file used for this atomic type with Z =   1 :
     "/zhome/9a/4/124800/source/dalton/build-mlcc/basis/6-31G**"

  Info about the basis set file: your basis has no documentation.
  Basis set: 6-31G**                                                                         


                         SYMGRP: Point group information
                         -------------------------------

@    Point group: C1 


                                 Isotopic Masses
                                 ---------------

                           N          14.003074
                           H           1.007825
                           H           1.007825
                           H           1.007825
                           O          15.994915
                           O          15.994915
                           O          15.994915
                           O          15.994915
                           H           1.007825
                           H           1.007825
                           H           1.007825
                           H           1.007825
                           H           1.007825
                           H           1.007825
                           H           1.007825
                           H           1.007825

                       Total mass:    89.068809 amu
                       Natural abundance:  98.514 %

 Center-of-mass coordinates (a.u.):   -0.852043   -0.507392    0.330182


  Atoms and basis sets
  --------------------

  Number of atom types :    4
  Total number of atoms:   16

  label    atoms   charge   prim   cont     basis
  ----------------------------------------------------------------------
  N           1    7.0000    35    22      [12s6p1d|5s4p1d]                                   
  H           3    1.0000     9     7      [6s1p|4s1p]                                        
  O           4    8.0000    27    14      [10s4p1d|3s2p1d]                                   
  H           8    1.0000     7     5      [4s1p|2s1p]                                        
  ----------------------------------------------------------------------
  total:     16   50.0000   226   139
  ----------------------------------------------------------------------
  Spherical harmonic basis used.

  Threshold for neglecting AO integrals:  1.00D-12


  Cartesian Coordinates (a.u.)
  ----------------------------

  Total number of coordinates:   48
  N       :     1  x   0.0000000000    2  y   0.0000000000    3  z   0.0000000000
  H       :     4  x  -0.5474479892    5  y  -1.1251939574    6  z  -1.4868610816
  H       :     7  x   1.3709131557    8  y  -1.0390111078    9  z   0.6791448926
  H       :    10  x  -1.2511158578   11  y  -0.0249273773   12  z   1.4722894034
  O       :    13  x  -2.9637500784   14  y  -3.7785300636   15  z  -2.5762768543
  O       :    16  x   3.7238206026   17  y  -4.0609212871   18  z   1.1740679442
  O       :    19  x   0.8136385907   20  y   5.0605127079   21  z  -0.5451519720
  O       :    22  x  -5.8660519324   23  y   0.4544640153   24  z   3.7728589955
  H       :    25  x  -1.6127055032   26  y  -4.7653752817   27  z  -3.3489499620
  H       :    28  x  -4.5378163515   29  y  -3.9430533995   30  z  -3.7632383998
  H       :    31  x   5.2128303028   32  y  -4.7569074190   33  z   0.3287159697
  H       :    34  x   2.3565470594   35  y  -4.1347188718   36  z  -0.0657964842
  H       :    37  x   2.5751505775   38  y   5.7765223778   39  z  -0.0815719179
  H       :    40  x   0.7501041086   41  y   3.1507989497   42  z  -0.3968424862
  H       :    43  x  -6.5953747228   44  y   1.1739696784   45  z   2.2707969570
  H       :    46  x  -4.8997026839   47  y   1.7370853870   48  z   4.6008991890


   Interatomic separations (in Angstrom):
   --------------------------------------

            N           H           H           H           O           O     
            ------      ------      ------      ------      ------      ------
 N     :    0.000000
 H     :    1.028364    0.000000
 H     :    0.978647    1.531794    0.000000
 H     :    1.022497    1.711650    1.545748    0.000000
 O     :    2.883812    1.984629    3.214160    3.058879    0.000000
 O     :    2.981121    3.083009    2.043547    3.393680    4.060153    0.000000
 O     :    2.727599    3.388484    3.305289    3.094442    5.198956    5.147603
 O     :    3.698626    4.045612    4.239208    2.740508    4.320275    5.775263
 H     :    3.198135    2.235927    3.305275    3.583078    0.975210    3.720551
 H     :    3.753109    2.851930    4.202924    3.872943    1.046866    5.093466
 H     :    3.738472    3.729347    2.835219    4.282152    4.620922    0.978072
 H     :    2.518658    2.337374    1.763821    3.006142    3.118778    0.977496
 H     :    3.347073    4.077040    3.684547    3.768382    5.991679    5.283070
 H     :    1.726746    2.433979    2.312550    2.218999    4.317199    4.210856
 H     :    3.743108    3.959419    4.455546    2.928989    4.140117    6.150594
 H     :    3.673604    4.239882    4.180416    2.708905    4.898300    5.790205

            O           O           H           H           H           H     
            ------      ------      ------      ------      ------      ------
 O     :    0.000000
 O     :    4.863803    0.000000
 H     :    5.557532    5.186418    0.000000
 H     :    5.798255    4.670424    1.622782    0.000000
 H     :    5.711641    6.730380    4.102855    5.612312    0.000000
 H     :    4.940448    5.381163    2.746210    4.141131    1.560948    0.000000
 H     :    1.035688    5.660832    6.246656    6.664674    5.750256    5.246085
 H     :    1.014177    4.377487    4.642414    5.009536    4.820284    3.951824
 H     :    4.671417    0.962141    5.066975    4.325908    7.067650    5.644581
 H     :    4.432764    0.956128    5.706446    5.353687    6.749589    5.522473

            H           H           H           H     
            ------      ------      ------      ------
 H     :    0.000000
 H     :    1.700349    0.000000
 H     :    5.570597    4.265714    0.000000
 H     :    5.133729    4.061114    1.553816    0.000000


  Max    interatomic separation is    7.0677 Angstrom (   13.3559 Bohr)
  between atoms   15 and   11, "H     " and "H     ".

  Min HX interatomic separation is    0.9561 Angstrom (    1.8068 Bohr)

  Min YX interatomic separation is    2.7276 Angstrom (    5.1544 Bohr)


  Bond distances (Angstrom):
  --------------------------

                  atom 1     atom 2       distance
                  ------     ------       --------
  bond distance:  H          N            1.028364
  bond distance:  H          N            0.978647
  bond distance:  H          N            1.022497
  bond distance:  H          O            0.975210
  bond distance:  H          O            1.046866
  bond distance:  H          O            0.978072
  bond distance:  H          O            0.977496
  bond distance:  H          O            1.035688
  bond distance:  H          O            1.014177
  bond distance:  H          O            0.962141
  bond distance:  H          O            0.956128


  Bond angles (degrees):
  ----------------------

                  atom 1     atom 2     atom 3         angle
                  ------     ------     ------         -----
  bond angle:     H          N          H             99.468
  bond angle:     H          N          H            113.148
  bond angle:     H          N          H            101.123
  bond angle:     H          O          H            106.692
  bond angle:     H          O          H            105.918
  bond angle:     H          O          H            112.089
  bond angle:     H          O          H            108.193




 Principal moments of inertia (u*A**2) and principal axes
 --------------------------------------------------------

   IA     356.232876          0.680719   -0.686091   -0.256712
   IB     418.933396          0.698951    0.713220   -0.052761
   IC     576.457040          0.219291   -0.143514    0.965047


 Rotational constants
 --------------------

               A                   B                   C

           1418.6759           1206.3469            876.6985 MHz
            0.047322            0.040239            0.029244 cm-1


@  Nuclear repulsion energy :  183.073223734266 Hartree


                     .---------------------------------------.
                     | Starting in Integral Section (HERMIT) |
                     `---------------------------------------'



 ***************************************************************************************
 ****************** Output from **INTEGRALS input processing (HERMIT) ******************
 ***************************************************************************************



    *************************************************************************
    ****************** Output from HERMIT input processing ******************
    *************************************************************************


 Default print level:        1

 * Nuclear model: Point charge

 Calculation of one- and two-electron Hamiltonian integrals.

 The following one-electron property integrals are calculated as requested:
          - overlap integrals
          - dipole length integrals

 Center of mass  (bohr):     -0.852042931295     -0.507391989554      0.330181864489
 Operator center (bohr):      0.000000000000      0.000000000000      0.000000000000
 Gauge origin    (bohr):      0.000000000000      0.000000000000      0.000000000000
 Dipole origin   (bohr):      0.000000000000      0.000000000000      0.000000000000
 
  *********************************** 
  QMMM electrostatic potential: 
  Multipole order                                    0
  Isotropic polarization  
  *********************************** 
 
  ---------------- 
  QMMM information 
  ---------------- 
 
  MM coordinates in au 
  -------------------- 
     1    -11.119511      3.915533      9.887865
     2    -12.506062      4.186363      8.653368
     3    -11.470974      4.588276     11.541145
     4    -10.263378     -7.644581      6.486207
     5     -9.185590     -9.092370      6.071603
     6     -9.457526     -6.009681      6.668071
     7     -2.094223      0.423068      9.543374
     8     -0.638841     -0.263947      8.541065
     9     -2.503233     -0.971193     10.729045
    10     -6.767909      7.345229      8.751898
    11     -8.429824      6.508821      8.968385
    12     -7.133692      8.952472      7.698092
    13     -5.474399     -4.477145      1.629505
    14     -5.348053     -2.889699      2.555703
    15     -4.119669     -4.220809      0.332919
    16      6.990821      0.803375     -0.635061
    17      5.972931     -0.307311     -1.726074
    18      8.238306     -0.287151      0.174303
    19    -11.380602      5.335925     -8.515095
    20    -13.115387      5.842262     -7.953389
    21    -10.603106      5.141637     -6.886011
    22      2.939563    -10.066858    -10.774472
    23      1.970397     -8.452841    -10.629141
    24      3.520420     -9.916814    -12.545261
    25      8.962635     -6.913323     -5.910699
    26      8.582800     -5.449660     -7.037382
    27      7.834319     -8.208290     -6.587657
    28     -4.202942      2.559286     -7.365098
    29     -3.682662      3.106765     -9.065409
    30     -4.855530      0.881185     -7.616673
    31     -2.288638      9.031729     -6.895085
    32     -2.065558      9.403568     -8.757688
    33     -1.533233      7.399584     -6.701912
    34     -9.112862      1.907149     -0.282531
    35     -8.136841      2.968261     -1.511282
    36     -9.985209      3.250395      0.748844
    37    -10.028839     11.582147      1.275905
    38    -11.367455     12.806464      1.424691
    39     -9.017792     12.108055     -0.155243
    40      9.082942      5.345440      5.851493
    41      8.490823      6.905917      6.645152
    42      7.592846      4.284209      5.208136
    43      4.099069     -1.252114     -4.320725
    44      3.675861     -0.013988     -5.724262
    45      3.083406     -2.833240     -4.619668
    46     -6.664336    -10.598242     11.311876
    47     -6.817055    -12.064730     10.208741
    48     -7.499869    -11.296034     12.885908
    49    -11.276211      6.234412      1.737059
    50    -10.523392      7.856886      1.543566
    51    -12.037476      6.183195      3.441065
    52     -4.722783     -5.684954     10.855972
    53     -5.366739     -4.589372     12.226027
    54     -5.543364     -7.369218     11.101378
    55      4.412601     -9.446251      7.986546
    56      4.960325    -11.262433      7.569963
    57      3.072205     -8.734084      6.960906
    58      9.224318     -8.108165      9.842843
    59     10.796790     -8.153235      8.812657
    60      7.664701     -8.237838      8.846224
    61      3.137217      5.951479     10.619208
    62      1.291573      6.273524     10.793951
    63      3.403771      4.730207     11.948321
    64     10.112627     10.842888     11.688920
    65      9.627412     12.752089     11.576200
    66      9.688388     10.516944     13.444611
    67      6.086307     10.782146      3.237055
    68      7.264797     12.152547      2.760597
    69      6.612148     10.338828      4.936492
    70      2.577193     -0.892123      7.504565
    71      3.630702     -1.174837      8.991245
    72      3.388366      0.306778      6.328746
    73      0.413482    -10.727832     -4.162152
    74     -0.681118    -11.934834     -5.192903
    75     -0.501815    -10.489152     -2.587989
    76     -0.102470      4.266370     -5.490223
    77     -1.389347      2.965661     -5.610803
    78      0.547178      4.524025     -3.691257
    79    -11.051451     -2.636062      0.158898
    80     -9.503057     -3.483383      0.757844
    81    -10.523526     -0.971949     -0.254121
    82      6.423682      9.177844      8.334537
    83      5.344799      8.045813      9.550411
    84      7.582148     10.174045      9.467628
    85      5.156724      2.620404      4.036362
    86      3.948721      4.006112      3.997753
    87      5.561150      2.278664      2.190034
    88      4.173095      2.937173     -8.551264
    89      5.403283      4.319334     -8.000794
    90      2.782085      3.329321     -7.397752
    91      0.182514     -5.887960     -5.436529
    92      0.158291     -5.700268     -7.422593
    93      0.565066     -7.800750     -5.077590
    94      7.399531      6.532864     -6.704756
    95      7.815310      6.091200     -4.915304
    96      7.235741      8.340336     -7.105372
    97      9.418803      4.604174     -2.488996
    98      8.864828      2.954436     -1.805707
    99     10.600169      5.286433     -1.235760
   100      6.522059    -11.505267     -7.487947
   101      5.219609    -10.947822     -8.711934
   102      5.550936    -11.755862     -5.949226
   103     -3.447255     -7.934176      4.653702
   104     -1.920035     -6.999823      5.095329
   105     -4.520336     -6.624499      3.748022
   106      0.387615     -5.332314    -10.545987
   107      1.581841     -4.053986    -11.017385
   108     -1.286758     -5.200128    -11.388988
   109      8.038118     -5.678223     -1.091203
   110      9.503750     -4.607213     -1.055767
   111      8.077192     -6.434739     -2.758545
   112     -3.248532      5.142629      5.288242
   113     -4.079996      6.083255      6.670293
   114     -1.407494      5.620165      5.134819
   115     -1.659510     10.528864    -11.521222
   116     -0.072405     11.356723    -11.097033
   117     -2.929308     11.797855    -11.998315
   118     -3.240599      7.877586      0.544651
   119     -1.885009      6.609538      0.008954
   120     -3.625600      7.192919      2.271600
   121     -7.211784     -8.730678     -2.945163
   122     -7.295424     -9.831429     -4.365076
   123     -5.462097     -9.083783     -2.349837
   124      4.729291     10.993865     -2.350375
   125      4.665341      9.238850     -1.984522
   126      3.125847     11.634908     -2.645509
   127     -7.520233      5.115175     -4.320086
   128     -6.415626      6.381482     -3.450041
   129     -6.217743      4.147348     -5.343146
   130      0.903098     10.957581      3.662423
   131      0.081086     12.267305      4.760696
   132      2.751778     11.346836      3.434982
   133      4.813297     -1.751160    -11.500750
   134      6.572912     -2.362435    -11.395126
   135      5.110347     -0.144453    -10.610304
   136      9.596354     -9.079705      2.933537
   137     10.715093     -8.178429      4.231717
   138      9.216975     -7.972558      1.473006
   139      1.573465      5.959932      5.514104
   140      1.605396      7.770849      5.077554
   141      2.017489      6.039483      7.345248
   142    -11.694234     -0.911521     -6.683307
   143    -12.405156     -2.018466     -7.998867
   144    -12.091052      0.780190     -7.388389
   145      5.741149      6.512705      0.574397
   146      6.216454      7.941319      1.590507
   147      7.213228      6.154430     -0.582245
   148     -7.443429     10.814137     -7.108139
   149     -5.834155     10.088804     -6.382212
   150     -8.721165      9.416339     -7.119188
   151     -2.611057    -10.469599     -0.371545
   152     -2.502570    -12.381045      0.302337
   153     -2.602962     -9.206971      1.104919
   154     -6.455412     -2.216751     -8.594335
   155     -7.857009     -1.352914     -9.604112
   156     -7.345668     -2.745870     -7.051642
   157      9.860855     -3.438045    -10.638742
   158     11.348068     -2.662010    -11.530393
   159      9.800802     -4.947857    -11.690581
   160      1.494494     -6.214075      5.231565
   161      1.730445     -4.608571      6.213289
   162      2.643292     -5.821050      3.811653
   163     -7.200008    -11.535926      5.414124
   164     -7.940958    -12.103424      3.813261
   165     -5.322982    -11.141285      5.099781
   166     -2.138571      5.253040    -11.735946
   167     -2.043930      3.706326    -12.861710
   168     -2.903237      6.663539    -12.583473
   169     -7.578584     -3.355422      7.072018
   170     -7.103709     -1.801064      6.067419
   171     -6.073850     -3.988142      7.991540
   172    -10.058030     -1.067261     10.788940
   173     -9.109194     -1.729251      9.290066
   174    -10.430115      0.896297     10.451639
   175     -7.974168     -4.006594     -4.288531
   176     -7.834100     -5.846934     -3.910703
   177     -9.625507     -3.427179     -3.545901
 
  MM charges 
  ---------- 
     1     -0.674440
     2      0.337220
     3      0.337220
     4     -0.674440
     5      0.337220
     6      0.337220
     7     -0.674440
     8      0.337220
     9      0.337220
    10     -0.674440
    11      0.337220
    12      0.337220
    13     -0.674440
    14      0.337220
    15      0.337220
    16     -0.674440
    17      0.337220
    18      0.337220
    19     -0.674440
    20      0.337220
    21      0.337220
    22     -0.674440
    23      0.337220
    24      0.337220
    25     -0.674440
    26      0.337220
    27      0.337220
    28     -0.674440
    29      0.337220
    30      0.337220
    31     -0.674440
    32      0.337220
    33      0.337220
    34     -0.674440
    35      0.337220
    36      0.337220
    37     -0.674440
    38      0.337220
    39      0.337220
    40     -0.674440
    41      0.337220
    42      0.337220
    43     -0.674440
    44      0.337220
    45      0.337220
    46     -0.674440
    47      0.337220
    48      0.337220
    49     -0.674440
    50      0.337220
    51      0.337220
    52     -0.674440
    53      0.337220
    54      0.337220
    55     -0.674440
    56      0.337220
    57      0.337220
    58     -0.674440
    59      0.337220
    60      0.337220
    61     -0.674440
    62      0.337220
    63      0.337220
    64     -0.674440
    65      0.337220
    66      0.337220
    67     -0.674440
    68      0.337220
    69      0.337220
    70     -0.674440
    71      0.337220
    72      0.337220
    73     -0.674440
    74      0.337220
    75      0.337220
    76     -0.674440
    77      0.337220
    78      0.337220
    79     -0.674440
    80      0.337220
    81      0.337220
    82     -0.674440
    83      0.337220
    84      0.337220
    85     -0.674440
    86      0.337220
    87      0.337220
    88     -0.674440
    89      0.337220
    90      0.337220
    91     -0.674440
    92      0.337220
    93      0.337220
    94     -0.674440
    95      0.337220
    96      0.337220
    97     -0.674440
    98      0.337220
    99      0.337220
   100     -0.674440
   101      0.337220
   102      0.337220
   103     -0.674440
   104      0.337220
   105      0.337220
   106     -0.674440
   107      0.337220
   108      0.337220
   109     -0.674440
   110      0.337220
   111      0.337220
   112     -0.674440
   113      0.337220
   114      0.337220
   115     -0.674440
   116      0.337220
   117      0.337220
   118     -0.674440
   119      0.337220
   120      0.337220
   121     -0.674440
   122      0.337220
   123      0.337220
   124     -0.674440
   125      0.337220
   126      0.337220
   127     -0.674440
   128      0.337220
   129      0.337220
   130     -0.674440
   131      0.337220
   132      0.337220
   133     -0.674440
   134      0.337220
   135      0.337220
   136     -0.674440
   137      0.337220
   138      0.337220
   139     -0.674440
   140      0.337220
   141      0.337220
   142     -0.674440
   143      0.337220
   144      0.337220
   145     -0.674440
   146      0.337220
   147      0.337220
   148     -0.674440
   149      0.337220
   150      0.337220
   151     -0.674440
   152      0.337220
   153      0.337220
   154     -0.674440
   155      0.337220
   156      0.337220
   157     -0.674440
   158      0.337220
   159      0.337220
   160     -0.674440
   161      0.337220
   162      0.337220
   163     -0.674440
   164      0.337220
   165      0.337220
   166     -0.674440
   167      0.337220
   168      0.337220
   169     -0.674440
   170      0.337220
   171      0.337220
   172     -0.674440
   173      0.337220
   174      0.337220
   175     -0.674440
   176      0.337220
   177      0.337220
 
  MM isotropic polarizabilities in au 
  ----------------------------------- 
     1      5.739350
     2      2.308390
     3      2.308390
     4      5.739350
     5      2.308390
     6      2.308390
     7      5.739350
     8      2.308390
     9      2.308390
    10      5.739350
    11      2.308390
    12      2.308390
    13      5.739350
    14      2.308390
    15      2.308390
    16      5.739350
    17      2.308390
    18      2.308390
    19      5.739350
    20      2.308390
    21      2.308390
    22      5.739350
    23      2.308390
    24      2.308390
    25      5.739350
    26      2.308390
    27      2.308390
    28      5.739350
    29      2.308390
    30      2.308390
    31      5.739350
    32      2.308390
    33      2.308390
    34      5.739350
    35      2.308390
    36      2.308390
    37      5.739350
    38      2.308390
    39      2.308390
    40      5.739350
    41      2.308390
    42      2.308390
    43      5.739350
    44      2.308390
    45      2.308390
    46      5.739350
    47      2.308390
    48      2.308390
    49      5.739350
    50      2.308390
    51      2.308390
    52      5.739350
    53      2.308390
    54      2.308390
    55      5.739350
    56      2.308390
    57      2.308390
    58      5.739350
    59      2.308390
    60      2.308390
    61      5.739350
    62      2.308390
    63      2.308390
    64      5.739350
    65      2.308390
    66      2.308390
    67      5.739350
    68      2.308390
    69      2.308390
    70      5.739350
    71      2.308390
    72      2.308390
    73      5.739350
    74      2.308390
    75      2.308390
    76      5.739350
    77      2.308390
    78      2.308390
    79      5.739350
    80      2.308390
    81      2.308390
    82      5.739350
    83      2.308390
    84      2.308390
    85      5.739350
    86      2.308390
    87      2.308390
    88      5.739350
    89      2.308390
    90      2.308390
    91      5.739350
    92      2.308390
    93      2.308390
    94      5.739350
    95      2.308390
    96      2.308390
    97      5.739350
    98      2.308390
    99      2.308390
   100      5.739350
   101      2.308390
   102      2.308390
   103      5.739350
   104      2.308390
   105      2.308390
   106      5.739350
   107      2.308390
   108      2.308390
   109      5.739350
   110      2.308390
   111      2.308390
   112      5.739350
   113      2.308390
   114      2.308390
   115      5.739350
   116      2.308390
   117      2.308390
   118      5.739350
   119      2.308390
   120      2.308390
   121      5.739350
   122      2.308390
   123      2.308390
   124      5.739350
   125      2.308390
   126      2.308390
   127      5.739350
   128      2.308390
   129      2.308390
   130      5.739350
   131      2.308390
   132      2.308390
   133      5.739350
   134      2.308390
   135      2.308390
   136      5.739350
   137      2.308390
   138      2.308390
   139      5.739350
   140      2.308390
   141      2.308390
   142      5.739350
   143      2.308390
   144      2.308390
   145      5.739350
   146      2.308390
   147      2.308390
   148      5.739350
   149      2.308390
   150      2.308390
   151      5.739350
   152      2.308390
   153      2.308390
   154      5.739350
   155      2.308390
   156      2.308390
   157      5.739350
   158      2.308390
   159      2.308390
   160      5.739350
   161      2.308390
   162      2.308390
   163      5.739350
   164      2.308390
   165      2.308390
   166      5.739350
   167      2.308390
   168      2.308390
   169      5.739350
   170      2.308390
   171      2.308390
   172      5.739350
   173      2.308390
   174      2.308390
   175      5.739350
   176      2.308390
   177      2.308390


     ************************************************************************
     ************************** Output from HERINT **************************
     ************************************************************************



                      Nuclear contribution to dipole moments
                      --------------------------------------

                 au               Debye          C m (/(10**-30)

      x    -41.51736044      -105.52659762      -351.99884053
      y    -26.54660804       -67.47474297      -225.07151589
      z     14.81257099        37.64979762       125.58620676



 Threshold for neglecting two-electron integrals:  1.00D-12
 HERMIT - Number of two-electron integrals written:    23360207 ( 49.3% )
 HERMIT - Megabytes written:                            267.487

  Time used in TWOINT     is       3.97 seconds
  Total CPU  time used in HERMIT:   4.13 seconds
  Total wall time used in HERMIT:   4.65 seconds


                        .----------------------------------.
                        | End of Integral Section (HERMIT) |
                        `----------------------------------'



                   .--------------------------------------------.
                   | Starting in Wave Function Section (SIRIUS) |
                   `--------------------------------------------'

NCCEXCI for singlet:   25
 CCSD_INPUT: core-val requested
 Requested number of core orbs per sym
                     1
 Indices of requested core orbs
                     1

 *** Output from Huckel module :

     Using EWMO model:          T
     Using EHT  model:          F
     Number of Huckel orbitals each symmetry:   36

 EWMO - Energy Weighted Maximum Overlap - is a Huckel type method,
        which normally is better than Extended Huckel Theory.
 Reference: Linderberg and Ohrn, Propagators in Quantum Chemistry (Wiley, 1973)

 Huckel EWMO eigenvalues for symmetry :  1
          -20.684941     -20.684706     -20.684252     -20.684025     -15.674299
           -1.756025      -1.611654      -1.589881      -1.579552      -1.441409
           -0.842181      -0.792638      -0.788212      -0.785638      -0.733949
           -0.710084      -0.685551      -0.681994      -0.678524      -0.658182
           -0.616014      -0.615359      -0.597781      -0.581449      -0.509841
           -0.262033      -0.241275      -0.233933      -0.232595      -0.185109
           -0.180177      -0.170432      -0.167976      -0.157303      -0.142964
           -0.133861

 **********************************************************************
 *SIRIUS* a direct, restricted step, second order MCSCF program       *
 **********************************************************************

 
     Date and time (Linux)  : Mon Jun 11 17:22:42 2018
     Host name              : n-62-29-9                               

 Title lines from ".mol" input file:
                                                                             
                                                                             

 Print level on unit LUPRI =   2 is   0
 Print level on unit LUW4  =   2 is  11

@    (Integral direct) CC calculation.

@    This is a combination run starting with
@              a restricted, closed shell Hartree-Fock calculation


 Initial molecular orbitals are obtained according to
 ".MOSTART EWMO  " input option

@    QM part is embedded in an environment :

@         Model: QMMM

     Wave function specification
     ============================

     For the specification of the Coupled Cluster: see later.

@    Wave function type        --- CC ---
@    Number of closed shell electrons          50
@    Number of electrons in active shells       0
@    Total charge of the molecule               0

@    Spin multiplicity and 2 M_S                1         0
@    Total number of symmetries                 1 (point group: C1 )
@    Reference state symmetry                   1 (irrep name : A  )

     Orbital specifications
     ======================
@    Abelian symmetry species          All |    1
@                                          |  A  
                                       --- |  ---
@    Occupied SCF orbitals              25 |   25
@    Secondary orbitals                114 |  114
@    Total number of orbitals          139 |  139
@    Number of basis functions         139 |  139

     Optimization information
     ========================
@    Number of configurations                 1
@    Number of orbital rotations           2850
     ------------------------------------------
@    Total number of variables             2851

     Maximum number of Fock   iterations      0
     Maximum number of DIIS   iterations     60
     Maximum number of QC-SCF iterations     60
     Threshold for SCF convergence     1.00D-07


 Changes of defaults for CC:
 ---------------------------


 -Implicit frozen core calculation
 -Excitation energies calculated
 -One-photon absorption strengths will be calculated
 -Oscillator strengths calculated
  
* Read MO coefficients from SIRIUS.RST with label "NEWORB  " and header info: 11Jun18  REORTHO 


 ***********************************************
 ***** DIIS acceleration of SCF iterations *****
 ***********************************************

 C1-DIIS algorithm; max error vectors =    8
 -----------------------------------------------------------------------------

 *** DIIS iteration number    1
 RDSUPM called. NFMAT, ISYMDM(1:NFMAT)                     1
                     1

Calculating AOSUPINT
     (Precalculated two-electron integrals are transformed to P-supermatrix elements.
      Threshold for discarding integrals :  1.00D-12 )
  CPU  time used in FORMSUP    is   3.53 seconds
  WALL time used in FORMSUP    is   5.44 seconds

 ITDIIS, energy, error norm, change in energy, scr.thr., difden:
@ DIIS iter.   1    -359.842895047        3.56592D+00   -3.60D+02  -20    F

 (DIIS_RED) Control Parameters C2DIIS =         F NEVC =    1


 (DIIS_RED) B matrix:

               Column   1
       1      12.71581028
    ==== End of matrix output ====

 DIIS C vector; C2DIIS = F, LAMBDA = -1.27D+01
    1.000000
* Read MO coefficients from SIRIUS.RST with label "NEWORB  " and header info: 11Jun18  DIIS   1
      Virial theorem: -V/T =      2.000904
@      MULPOP N      -0.68; H       0.17; H       0.23; H       0.19; O      -0.50; O      -0.57; O      -0.77; O      -0.56; H       0.31; H       0.27; 
@             H       0.28; H       0.34; H       0.27; H       0.41; H       0.29; H       0.31; 
   1  Level shift: doubly occupied orbital energies shifted by -2.00D-01

 DIIS Fock eigenvalues in symmetry 1
      -20.75117      -20.74452      -20.73473      -20.54892      -15.97947
       -1.56462       -1.54397       -1.51876       -1.46296       -1.42500
       -0.96993       -0.95321       -0.92740       -0.92269       -0.88996
       -0.85970       -0.80242       -0.78889       -0.77845       -0.75728
       -0.74112       -0.73837       -0.72730       -0.67297       -0.64187
        0.06445        0.11352        0.12213        0.17372        0.21364
        0.23208        0.24492        0.25827        0.28179        0.30469
        0.31450        0.32702        0.33717        0.36445        0.38676
        0.40095        0.40747        0.48912        0.59559        0.63448
        0.76303        0.83536        0.92964        0.96029        0.97222
        1.00821        1.04203        1.04418        1.07246        1.09345
        1.09518        1.11290        1.15599        1.17939        1.18264
        1.19971        1.23655        1.25476        1.27451        1.28263
        1.29426        1.29841        1.31070        1.36981        1.40059
        1.40676        1.43834        1.56549        1.60087        1.65122
        1.68844        1.71790        1.74987        1.75671        1.76510
        1.79690        1.81621        1.83748        1.84412        1.85646
        1.87088        1.89404        1.90795        1.93144        1.96193
        1.99205        2.03605        2.21098        2.26741        2.45555
        2.46513        2.48552        2.49303        2.50752        2.51901
        2.55673        2.58652        2.64686        2.68590        2.70603
        2.73399        2.75053        2.78821        2.80572        2.83857
        2.84953        2.88525        2.90653        2.91563        2.93351
        2.94257        2.95102        2.97313        3.03645        3.05849
        3.10619        3.26709        3.29057        3.29803        3.33826
        3.34961        3.46394        3.64694        3.68850        3.73563
        3.75047        3.87777        3.88200        3.89917        3.90918
        4.48776        5.04835        5.08395       36.84730
 Time used in FCKEIG, thr_jaco:   2.90D-02  3.10D-02  1.67D-04
 CPU and wall times used in FCKEIG, THR_FCKEIG:   2.90D-02  3.10D-02  3.57D-02
 -----------------------------------------------------------------------------

 *** DIIS iteration number    2
 RDSUPM called. NFMAT, ISYMDM(1:NFMAT)                     1
                     1

 ITDIIS, energy, error norm, change in energy, scr.thr., difden:
@ DIIS iter.   2    -360.652865792        8.86208D-01   -8.10D-01  -20    F

 (DIIS_RED) Control Parameters C2DIIS =         F NEVC =    2


 (DIIS_RED) B matrix:

               Column   1     Column   2
       1      12.71581028
       2       1.37510036     0.78536513
    ==== End of matrix output ====

 DIIS C vector; C2DIIS = F, LAMBDA = -7.53D-01
   -0.054854    1.054854
* Read MO coefficients from SIRIUS.RST with label "NEWORB  " and header info: 11Jun18  DIIS   2
      Virial theorem: -V/T =      2.004671
@      MULPOP N      -0.91; H       0.25; H       0.26; H       0.27; O      -0.70; O      -0.64; O      -0.78; O      -0.68; H       0.39; H       0.38; 
@             H       0.36; H       0.32; H       0.33; H       0.44; H       0.35; H       0.36; 
   2  Level shift: doubly occupied orbital energies shifted by -5.00D-02

 DIIS Fock eigenvalues in symmetry 1
      -20.67645      -20.66135      -20.60884      -20.59080      -15.44962
       -1.40659       -1.36751       -1.35586       -1.35029       -1.15279
       -0.77233       -0.73656       -0.72759       -0.70967       -0.65898
       -0.64968       -0.63706       -0.61663       -0.61368       -0.60071
       -0.57892       -0.55991       -0.54486       -0.54166       -0.45001
        0.09338        0.12511        0.13804        0.20778        0.24297
        0.26425        0.27528        0.30368        0.31596        0.34115
        0.35521        0.36420        0.37175        0.41545        0.42960
        0.44678        0.45506        0.52125        0.66765        0.70650
        0.85220        0.93577        1.02347        1.04402        1.05279
        1.06683        1.08660        1.09603        1.10543        1.13317
        1.15130        1.15408        1.19260        1.19695        1.20722
        1.22198        1.22914        1.27555        1.30948        1.31948
        1.32419        1.33916        1.36583        1.38500        1.43527
        1.45143        1.50790        1.61348        1.65162        1.70338
        1.75975        1.77074        1.79518        1.80590        1.82058
        1.83077        1.86273        1.87813        1.89205        1.89547
        1.91948        1.93490        1.94574        2.00307        2.01021
        2.03701        2.09048        2.33744        2.37953        2.50198
        2.51559        2.54267        2.55606        2.58891        2.59008
        2.60936        2.66312        2.71845        2.74966        2.76431
        2.81152        2.81353        2.84790        2.88308        2.90142
        2.92630        2.95109        2.98563        3.00325        3.01111
        3.01505        3.02888        3.07006        3.10215        3.16732
        3.23237        3.30692        3.34552        3.35872        3.41118
        3.52685        3.65813        3.71461        3.74001        3.75918
        3.82660        3.91206        3.93280        3.93741        3.94629
        4.71847        5.29516        5.33299       37.22090
 Time used in FCKEIG, thr_jaco:   2.40D-02  2.50D-02  4.15D-05
 CPU and wall times used in FCKEIG, THR_FCKEIG:   2.40D-02  2.50D-02  8.86D-03
 -----------------------------------------------------------------------------

 *** DIIS iteration number    3
 RDSUPM called. NFMAT, ISYMDM(1:NFMAT)                     1
                     1

 ITDIIS, energy, error norm, change in energy, scr.thr., difden:
@ DIIS iter.   3    -360.714072639        3.52326D-01   -6.12D-02  -20    F

 (DIIS_RED) Control Parameters C2DIIS =         F NEVC =    3


 (DIIS_RED) B matrix:

               Column   1     Column   2     Column   3
       1      12.71581028
       2       1.37510036     0.78536513
       3       0.61688020     0.02363490     0.12413370
    ==== End of matrix output ====

 DIIS C vector; C2DIIS = F, LAMBDA = -7.97D-02
   -0.055143    0.171475    0.883668
* Read MO coefficients from SIRIUS.RST with label "NEWORB  " and header info: 11Jun18  DIIS   3
      Virial theorem: -V/T =      2.003338
@      MULPOP N      -0.85; H       0.23; H       0.24; H       0.24; O      -0.82; O      -0.75; O      -0.93; O      -0.77; H       0.44; H       0.43; 
@             H       0.42; H       0.36; H       0.42; H       0.51; H       0.40; H       0.40; 
   3  Level shift: doubly occupied orbital energies shifted by -2.50D-02

 DIIS Fock eigenvalues in symmetry 1
      -20.58637      -20.56071      -20.55569      -20.51381      -15.56672
       -1.36339       -1.33845       -1.31295       -1.28522       -1.16680
       -0.73206       -0.70553       -0.67724       -0.66985       -0.65080
       -0.63241       -0.60530       -0.58323       -0.56571       -0.54752
       -0.53472       -0.50776       -0.50029       -0.48239       -0.44847
        0.09493        0.12613        0.14057        0.21130        0.24402
        0.26464        0.27746        0.30777        0.32033        0.34629
        0.36125        0.36550        0.37405        0.41673        0.43127
        0.45110        0.45600        0.53169        0.66208        0.70025
        0.84936        0.93032        1.02576        1.03109        1.05269
        1.06713        1.09485        1.09929        1.11604        1.15000
        1.15955        1.16323        1.20518        1.22087        1.23076
        1.24014        1.24715        1.28564        1.31988        1.32757
        1.33097        1.35229        1.36430        1.40712        1.43658
        1.45490        1.50957        1.62340        1.65738        1.71486
        1.77023        1.78339        1.81452        1.82044        1.83324
        1.84572        1.88206        1.89127        1.90194        1.91111
        1.93186        1.95256        1.96267        2.00867        2.01991
        2.04368        2.09273        2.32583        2.37049        2.51867
        2.52893        2.55423        2.56830        2.59515        2.59727
        2.61786        2.68208        2.71629        2.76109        2.77642
        2.81909        2.82546        2.85593        2.89333        2.91055
        2.94076        2.94491        2.98619        3.00651        3.01095
        3.02248        3.03623        3.04745        3.10774        3.16474
        3.21688        3.32275        3.35378        3.36809        3.41845
        3.48625        3.61775        3.72426        3.76254        3.77325
        3.83500        3.93565        3.94590        3.94694        3.96229
        4.64965        5.23482        5.27145       37.08314
 Time used in FCKEIG, thr_jaco:   1.90D-02  2.10D-02  1.65D-05
 CPU and wall times used in FCKEIG, THR_FCKEIG:   1.90D-02  2.10D-02  3.52D-03
 -----------------------------------------------------------------------------

 *** DIIS iteration number    4
 RDSUPM called. NFMAT, ISYMDM(1:NFMAT)                     1
                     1

 ITDIIS, energy, error norm, change in energy, scr.thr., difden:
@ DIIS iter.   4    -360.722343604        9.86626D-02   -8.27D-03  -20    F

 (DIIS_RED) Control Parameters C2DIIS =         F NEVC =    4


 (DIIS_RED) B matrix:

               Column   1     Column   2     Column   3     Column   4
       1      12.71581028
       2       1.37510036     0.78536513
       3       0.61688020     0.02363490     0.12413370
       4       0.03949630     0.06751718    -0.00725431     0.00973431
    ==== End of matrix output ====

 DIIS C vector; C2DIIS = F, LAMBDA = -3.18D-03
    0.002436   -0.088644    0.088672    0.997536
* Read MO coefficients from SIRIUS.RST with label "NEWORB  " and header info: 11Jun18  DIIS   4
      Virial theorem: -V/T =      2.004029
@      MULPOP N      -0.91; H       0.25; H       0.26; H       0.26; O      -0.84; O      -0.76; O      -0.92; O      -0.80; H       0.45; H       0.44; 
@             H       0.43; H       0.36; H       0.43; H       0.51; H       0.41; H       0.42; 
   4  Level shift: doubly occupied orbital energies shifted by -1.25D-02

 DIIS Fock eigenvalues in symmetry 1
      -20.58723      -20.55157      -20.54925      -20.53403      -15.52604
       -1.35647       -1.32688       -1.30376       -1.28293       -1.14558
       -0.72367       -0.69417       -0.66739       -0.66231       -0.63273
       -0.61367       -0.59534       -0.56930       -0.55370       -0.54138
       -0.52363       -0.49211       -0.48701       -0.47684       -0.42769
        0.09491        0.12635        0.14130        0.21197        0.24503
        0.26516        0.27870        0.30687        0.31963        0.34499
        0.35966        0.36618        0.37387        0.41753        0.43175
        0.45011        0.45665        0.53248        0.66544        0.70379
        0.85239        0.93341        1.02897        1.03229        1.05507
        1.06790        1.09237        1.09724        1.11287        1.14866
        1.15743        1.16154        1.20690        1.22023        1.22868
        1.23708        1.24473        1.28547        1.31897        1.32761
        1.33102        1.35097        1.36661        1.40283        1.43858
        1.45482        1.51086        1.62185        1.65653        1.71260
        1.76908        1.78266        1.81171        1.81887        1.83207
        1.84323        1.88027        1.88943        1.90181        1.90875
        1.93065        1.95226        1.95952        2.01095        2.01907
        2.04443        2.09440        2.33063        2.37510        2.51569
        2.52694        2.55045        2.56530        2.59288        2.59456
        2.61776        2.67867        2.71896        2.76056        2.77433
        2.82041        2.82306        2.85542        2.89265        2.90875
        2.93677        2.94825        2.98660        3.00739        3.00996
        3.01988        3.03529        3.05492        3.10902        3.16807
        3.22241        3.32061        3.35163        3.36537        3.41702
        3.49751        3.62926        3.72135        3.75769        3.76876
        3.83294        3.93332        3.94388        3.94578        3.95903
        4.66616        5.24917        5.28623       37.11083
 Time used in FCKEIG, thr_jaco:   2.10D-02  2.30D-02  4.62D-06
 CPU and wall times used in FCKEIG, THR_FCKEIG:   2.10D-02  2.30D-02  9.87D-04
 -----------------------------------------------------------------------------

 *** DIIS iteration number    5
 RDSUPM called. NFMAT, ISYMDM(1:NFMAT)                     1
                     1

 ITDIIS, energy, error norm, change in energy, scr.thr., difden:
@ DIIS iter.   5    -360.723300370        2.07616D-02   -9.57D-04  -20    F

 (DIIS_RED) Control Parameters C2DIIS =         F NEVC =    5


 (DIIS_RED) B matrix:

               Column   1     Column   2     Column   3     Column   4     Column   5
       1      12.71581028
       2       1.37510036     0.78536513
       3       0.61688020     0.02363490     0.12413370
       4       0.03949630     0.06751718    -0.00725431     0.00973431
       5       0.00958559     0.00452065     0.00376294     0.00076151     0.00043105
    ==== End of matrix output ====

 DIIS C vector; C2DIIS = F, LAMBDA = -2.46D-04
    0.001532    0.004867   -0.051183   -0.145975    1.190759
* Read MO coefficients from SIRIUS.RST with label "NEWORB  " and header info: 11Jun18  DIIS   5
      Virial theorem: -V/T =      2.003814
@      MULPOP N      -0.91; H       0.25; H       0.25; H       0.26; O      -0.85; O      -0.77; O      -0.94; O      -0.81; H       0.46; H       0.45; 
@             H       0.44; H       0.37; H       0.44; H       0.52; H       0.42; H       0.42; 

 DIIS Fock eigenvalues in symmetry 1
      -20.57307      -20.53699      -20.53630      -20.51610      -15.51026
       -1.34329       -1.31412       -1.29054       -1.26840       -1.13189
       -0.71096       -0.68196       -0.65433       -0.64932       -0.61967
       -0.60028       -0.58250       -0.55685       -0.54076       -0.52725
       -0.50989       -0.47850       -0.47305       -0.46158       -0.41392
        0.09498        0.12642        0.14144        0.21232        0.24513
        0.26526        0.27896        0.30699        0.31970        0.34489
        0.35955        0.36629        0.37383        0.41757        0.43185
        0.45017        0.45698        0.53287        0.66579        0.70406
        0.85296        0.93403        1.02893        1.03286        1.05521
        1.06788        1.09271        1.09698        1.11294        1.14924
        1.15739        1.16162        1.20726        1.22141        1.22979
        1.23839        1.24589        1.28613        1.31919        1.32788
        1.33116        1.35148        1.36718        1.40365        1.43912
        1.45517        1.51139        1.62232        1.65664        1.71297
        1.76952        1.78317        1.81214        1.81918        1.83218
        1.84356        1.88087        1.88990        1.90192        1.90922
        1.93111        1.95253        1.96038        2.01148        2.01987
        2.04520        2.09519        2.33129        2.37542        2.51580
        2.52691        2.55025        2.56531        2.59236        2.59395
        2.61763        2.67915        2.71956        2.76119        2.77427
        2.82056        2.82327        2.85511        2.89305        2.90844
        2.93688        2.94839        2.98689        3.00749        3.00971
        3.01962        3.03487        3.05563        3.10936        3.16846
        3.22309        3.32066        3.35141        3.36512        3.41650
        3.49855        3.63037        3.72097        3.75806        3.76858
        3.83252        3.93388        3.94394        3.94546        3.95905
        4.66769        5.25078        5.28778       37.11404
 Time used in FCKEIG, thr_jaco:   1.80D-02  1.90D-02  9.72D-07
 CPU and wall times used in FCKEIG, THR_FCKEIG:   1.80D-02  1.90D-02  2.08D-04
 -----------------------------------------------------------------------------

 *** DIIS iteration number    6
 RDSUPM called. NFMAT, ISYMDM(1:NFMAT)                     1
                     1

 ITDIIS, energy, error norm, change in energy, scr.thr., difden:
@ DIIS iter.   6    -360.723368455        6.57442D-03   -6.81D-05  -20    F

 (DIIS_RED) Control Parameters C2DIIS =         F NEVC =    6


 (DIIS_RED) B matrix:

               Column   1     Column   2     Column   3     Column   4     Column   5     Column   6
       1      12.71581028
       2       1.37510036     0.78536513
       3       0.61688020     0.02363490     0.12413370
       4       0.03949630     0.06751718    -0.00725431     0.00973431
       5       0.00958559     0.00452065     0.00376294     0.00076151     0.00043105
       6      -0.00219793    -0.00033388     0.00037937     0.00017297     0.00005276     0.00004322
    ==== End of matrix output ====

 DIIS C vector; C2DIIS = F, LAMBDA = -2.52D-05
    0.000301    0.006899   -0.014915   -0.085802    0.145088    0.948430
* Read MO coefficients from SIRIUS.RST with label "NEWORB  " and header info: 11Jun18  DIIS   6
      Virial theorem: -V/T =      2.003936
@      MULPOP N      -0.91; H       0.25; H       0.25; H       0.26; O      -0.85; O      -0.77; O      -0.94; O      -0.81; H       0.46; H       0.45; 
@             H       0.44; H       0.37; H       0.44; H       0.52; H       0.42; H       0.43; 

 DIIS Fock eigenvalues in symmetry 1
      -20.57367      -20.53818      -20.53656      -20.51815      -15.51300
       -1.34347       -1.31416       -1.29093       -1.26891       -1.13275
       -0.71124       -0.68212       -0.65486       -0.64982       -0.62041
       -0.60097       -0.58284       -0.55705       -0.54131       -0.52784
       -0.51004       -0.47840       -0.47332       -0.46192       -0.41465
        0.09495        0.12641        0.14144        0.21226        0.24508
        0.26519        0.27888        0.30687        0.31956        0.34471
        0.35940        0.36616        0.37373        0.41740        0.43168
        0.44998        0.45674        0.53259        0.66554        0.70381
        0.85269        0.93361        1.02867        1.03234        1.05491
        1.06764        1.09237        1.09675        1.11273        1.14908
        1.15714        1.16145        1.20713        1.22114        1.22951
        1.23801        1.24562        1.28580        1.31889        1.32763
        1.33099        1.35117        1.36681        1.40325        1.43873
        1.45483        1.51098        1.62204        1.65657        1.71274
        1.76923        1.78279        1.81190        1.81891        1.83203
        1.84324        1.88053        1.88959        1.90178        1.90898
        1.93081        1.95238        1.96007        2.01112        2.01948
        2.04486        2.09477        2.33075        2.37489        2.51559
        2.52656        2.55004        2.56507        2.59204        2.59379
        2.61752        2.67884        2.71911        2.76082        2.77391
        2.82029        2.82296        2.85496        2.89277        2.90811
        2.93659        2.94787        2.98651        3.00715        3.00946
        3.01927        3.03473        3.05490        3.10906        3.16800
        3.22252        3.32040        3.35109        3.36485        3.41635
        3.49754        3.62934        3.72061        3.75771        3.76833
        3.83235        3.93350        3.94358        3.94529        3.95880
        4.66622        5.24940        5.28639       37.11136
 Time used in FCKEIG, thr_jaco:   1.90D-02  2.10D-02  3.08D-07
 CPU and wall times used in FCKEIG, THR_FCKEIG:   1.90D-02  2.10D-02  6.57D-05
 -----------------------------------------------------------------------------

 *** DIIS iteration number    7
 RDSUPM called. NFMAT, ISYMDM(1:NFMAT)                     1
                     1

 ITDIIS, energy, error norm, change in energy, scr.thr., difden:
@ DIIS iter.   7    -360.723373311        2.15609D-03   -4.86D-06  -20    F

 (DIIS_RED) Control Parameters C2DIIS =         F NEVC =    7


 (DIIS_RED) B matrix:

               Column   1     Column   2     Column   3     Column   4     Column   5     Column   6
       1      12.71581028
       2       1.37510036     0.78536513
       3       0.61688020     0.02363490     0.12413370
       4       0.03949630     0.06751718    -0.00725431     0.00973431
       5       0.00958559     0.00452065     0.00376294     0.00076151     0.00043105
       6      -0.00219793    -0.00033388     0.00037937     0.00017297     0.00005276     0.00004322
       7       0.00077593     0.00005937     0.00008625     0.00000488     0.00002770    -0.00000062

               Column   7
       7       0.00000465
    ==== End of matrix output ====

 DIIS C vector; C2DIIS = F, LAMBDA = -1.09D-06
   -0.000212   -0.000825    0.006114    0.021347   -0.151506    0.069091    1.055991
* Read MO coefficients from SIRIUS.RST with label "NEWORB  " and header info: 11Jun18  DIIS   7
      Virial theorem: -V/T =      2.003905
@      MULPOP N      -0.91; H       0.25; H       0.25; H       0.26; O      -0.85; O      -0.78; O      -0.94; O      -0.81; H       0.46; H       0.45; 
@             H       0.44; H       0.37; H       0.44; H       0.52; H       0.42; H       0.43; 

 DIIS Fock eigenvalues in symmetry 1
      -20.57359      -20.53790      -20.53653      -20.51747      -15.51242
       -1.34343       -1.31412       -1.29083       -1.26860       -1.13256
       -0.71122       -0.68212       -0.65472       -0.64968       -0.62028
       -0.60085       -0.58287       -0.55709       -0.54128       -0.52763
       -0.50998       -0.47832       -0.47317       -0.46157       -0.41442
        0.09496        0.12642        0.14147        0.21230        0.24512
        0.26522        0.27894        0.30686        0.31961        0.34475
        0.35943        0.36619        0.37375        0.41744        0.43171
        0.45000        0.45678        0.53275        0.66562        0.70388
        0.85275        0.93372        1.02870        1.03247        1.05499
        1.06769        1.09248        1.09677        1.11276        1.14912
        1.15716        1.16149        1.20715        1.22128        1.22964
        1.23818        1.24576        1.28589        1.31897        1.32769
        1.33104        1.35127        1.36687        1.40342        1.43887
        1.45491        1.51104        1.62211        1.65661        1.71278
        1.76927        1.78290        1.81196        1.81897        1.83207
        1.84332        1.88063        1.88968        1.90180        1.90904
        1.93086        1.95243        1.96022        2.01120        2.01962
        2.04496        2.09488        2.33084        2.37497        2.51572
        2.52661        2.55003        2.56508        2.59204        2.59379
        2.61754        2.67899        2.71919        2.76093        2.77395
        2.82036        2.82301        2.85498        2.89283        2.90815
        2.93668        2.94796        2.98656        3.00721        3.00949
        3.01928        3.03474        3.05507        3.10921        3.16808
        3.22264        3.32054        3.35113        3.36486        3.41636
        3.49776        3.62956        3.72062        3.75786        3.76833
        3.83236        3.93369        3.94365        3.94531        3.95881
        4.66656        5.24968        5.28667       37.11192
 Time used in FCKEIG, thr_jaco:   2.00D-02  2.20D-02  1.01D-07
 CPU and wall times used in FCKEIG, THR_FCKEIG:   2.00D-02  2.20D-02  2.16D-05
 -----------------------------------------------------------------------------

 *** DIIS iteration number    8
 RDSUPM called. NFMAT, ISYMDM(1:NFMAT)                     1
                     1

 ITDIIS, energy, error norm, change in energy, scr.thr., difden:
@ DIIS iter.   8    -360.723373779        3.37347D-04   -4.68D-07  -20    F

 (DIIS_RED) Control Parameters C2DIIS =         F NEVC =    8


 (DIIS_RED) B matrix:

               Column   1     Column   2     Column   3     Column   4     Column   5     Column   6
       1      12.71581028
       2       1.37510036     0.78536513
       3       0.61688020     0.02363490     0.12413370
       4       0.03949630     0.06751718    -0.00725431     0.00973431
       5       0.00958559     0.00452065     0.00376294     0.00076151     0.00043105
       6      -0.00219793    -0.00033388     0.00037937     0.00017297     0.00005276     0.00004322
       7       0.00077593     0.00005937     0.00008625     0.00000488     0.00002770    -0.00000062
       8       0.00000775    -0.00000575     0.00000611    -0.00000007     0.00000110     0.00000105

               Column   7     Column   8
       7       0.00000465
       8       0.00000022     0.00000011
    ==== End of matrix output ====

 DIIS C vector; C2DIIS = F, LAMBDA = -7.15D-08
    0.000006   -0.000204    0.000049    0.001745    0.006505   -0.043472   -0.083693    1.119063
* Read MO coefficients from SIRIUS.RST with label "NEWORB  " and header info: 11Jun18  DIIS   8
      Virial theorem: -V/T =      2.003920
@      MULPOP N      -0.91; H       0.25; H       0.25; H       0.26; O      -0.85; O      -0.78; O      -0.94; O      -0.81; H       0.46; H       0.45; 
@             H       0.44; H       0.37; H       0.44; H       0.52; H       0.42; H       0.43; 

 DIIS Fock eigenvalues in symmetry 1
      -20.57356      -20.53794      -20.53653      -20.51749      -15.51245
       -1.34342       -1.31413       -1.29084       -1.26860       -1.13256
       -0.71121       -0.68212       -0.65472       -0.64969       -0.62029
       -0.60085       -0.58286       -0.55710       -0.54130       -0.52764
       -0.50996       -0.47832       -0.47317       -0.46156       -0.41443
        0.09496        0.12642        0.14146        0.21230        0.24512
        0.26522        0.27894        0.30687        0.31961        0.34474
        0.35943        0.36619        0.37375        0.41744        0.43171
        0.45001        0.45678        0.53274        0.66561        0.70388
        0.85276        0.93372        1.02870        1.03246        1.05499
        1.06769        1.09248        1.09676        1.11276        1.14912
        1.15716        1.16148        1.20715        1.22127        1.22964
        1.23818        1.24575        1.28589        1.31897        1.32769
        1.33104        1.35127        1.36687        1.40342        1.43886
        1.45490        1.51104        1.62211        1.65660        1.71278
        1.76928        1.78289        1.81197        1.81896        1.83207
        1.84332        1.88063        1.88967        1.90179        1.90904
        1.93086        1.95243        1.96022        2.01120        2.01961
        2.04496        2.09487        2.33084        2.37496        2.51571
        2.52659        2.55004        2.56509        2.59203        2.59378
        2.61754        2.67899        2.71919        2.76093        2.77394
        2.82035        2.82301        2.85497        2.89283        2.90814
        2.93669        2.94795        2.98656        3.00721        3.00948
        3.01928        3.03473        3.05506        3.10919        3.16808
        3.22263        3.32053        3.35113        3.36486        3.41636
        3.49775        3.62955        3.72060        3.75786        3.76834
        3.83235        3.93367        3.94364        3.94530        3.95882
        4.66654        5.24967        5.28666       37.11190
 Time used in FCKEIG, thr_jaco:   1.80D-02  1.90D-02  1.58D-08
 CPU and wall times used in FCKEIG, THR_FCKEIG:   1.80D-02  1.90D-02  3.37D-06
 -----------------------------------------------------------------------------

 *** DIIS iteration number    9
 RDSUPM called. NFMAT, ISYMDM(1:NFMAT)                     1
                     1

 ITDIIS, energy, error norm, change in energy, scr.thr., difden:
@ DIIS iter.   9    -360.723373796        9.10292D-05   -1.68D-08  -20    F

 (DIIS_RED) Control Parameters C2DIIS =         F NEVC =    8


 (DIIS_RED) B matrix:

               Column   1     Column   2     Column   3     Column   4     Column   5     Column   6
       1       0.00000001
       2       0.00000512     0.78536513
       3      -0.00000168     0.02363490     0.12413370
       4       0.00000056     0.06751718    -0.00725431     0.00973431
       5       0.00000009     0.00452065     0.00376294     0.00076151     0.00043105
       6       0.00000005    -0.00033388     0.00037937     0.00017297     0.00005276     0.00004322
       7       0.00000008     0.00005937     0.00008625     0.00000488     0.00002770    -0.00000062
       8       0.00000002    -0.00000575     0.00000611    -0.00000007     0.00000110     0.00000105

               Column   7     Column   8
       7       0.00000465
       8       0.00000022     0.00000011
    ==== End of matrix output ====

 DIIS C vector; C2DIIS = F, LAMBDA = -4.47D-09
    1.166970    0.000059   -0.000193   -0.001047    0.005592    0.000754   -0.041488   -0.130646
* Read MO coefficients from SIRIUS.RST with label "NEWORB  " and header info: 11Jun18  DIIS   9
      Virial theorem: -V/T =      2.003920
@      MULPOP N      -0.91; H       0.25; H       0.25; H       0.26; O      -0.85; O      -0.78; O      -0.94; O      -0.81; H       0.46; H       0.45; 
[...]
                                                                                
            Total SCF   energy:                  -360.7233737972                
            Total MP2   energy:                  -361.7413413274                
            Total CCSD  energy:                  -361.7866312321                
                                                                                
                                                                                
            Total SCF   energy:                  -360.7233737972                
            Total RSTAR energy:                  -361.7866312321                
            Total CCSD  energy:                  -361.7866916505                
                                                                                
                                                                                
            Total SCF   energy:                  -360.7233737972                
            Total RSTAR energy:                  -361.7866916505                
            Total CCSD  energy:                  -361.7866946549                
                                                                                
                                                                                
            Total SCF   energy:                  -360.7233737972                
            Total RSTAR energy:                  -361.7866946549                
            Total CCSD  energy:                  -361.7866947869                
                                                                                
                                                                                
            Total SCF   energy:                  -360.7233737972                
            Total RSTAR energy:                  -361.7866947869                
            Total CCSD  energy:                  -361.7866947960                
                                                                                
                                                                                
            Total SCF   energy:                  -360.7233737972                
            Total RSTAR energy:                  -361.7866947960                
            Total CCSD  energy:                  -361.7866947965                
            CCSD Total  energy:                  -362.2487577335                
            CCSD E(QM/MM)     :                    -0.4572399419                
                                                                                
                                                                                
                                                                                
 +=============================================================================+
 |  sym. | Exci.  |        CCSD       Excitation energies            | ||T1||  |
 |(spin, |        +------------------------------------------------------------+
 | spat) |        |     Hartree    |       eV.      |     cm-1       |    %    |
 +=============================================================================+
 | ^1A   |    1   |    14.8069627  |     402.91795  |   3249752.661  |  88.32  |
 | ^1A   |    2   |    14.8640160  |     404.47045  |   3262274.410  |  88.65  |
 | ^1A   |    3   |    14.8817378  |     404.95269  |   3266163.889  |  88.51  |
 | ^1A   |    4   |    14.9051308  |     405.58924  |   3271298.054  |  88.43  |
 | ^1A   |    5   |    14.9249020  |     406.12724  |   3275637.326  |  88.09  |
 | ^1A   |    6   |    14.9506954  |     406.82912  |   3281298.332  |  88.23  |
 | ^1A   |    7   |    14.9615463  |     407.12438  |   3283679.821  |  88.45  |
 | ^1A   |    8   |    14.9880145  |     407.84462  |   3289488.928  |  88.65  |
 | ^1A   |    9   |    14.9981167  |     408.11952  |   3291706.098  |  88.70  |
 | ^1A   |   10   |    15.0299253  |     408.98507  |   3298687.290  |  88.19  |
 | ^1A   |   11   |    15.0385214  |     409.21898  |   3300573.917  |  88.05  |
 | ^1A   |   12   |    15.1051461  |     411.03193  |   3315196.345  |  87.52  |
 | ^1A   |   13   |    15.1195295  |     411.42333  |   3318353.124  |  87.78  |
 | ^1A   |   14   |    15.1234005  |     411.52866  |   3319202.719  |  87.86  |
 | ^1A   |   15   |    15.1404399  |     411.99233  |   3322942.444  |  87.84  |
 | ^1A   |   16   |    15.1722674  |     412.85840  |   3329927.760  |  87.91  |
 | ^1A   |   17   |    15.1901767  |     413.34574  |   3333858.412  |  88.01  |
 | ^1A   |   18   |    15.1921881  |     413.40047  |   3334299.858  |  87.70  |
 | ^1A   |   19   |    15.2767405  |     415.70126  |   3352856.967  |  88.05  |
 | ^1A   |   20   |    15.3111030  |     416.63631  |   3360398.655  |  88.09  |
 | ^1A   |   21   |    15.4104198  |     419.33885  |   3382196.169  |  88.69  |
 | ^1A   |   22   |    15.4722394  |     421.02105  |   3395763.997  |  88.45  |
 | ^1A   |   23   |    15.5224613  |     422.38766  |   3406786.448  |  90.02  |
 | ^1A   |   24   |    15.5601503  |     423.41323  |   3415058.223  |  89.98  |
 | ^1A   |   25   |    15.6374302  |     425.51612  |   3432019.204  |   0.06  |
 +=============================================================================+
                                                                                
                                                                                
     Total energies in Hartree:                                                 
             1 ^1A       -346.9845550427                                        
             2 ^1A       -346.9275017570                                        
             3 ^1A       -346.9097799859                                        
             4 ^1A       -346.8863870068                                        
             5 ^1A       -346.8666158313                                        
             6 ^1A       -346.8408223904                                        
             7 ^1A       -346.8299715278                                        
             8 ^1A       -346.8035032872                                        
             9 ^1A       -346.7934011185                                        
            10 ^1A       -346.7615924676                                        
            11 ^1A       -346.7529963581                                        
            12 ^1A       -346.6863716756                                        
            13 ^1A       -346.6719883333                                        
            14 ^1A       -346.6681172935                                        
            15 ^1A       -346.6510778520                                        
            16 ^1A       -346.6192504102                                        
            17 ^1A       -346.6013410426                                        
            18 ^1A       -346.5993296628                                        
            19 ^1A       -346.5147772545                                        
            20 ^1A       -346.4804147966                                        
            21 ^1A       -346.3810980141                                        
            22 ^1A       -346.3192784401                                        
            23 ^1A       -346.2690564546                                        
            24 ^1A       -346.2313674755                                        
            25 ^1A       -346.1540875591                                        
                                                                                
                                                                                
 +=============================================================================+
 |  sym. | Exci.  |        CCSD       Length   Gauge Oscillator Strength       |
 |(spin, |        +------------------------------------------------------------+
 | spat) |        | Dipole Strength(a.u.) | Oscillator strength  | Direction   |
 +=============================================================================+
 | ^1A   |    1   |        0.0003622      |      0.0035758       |  (Y,Z)      |
 | ^1A   |    2   |        0.0019547      |      0.0193701       |  (Y,Z)      |
 | ^1A   |    3   |        0.0013171      |      0.0130667       |  (Y,Z)      |
 | ^1A   |    4   |        0.0013892      |      0.0138046       |  (Y,Z)      |
 | ^1A   |    5   |        0.0006689      |      0.0066551       |  (Y,Z)      |
 | ^1A   |    6   |        0.0011943      |      0.0119034       |  (Y,Z)      |
 | ^1A   |    7   |        0.0005352      |      0.0053383       |  (Y,Z)      |
 | ^1A   |    8   |        0.0014908      |      0.0148962       |  (Y,Z)      |
 | ^1A   |    9   |        0.0018839      |      0.0188370       |  (Y,Z)      |
 | ^1A   |   10   |        0.0009723      |      0.0097426       |  (Y,Z)      |
 | ^1A   |   11   |        0.0005206      |      0.0052193       |  (Y,Z)      |
 | ^1A   |   12   |        0.0000765      |      0.0007708       |  (Y,Z)      |
 | ^1A   |   13   |        0.0001259      |      0.0012695       |  (Y,Z)      |
 | ^1A   |   14   |        0.0004285      |      0.0043199       |  (Y,Z)      |
 | ^1A   |   15   |        0.0001006      |      0.0010157       |  (Y,Z)      |
 | ^1A   |   16   |        0.0001848      |      0.0018697       |  (Y,Z)      |
 | ^1A   |   17   |        0.0001221      |      0.0012365       |  (Y,Z)      |
 | ^1A   |   18   |        0.0001547      |      0.0015666       |  (Y,Z)      |
 | ^1A   |   19   |        0.0001235      |      0.0012573       |  (Y,Z)      |
 | ^1A   |   20   |        0.0002280      |      0.0023274       |  (Y,Z)      |
 | ^1A   |   21   |        0.0021752      |      0.0223469       |  (Y,Z)      |
 | ^1A   |   22   |        0.0026064      |      0.0268847       |  (Y,Z)      |
 | ^1A   |   23   |        0.0054427      |      0.0563224       |  (Y,Z)      |
 | ^1A   |   24   |        0.0053746      |      0.0557533       |  (Y,Z)      |
 | ^1A   |   25   |        0.0000010      |      0.0000102       |  (Y,Z)      |
 +=============================================================================+

  1 a.u. =        27.21138 eV.  
  1 a.u. =    219474.62934 cm-1.
  

 *******************************************************************************
 *******************************************************************************
 *                                                                             *
 *                                                                             *
 *                      END OF COUPLED CLUSTER CALCULATION                     *
 *                                                                             *
 *                                                                             *
 *******************************************************************************
 *******************************************************************************


 CPU and wall time for CC :   94884.335  101417.021

 
     Date and time (Linux)  : Tue Jun 12 21:34:32 2018
     Host name              : n-62-29-9                               


                      .-------------------------------------.
                      | End of Coupled Cluster Section (CC) |
                      `-------------------------------------'

  Total CPU  time used in DALTON:  26 hours 22 minutes 56 seconds
  Total wall time used in DALTON:  28 hours 11 minutes 55 seconds

 
     Date and time (Linux)  : Tue Jun 12 21:34:32 2018
     Host name              : n-62-29-9                               
  

 +---------------------------------------------------------+ 
 | List of selected calculated molecular properties (a.u.) | 
 +---------------------------------------------------------+ 

  Properties are read from unit number                      4

 CCSD       properties :
 #  1 1 CCSD/MM  Ground state Energy =    -362.2487577335
 #  2 1 E_QM/MM  Ground state Energy =      -0.4572399419
 #  3 1 Sy: 1 Sp: 1 Exc:  1 E_tot:   -346.9845550427 w:     14.8069627489 E_grs:   -361.7915177916
 #  4 1 Exctot   Excited state Energy =    -346.9845550427
 #  5 1 Sy: 1 Sp: 1 Exc:  2 E_tot:   -346.9275017570 w:     14.8640160346 E_grs:   -361.7915177916
 #  6 1 Exctot   Excited state Energy =    -346.9275017570
 #  7 1 Sy: 1 Sp: 1 Exc:  3 E_tot:   -346.9097799859 w:     14.8817378056 E_grs:   -361.7915177916
 #  8 1 Exctot   Excited state Energy =    -346.9097799859
 #  9 1 Sy: 1 Sp: 1 Exc:  4 E_tot:   -346.8863870068 w:     14.9051307847 E_grs:   -361.7915177916
 # 10 1 Exctot   Excited state Energy =    -346.8863870068
 # 11 1 Sy: 1 Sp: 1 Exc:  5 E_tot:   -346.8666158313 w:     14.9249019602 E_grs:   -361.7915177916
 # 12 1 Exctot   Excited state Energy =    -346.8666158313
 # 13 1 Sy: 1 Sp: 1 Exc:  6 E_tot:   -346.8408223904 w:     14.9506954011 E_grs:   -361.7915177916
 # 14 1 Exctot   Excited state Energy =    -346.8408223904
 # 15 1 Sy: 1 Sp: 1 Exc:  7 E_tot:   -346.8299715278 w:     14.9615462638 E_grs:   -361.7915177916
 # 16 1 Exctot   Excited state Energy =    -346.8299715278
 # 17 1 Sy: 1 Sp: 1 Exc:  8 E_tot:   -346.8035032872 w:     14.9880145043 E_grs:   -361.7915177916
 # 18 1 Exctot   Excited state Energy =    -346.8035032872
 # 19 1 Sy: 1 Sp: 1 Exc:  9 E_tot:   -346.7934011185 w:     14.9981166731 E_grs:   -361.7915177916
 # 20 1 Exctot   Excited state Energy =    -346.7934011185
 # 21 1 Sy: 1 Sp: 1 Exc: 10 E_tot:   -346.7615924676 w:     15.0299253240 E_grs:   -361.7915177916
 # 22 1 Exctot   Excited state Energy =    -346.7615924676
 # 23 1 Sy: 1 Sp: 1 Exc: 11 E_tot:   -346.7529963581 w:     15.0385214335 E_grs:   -361.7915177916
 # 24 1 Exctot   Excited state Energy =    -346.7529963581
 # 25 1 Sy: 1 Sp: 1 Exc: 12 E_tot:   -346.6863716756 w:     15.1051461159 E_grs:   -361.7915177916
 # 26 1 Exctot   Excited state Energy =    -346.6863716756
 # 27 1 Sy: 1 Sp: 1 Exc: 13 E_tot:   -346.6719883333 w:     15.1195294583 E_grs:   -361.7915177916
 # 28 1 Exctot   Excited state Energy =    -346.6719883333
 # 29 1 Sy: 1 Sp: 1 Exc: 14 E_tot:   -346.6681172935 w:     15.1234004981 E_grs:   -361.7915177916
 # 30 1 Exctot   Excited state Energy =    -346.6681172935
 # 31 1 Sy: 1 Sp: 1 Exc: 15 E_tot:   -346.6510778520 w:     15.1404399395 E_grs:   -361.7915177916
 # 32 1 Exctot   Excited state Energy =    -346.6510778520
 # 33 1 Sy: 1 Sp: 1 Exc: 16 E_tot:   -346.6192504102 w:     15.1722673813 E_grs:   -361.7915177916
 # 34 1 Exctot   Excited state Energy =    -346.6192504102
 # 35 1 Sy: 1 Sp: 1 Exc: 17 E_tot:   -346.6013410426 w:     15.1901767490 E_grs:   -361.7915177916
 # 36 1 Exctot   Excited state Energy =    -346.6013410426
 # 37 1 Sy: 1 Sp: 1 Exc: 18 E_tot:   -346.5993296628 w:     15.1921881288 E_grs:   -361.7915177916
 # 38 1 Exctot   Excited state Energy =    -346.5993296628
 # 39 1 Sy: 1 Sp: 1 Exc: 19 E_tot:   -346.5147772545 w:     15.2767405370 E_grs:   -361.7915177916
 # 40 1 Exctot   Excited state Energy =    -346.5147772545
 # 41 1 Sy: 1 Sp: 1 Exc: 20 E_tot:   -346.4804147966 w:     15.3111029950 E_grs:   -361.7915177916
 # 42 1 Exctot   Excited state Energy =    -346.4804147966
 # 43 1 Sy: 1 Sp: 1 Exc: 21 E_tot:   -346.3810980141 w:     15.4104197774 E_grs:   -361.7915177916
 # 44 1 Exctot   Excited state Energy =    -346.3810980141
 # 45 1 Sy: 1 Sp: 1 Exc: 22 E_tot:   -346.3192784401 w:     15.4722393515 E_grs:   -361.7915177916
 # 46 1 Exctot   Excited state Energy =    -346.3192784401
 # 47 1 Sy: 1 Sp: 1 Exc: 23 E_tot:   -346.2690564546 w:     15.5224613370 E_grs:   -361.7915177916
 # 48 1 Exctot   Excited state Energy =    -346.2690564546
 # 49 1 Sy: 1 Sp: 1 Exc: 24 E_tot:   -346.2313674755 w:     15.5601503161 E_grs:   -361.7915177916
 # 50 1 Exctot   Excited state Energy =    -346.2313674755
 # 51 1 Sy: 1 Sp: 1 Exc: 25 E_tot:   -346.1540875591 w:     15.6374302324 E_grs:   -361.7915177916
 # 52 1 Exctot   Excited state Energy =    -346.1540875591
 # 53 1 |<O|XDIPLEN |i(14.806963)>| =     0.00834424
 # 55 1 |<O|XDIPLEN |i(14.864016)>| =     0.01777424
 # 57 1 |<O|XDIPLEN |i(14.881738)>| =     0.03459187
 # 59 1 |<O|XDIPLEN |i(14.905131)>| =     0.01037346
 # 61 1 |<O|XDIPLEN |i(14.924902)>| =     0.02414398
 # 63 1 |<O|XDIPLEN |i(14.950695)>| =     0.01019369
 # 65 1 |<O|XDIPLEN |i(14.961546)>| =     0.01765111
 # 67 1 |<O|XDIPLEN |i(14.988015)>| =     0.00131563
 # 69 1 |<O|XDIPLEN |i(14.998117)>| =     0.04211212
 # 71 1 |<O|XDIPLEN |i(15.029925)>| =     0.01366354
 # 73 1 |<O|XDIPLEN |i(15.038521)>| =     0.00415043
 # 75 1 |<O|XDIPLEN |i(15.105146)>| =     0.00215489
 # 77 1 |<O|XDIPLEN |i(15.119529)>| =     0.00030257
 # 79 1 |<O|XDIPLEN |i(15.123400)>| =     0.00097960
 # 81 1 |<O|XDIPLEN |i(15.140440)>| =     0.00028973
 # 83 1 |<O|XDIPLEN |i(15.172267)>| =     0.00832875
 # 85 1 |<O|XDIPLEN |i(15.190177)>| =     0.00574599
 # 87 1 |<O|XDIPLEN |i(15.192188)>| =     0.00538702
 # 89 1 |<O|XDIPLEN |i(15.276741)>| =     0.00988762
 # 91 1 |<O|XDIPLEN |i(15.311103)>| =     0.00061461
 # 93 1 |<O|XDIPLEN |i(15.410420)>| =     0.01148983
 # 95 1 |<O|XDIPLEN |i(15.472239)>| =     0.01521748
 # 97 1 |<O|XDIPLEN |i(15.522461)>| =     0.03783061
 # 99 1 |<O|XDIPLEN |i(15.560150)>| =     0.05999647
 #101 1 |<O|XDIPLEN |i(15.637430)>| =     0.00069341
 #103 1 |<O|YDIPLEN |i(14.806963)>| =     0.01390345
 #105 1 |<O|YDIPLEN |i(14.864016)>| =     0.00563588
 #107 1 |<O|YDIPLEN |i(14.881738)>| =     0.00795986
 #109 1 |<O|YDIPLEN |i(14.905131)>| =     0.03575219
 #111 1 |<O|YDIPLEN |i(14.924902)>| =     0.00097005
 #113 1 |<O|YDIPLEN |i(14.950695)>| =     0.01490472
 #115 1 |<O|YDIPLEN |i(14.961546)>| =     0.01350155
 #117 1 |<O|YDIPLEN |i(14.988015)>| =     0.00288641
 #119 1 |<O|YDIPLEN |i(14.998117)>| =     0.00235710
 #121 1 |<O|YDIPLEN |i(15.029925)>| =     0.02707883
 #123 1 |<O|YDIPLEN |i(15.038521)>| =     0.01502620
 #125 1 |<O|YDIPLEN |i(15.105146)>| =     0.00353788
 #127 1 |<O|YDIPLEN |i(15.119529)>| =     0.01006854
 #129 1 |<O|YDIPLEN |i(15.123400)>| =     0.01837814
 #131 1 |<O|YDIPLEN |i(15.140440)>| =     0.00997738
 #133 1 |<O|YDIPLEN |i(15.172267)>| =     0.00906041
 #135 1 |<O|YDIPLEN |i(15.190177)>| =     0.00886600
 #137 1 |<O|YDIPLEN |i(15.192188)>| =     0.01056410
 #139 1 |<O|YDIPLEN |i(15.276741)>| =     0.00079655
 #141 1 |<O|YDIPLEN |i(15.311103)>| =     0.01197710
 #143 1 |<O|YDIPLEN |i(15.410420)>| =     0.04397220
 #145 1 |<O|YDIPLEN |i(15.472239)>| =     0.04873021
 #147 1 |<O|YDIPLEN |i(15.522461)>| =     0.01538478
 #149 1 |<O|YDIPLEN |i(15.560150)>| =     0.01291695
 #151 1 |<O|YDIPLEN |i(15.637430)>| =     0.00003542
 #153 1 |<O|ZDIPLEN |i(14.806963)>| =     0.00996563
 #155 1 |<O|ZDIPLEN |i(14.864016)>| =     0.04008801
 #157 1 |<O|ZDIPLEN |i(14.881738)>| =     0.00755632
 #159 1 |<O|ZDIPLEN |i(14.905131)>| =     0.00184866
 #161 1 |<O|ZDIPLEN |i(14.924902)>| =     0.00921895
 #163 1 |<O|ZDIPLEN |i(14.950695)>| =     0.02946525
 #165 1 |<O|ZDIPLEN |i(14.961546)>| =     0.00643063
 #167 1 |<O|ZDIPLEN |i(14.988015)>| =     0.03848050
 #169 1 |<O|ZDIPLEN |i(14.998117)>| =     0.01024471
 #171 1 |<O|ZDIPLEN |i(15.029925)>| =     0.00723627
 #173 1 |<O|ZDIPLEN |i(15.038521)>| =     0.01666074
 #175 1 |<O|ZDIPLEN |i(15.105146)>| =     0.00770636
 #177 1 |<O|ZDIPLEN |i(15.119529)>| =     0.00494772
 #179 1 |<O|ZDIPLEN |i(15.123400)>| =     0.00947338
 #181 1 |<O|ZDIPLEN |i(15.140440)>| =     0.00099820
 #183 1 |<O|ZDIPLEN |i(15.172267)>| =     0.00577830
 #185 1 |<O|ZDIPLEN |i(15.190177)>| =     0.00323771
 #187 1 |<O|ZDIPLEN |i(15.192188)>| =     0.00374919
 #189 1 |<O|ZDIPLEN |i(15.276741)>| =     0.00500532
 #191 1 |<O|ZDIPLEN |i(15.311103)>| =     0.00917529
 #193 1 |<O|ZDIPLEN |i(15.410420)>| =     0.01046931
 #195 1 |<O|ZDIPLEN |i(15.472239)>| =     0.00045598
 #197 1 |<O|ZDIPLEN |i(15.522461)>| =     0.06143959
 #199 1 |<O|ZDIPLEN |i(15.560150)>| =     0.04010237
 #201 1 |<O|ZDIPLEN |i(15.637430)>| =     0.00070599

 THE_END   
