

     ************************************************************************
     *************** Dalton - An Electronic Structure Program ***************
     ************************************************************************

    This is output from DALTON release Dalton2017.alpha (2016)
         ( Web site: http://daltonprogram.org )

   ----------------------------------------------------------------------------

    NOTE:
     
    Dalton is an experimental code for the evaluation of molecular
    properties using (MC)SCF, DFT, CI, and CC wave functions.
    The authors accept no responsibility for the performance of
    the code or for the correctness of the results.
     
    The code (in whole or part) is provided under a licence and
    is not to be reproduced for further distribution without
    the written permission of the authors or their representatives.
     
    See the home page "http://daltonprogram.org" for further information.
     
    If results obtained with this code are published,
    the appropriate citations would be both of:
     
       K. Aidas, C. Angeli, K. L. Bak, V. Bakken, R. Bast,
       L. Boman, O. Christiansen, R. Cimiraglia, S. Coriani,
       P. Dahle, E. K. Dalskov, U. Ekstroem,
       T. Enevoldsen, J. J. Eriksen, P. Ettenhuber, B. Fernandez,
       L. Ferrighi, H. Fliegl, L. Frediani, K. Hald, A. Halkier,
       C. Haettig, H. Heiberg, T. Helgaker, A. C. Hennum,
       H. Hettema, E. Hjertenaes, S. Hoest, I.-M. Hoeyvik,
       M. F. Iozzi, B. Jansik, H. J. Aa. Jensen, D. Jonsson,
       P. Joergensen, J. Kauczor, S. Kirpekar,
       T. Kjaergaard, W. Klopper, S. Knecht, R. Kobayashi, H. Koch,
       J. Kongsted, A. Krapp, K. Kristensen, A. Ligabue,
       O. B. Lutnaes, J. I. Melo, K. V. Mikkelsen, R. H. Myhre,
       C. Neiss, C. B. Nielsen, P. Norman, J. Olsen,
       J. M. H. Olsen, A. Osted, M. J. Packer, F. Pawlowski,
       T. B. Pedersen, P. F. Provasi, S. Reine, Z. Rinkevicius,
       T. A. Ruden, K. Ruud, V. Rybkin, P. Salek, C. C. M. Samson,
       A. Sanchez de Meras, T. Saue, S. P. A. Sauer,
       B. Schimmelpfennig, K. Sneskov, A. H. Steindal,
       K. O. Sylvester-Hvid, P. R. Taylor, A. M. Teale,
       E. I. Tellgren, D. P. Tew, A. J. Thorvaldsen, L. Thoegersen,
       O. Vahtras, M. A. Watson, D. J. D. Wilson, M. Ziolkowski
       and H. Agren,
       "The Dalton quantum chemistry program system",
       WIREs Comput. Mol. Sci. 2014, 4:269–284 (doi: 10.1002/wcms.1172)
     
    and
     
       Dalton, a Molecular Electronic Structure Program,
       Release Dalton2017.alpha (2016), see http://daltonprogram.org
   ----------------------------------------------------------------------------

    Authors in alphabetical order (major contribution(s) in parenthesis):

  Kestutis Aidas,           Vilnius University,           Lithuania   (QM/MM)
  Celestino Angeli,         University of Ferrara,        Italy       (NEVPT2)
  Keld L. Bak,              UNI-C,                        Denmark     (AOSOPPA, non-adiabatic coupling, magnetic properties)
  Vebjoern Bakken,          University of Oslo,           Norway      (DALTON; geometry optimizer, symmetry detection)
  Radovan Bast,             UiT The Arctic U. of Norway,  Norway      (DALTON installation and execution frameworks)
  Pablo Baudin,             University of Valencia,       Spain       (Cholesky excitation energies)
  Linus Boman,              NTNU,                         Norway      (Cholesky decomposition and subsystems)
  Ove Christiansen,         Aarhus University,            Denmark     (CC module)
  Renzo Cimiraglia,         University of Ferrara,        Italy       (NEVPT2)
  Sonia Coriani,            University of Trieste,        Italy       (CC module, MCD in RESPONS)
  Janusz Cukras,            University of Trieste,        Italy       (MChD in RESPONS)
  Paal Dahle,               University of Oslo,           Norway      (Parallelization)
  Erik K. Dalskov,          UNI-C,                        Denmark     (SOPPA)
  Thomas Enevoldsen,        Univ. of Southern Denmark,    Denmark     (SOPPA)
  Janus J. Eriksen,         Aarhus University,            Denmark     (Polarizable embedding model, TDA)
  Rasmus Faber,             University of Copenhagen,     Denmark     (Vib.avg. NMR with SOPPA, parallel AO-SOPPA)
  Berta Fernandez,          U. of Santiago de Compostela, Spain       (doublet spin, ESR in RESPONS)
  Lara Ferrighi,            Aarhus University,            Denmark     (PCM Cubic response)
  Heike Fliegl,             University of Oslo,           Norway      (CCSD(R12))
  Luca Frediani,            UiT The Arctic U. of Norway,  Norway      (PCM)
  Bin Gao,                  UiT The Arctic U. of Norway,  Norway      (Gen1Int library)
  Christof Haettig,         Ruhr-University Bochum,       Germany     (CC module)
  Kasper Hald,              Aarhus University,            Denmark     (CC module)
  Asger Halkier,            Aarhus University,            Denmark     (CC module)
  Frederik Beyer Hansen,    University of Copenhagen,     Denmark     (Parallel AO-SOPPA)
  Erik D. Hedegaard,        Univ. of Southern Denmark,    Denmark     (Polarizable embedding model, QM/MM)
  Hanne Heiberg,            University of Oslo,           Norway      (geometry analysis, selected one-electron integrals)
  Trygve Helgaker,          University of Oslo,           Norway      (DALTON; ABACUS, ERI, DFT modules, London, and much more)
  Alf Christian Hennum,     University of Oslo,           Norway      (Parity violation)
  Hinne Hettema,            University of Auckland,       New Zealand (quadratic response in RESPONS; SIRIUS supersymmetry)
  Eirik Hjertenaes,         NTNU,                         Norway      (Cholesky decomposition)
  Pi A. B. Haase,           University of Copenhagen,     Denmark     (Triplet AO-SOPPA)
  Maria Francesca Iozzi,    University of Oslo,           Norway      (RPA)
  Brano Jansik              Technical Univ. of Ostrava    Czech Rep.  (DFT cubic response)
  Hans Joergen Aa. Jensen,  Univ. of Southern Denmark,    Denmark     (DALTON; SIRIUS, RESPONS, ABACUS modules, London, and much more)
  Dan Jonsson,              UiT The Arctic U. of Norway,  Norway      (cubic response in RESPONS module)
  Poul Joergensen,          Aarhus University,            Denmark     (RESPONS, ABACUS, and CC modules)
  Maciej Kaminski,          University of Warsaw,         Poland      (CPPh in RESPONS)
  Joanna Kauczor,           Linkoeping University,        Sweden      (Complex polarization propagator (CPP) module)
  Sheela Kirpekar,          Univ. of Southern Denmark,    Denmark     (Mass-velocity & Darwin integrals)
  Wim Klopper,              KIT Karlsruhe,                Germany     (R12 code in CC, SIRIUS, and ABACUS modules)
  Stefan Knecht,            ETH Zurich,                   Switzerland (Parallel CI and MCSCF)
  Rika Kobayashi,           Australian National Univ.,    Australia   (DIIS in CC, London in MCSCF)
  Henrik Koch,              NTNU,                         Norway      (CC module, Cholesky decomposition)
  Jacob Kongsted,           Univ. of Southern Denmark,    Denmark     (Polarizable embedding model, QM/MM)
  Andrea Ligabue,           University of Modena,         Italy       (CTOCD, AOSOPPA)
  Nanna H. List             Univ. of Southern Denmark,    Denmark     (Polarizable embedding model)
  Ola B. Lutnaes,           University of Oslo,           Norway      (DFT Hessian)
  Juan I. Melo,             University of Buenos Aires,   Argentina   (LRESC, Relativistic Effects on NMR Shieldings)
  Kurt V. Mikkelsen,        University of Copenhagen,     Denmark     (MC-SCRF and QM/MM)
  Rolf H. Myhre,            NTNU,                         Norway      (Cholesky, subsystems and ECC2)
  Christian Neiss,          Univ. Erlangen-Nuernberg,     Germany     (CCSD(R12))
  Christian B. Nielsen,     University of Copenhagen,     Denmark     (QM/MM)
  Patrick Norman,           Linkoeping University,        Sweden      (Cubic response and complex frequency response in RESPONS)
  Jeppe Olsen,              Aarhus University,            Denmark     (SIRIUS CI/density modules)
  Jogvan Magnus H. Olsen,   Univ. of Southern Denmark,    Denmark     (Polarizable embedding model, QM/MM)
  Anders Osted,             Copenhagen University,        Denmark     (QM/MM)
  Martin J. Packer,         University of Sheffield,      UK          (SOPPA)
  Filip Pawlowski,          Kazimierz Wielki University,  Poland      (CC3)
  Morten N. Pedersen,       Univ. of Southern Denmark,    Denmark     (Polarizable embedding model)
  Thomas B. Pedersen,       University of Oslo,           Norway      (Cholesky decomposition)
  Patricio F. Provasi,      University of Northeastern,   Argentina   (Analysis of coupling constants in localized orbitals)
  Zilvinas Rinkevicius,     KTH Stockholm,                Sweden      (open-shell DFT, ESR)
  Elias Rudberg,            KTH Stockholm,                Sweden      (DFT grid and basis info)
  Torgeir A. Ruden,         University of Oslo,           Norway      (Numerical derivatives in ABACUS)
  Kenneth Ruud,             UiT The Arctic U. of Norway,  Norway      (DALTON; ABACUS magnetic properties and much more)
  Pawel Salek,              KTH Stockholm,                Sweden      (DALTON; DFT code)
  Claire C. M. Samson       University of Karlsruhe       Germany     (Boys localization, r12 integrals in ERI)
  Alfredo Sanchez de Meras, University of Valencia,       Spain       (CC module, Cholesky decomposition)
  Trond Saue,               Paul Sabatier University,     France      (direct Fock matrix construction)
  Stephan P. A. Sauer,      University of Copenhagen,     Denmark     (SOPPA(CCSD), SOPPA prop., AOSOPPA, vibrational g-factors)
  Bernd Schimmelpfennig,    Forschungszentrum Karlsruhe,  Germany     (AMFI module)
  Kristian Sneskov,         Aarhus University,            Denmark     (Polarizable embedding model, QM/MM)
  Arnfinn H. Steindal,      UiT The Arctic U. of Norway,  Norway      (parallel QM/MM, Polarizable embedding model)
  Casper Steinmann,         Univ. of Southern Denmark,    Denmark     (QFIT, Polarizable embedding model)
  K. O. Sylvester-Hvid,     University of Copenhagen,     Denmark     (MC-SCRF)
  Peter R. Taylor,          VLSCI/Univ. of Melbourne,     Australia   (Symmetry handling ABACUS, integral transformation)
  Andrew M. Teale,          University of Nottingham,     England     (DFT-AC, DFT-D)
  David P. Tew,             University of Bristol,        England     (CCSD(R12))
  Olav Vahtras,             KTH Stockholm,                Sweden      (triplet response, spin-orbit, ESR, TDDFT, open-shell DFT)
  David J. Wilson,          La Trobe University,          Australia   (DFT Hessian and DFT magnetizabilities)
  Hans Agren,               KTH Stockholm,                Sweden      (SIRIUS module, RESPONS, MC-SCRF solvation model)
 --------------------------------------------------------------------------------

     Date and time (Linux)  : Fri Jun  8 17:33:01 2018
     Host name              : n-62-29-5                               

 * Work memory size             :   512000000 =  3.815 gigabytes.

 * Directories for basis set searches:
   1) /zhome/37/3/129401/NH3NH4/CCSD/AIMD_SAMPLING/nh3_4h2o
   2) /zhome/9a/4/124800/source/dalton/build-mlcc/basis


Compilation information
-----------------------

 Who compiled             | rfaber
 Host                     | hpclogin1
 System                   | Linux-2.6.32-696.1.1.el6.x86_64
 CMake generator          | Unix Makefiles
 Processor                | x86_64
 64-bit integers          | ON
 MPI                      | OFF
 Fortran compiler         | /opt/intel/2016update2/compilers_and_libraries_201
                          | 6.2.181/linux/bin/intel64/ifort
 Fortran compiler version | ifort (IFORT) 16.0.2 20160204
 C compiler               | /opt/intel/2016update2/compilers_and_libraries_201
                          | 6.2.181/linux/bin/intel64/icc
 C compiler version       | icc (ICC) 16.0.2 20160204
 C++ compiler             | /opt/intel/2016update2/compilers_and_libraries_201
                          | 6.2.181/linux/bin/intel64/icpc
 C++ compiler version     | icpc (ICC) 16.0.2 20160204
 Static linking           | OFF
 Last Git revision        | bb4d1599ca5680a9f3980451fc8bbefdba436d59
 Git branch               | mlcc
 Configuration time       | 2017-06-13 16:11:03.928841


   Content of the .dal input file
 ----------------------------------

**DALTON
.RUN WAVE FUNCTIONS
*QMMM
.QMMM
**INTEGRALS
.DIPLEN
**WAVE FUNCTIONS
.CC
*PRINT
!To check the origin of excit
.PRINTL
   0 11
*SCF INP
.THRESH
1.0D-7
*CC INP
.CCSD
.THRLEQ
 1.0D-9
.THRENR
 1.0D-10
.FROIMP
4
0
.PRINT
 1
.MAX IT
 1200
.MAXRED
 1200
.MXLRV
1199
*CCSLV
.CCMM
.MXSLIT
200
.MXINIT
4 5
*CCEXCI
.NCCEXC
 25
.CVSEPARA
1
1
*CCLRSD
.DIPOLE
**END OF DALTON INPUT


   Content of the .mol file
 ----------------------------

ATOMBASIS


Atomtypes=4 Charge=0 Nosymm Angstrom
   7.00000    1    Basis=6-311++G**
N          0.000000        0.000000        0.000000
   1.00000    3    Basis=6-311++G**
H         -0.113818       -0.008972        0.990350
H         -0.436619       -0.825462       -0.358274
H          0.942070       -0.009928       -0.222225
   8.00000    4    Basis=6-31G**
O         -0.788956       -1.460330       -2.897238
O         -0.665608        2.186449       -1.219983
O         -0.170838        0.979297        3.239601
O          2.660495        1.061438        0.091784
   1.00000    8    Basis=6-31G**
H         -1.169333       -1.104885       -3.740086
H         -1.557012       -1.895931       -2.459296
H         -0.317428        1.968377       -2.114621
H         -0.449851        1.315757       -0.653535
H         -0.932131        0.380297        3.520217
H          0.175663        1.568757        3.961276
H          2.882927        2.011081       -0.120185
H          2.559537        0.873746        1.069939


       *******************************************************************
       *********** Output from DALTON general input processing ***********
       *******************************************************************

 --------------------------------------------------------------------------------
   Overall default print level:    0
   Print level for DALTON.STAT:    1

    HERMIT 1- and 2-electron integral sections will be executed
    "Old" integral transformation used (limited to max 255 basis functions)
    Wave function sections will be executed (SIRIUS module)
 --------------------------------------------------------------------------------


 Changes of defaults for *QMMM  :
 --------------------------------

 +------------------+
 |  WORD: | CHANGE: |
 +------------------+
 |   QMMM |       T |
 +------------------+
 


   ****************************************************************************
   *************** Output of molecule and basis set information ***************
   ****************************************************************************


    The two title cards from your ".mol" input:
    ------------------------------------------------------------------------
 1:                                                                         
 2:                                                                         
    ------------------------------------------------------------------------

  Coordinates are entered in Angstrom and converted to atomic units.
          - Conversion factor : 1 bohr = 0.52917721 A

  Atomic type no.    1
  --------------------
  Nuclear charge:   7.00000
  Number of symmetry independent centers:    1
  Number of basis sets to read;    2
  The basis set is "6-311++G**" from the basis set library.
  Basis set file used for this atomic type with Z =   7 :
     "/zhome/9a/4/124800/source/dalton/build-mlcc/basis/6-311++G**"

  Info about the basis set file: your basis has no documentation.
  Basis set: 6-311++G**                                                                      

  Atomic type no.    2
  --------------------
  Nuclear charge:   1.00000
  Number of symmetry independent centers:    3
  Number of basis sets to read;    2
  The basis set is "6-311++G**" from the basis set library.
  Basis set file used for this atomic type with Z =   1 :
     "/zhome/9a/4/124800/source/dalton/build-mlcc/basis/6-311++G**"

  Info about the basis set file: your basis has no documentation.
  Basis set: 6-311++G**                                                                      

  Atomic type no.    3
  --------------------
  Nuclear charge:   8.00000
  Number of symmetry independent centers:    4
  Number of basis sets to read;    2
  The basis set is "6-31G**" from the basis set library.
  Basis set file used for this atomic type with Z =   8 :
     "/zhome/9a/4/124800/source/dalton/build-mlcc/basis/6-31G**"

  Info about the basis set file: your basis has no documentation.
  Basis set: 6-31G**                                                                         

  Atomic type no.    4
  --------------------
  Nuclear charge:   1.00000
  Number of symmetry independent centers:    8
  Number of basis sets to read;    2
  The basis set is "6-31G**" from the basis set library.
  Basis set file used for this atomic type with Z =   1 :
     "/zhome/9a/4/124800/source/dalton/build-mlcc/basis/6-31G**"

  Info about the basis set file: your basis has no documentation.
  Basis set: 6-31G**                                                                         


                         SYMGRP: Point group information
                         -------------------------------

@    Point group: C1 


                                 Isotopic Masses
                                 ---------------

                           N          14.003074
                           H           1.007825
                           H           1.007825
                           H           1.007825
                           O          15.994915
                           O          15.994915
                           O          15.994915
                           O          15.994915
                           H           1.007825
                           H           1.007825
                           H           1.007825
                           H           1.007825
                           H           1.007825
                           H           1.007825
                           H           1.007825
                           H           1.007825

                       Total mass:    89.068809 amu
                       Natural abundance:  98.514 %

 Center-of-mass coordinates (a.u.):    0.385135    1.030312   -0.269382


  Atoms and basis sets
  --------------------

  Number of atom types :    4
  Total number of atoms:   16

  label    atoms   charge   prim   cont     basis
  ----------------------------------------------------------------------
  N           1    7.0000    35    22      [12s6p1d|5s4p1d]                                   
  H           3    1.0000     9     7      [6s1p|4s1p]                                        
  O           4    8.0000    27    14      [10s4p1d|3s2p1d]                                   
  H           8    1.0000     7     5      [4s1p|2s1p]                                        
  ----------------------------------------------------------------------
  total:     16   50.0000   226   139
  ----------------------------------------------------------------------
  Spherical harmonic basis used.

  Threshold for neglecting AO integrals:  1.00D-12


  Cartesian Coordinates (a.u.)
  ----------------------------

  Total number of coordinates:   48
  N       :     1  x   0.0000000000    2  y   0.0000000000    3  z   0.0000000000
  H       :     4  x  -0.2150848481    5  y  -0.0169546228    6  z   1.8714902679
  H       :     7  x  -0.8250903310    8  y  -1.5598971066    9  z  -0.6770397377
  H       :    10  x   1.7802542906   11  y  -0.0187612010   12  z  -0.4199443881
  O       :    13  x  -1.4909107647   14  y  -2.7596237521   15  z  -5.4749863389
  O       :    16  x  -1.2578168266   17  y   4.1317897963   18  z  -2.3054337471
  O       :    19  x  -0.3228370317   20  y   1.8506031250   21  z   6.1219586443
  O       :    22  x   5.0276069069   23  y   2.0058271187   24  z   0.1734466227
  H       :    25  x  -2.2097191189   26  y  -2.0879300496   27  z  -7.0677382239
  H       :    28  x  -2.9423262533   29  y  -3.5827903419   30  z  -4.6473959003
  H       :    31  x  -0.5998519844   32  y   3.7196934407   33  z  -3.9960545482
  H       :    34  x  -0.8500951871   35  y   2.4864203770   36  z  -1.2350021631
  H       :    37  x  -1.7614723026   38  y   0.7186571762   39  z   6.6522460305
  H       :    40  x   0.3319549603   41  y   2.9645210867   42  z   7.4857267455
  H       :    43  x   5.4479424683   44  y   3.8003923052   45  z  -0.2271167343
  H       :    46  x   4.8368239368   47  y   1.6511406428   48  z   2.0218916804


   Interatomic separations (in Angstrom):
   --------------------------------------

            N           H           H           H           O           O     
            ------      ------      ------      ------      ------      ------
 N     :    0.000000
 H     :    0.996909    0.000000
 H     :    1.000192    1.609237    0.000000
 H     :    0.967976    1.607868    1.607603    0.000000
 O     :    3.339012    4.204235    2.640746    3.500830    0.000000
 O     :    2.590743    3.163845    3.141112    2.899004    4.015893    0.000000
 O     :    3.388690    2.457449    4.033919    3.768470    6.632846    4.646494
 O     :    2.865887    3.106447    3.654457    2.049247    5.214622    3.748245
 H     :    4.071407    4.969121    3.471541    4.246446    0.990667    4.175828
 H     :    3.473756    4.188494    2.610647    3.847974    0.985622    4.358477
 H     :    2.906353    3.686762    3.302196    3.013501    3.548360    0.984460
 H     :    1.536454    2.137799    2.161521    1.970003    3.585506    1.060905
 H     :    3.661342    2.687265    4.091709    4.203662    6.677734    5.079637
 H     :    4.264219    3.376304    4.976513    4.536662    7.559436    5.285331
 H     :    3.517124    3.780791    4.372876    2.803893    5.765886    3.719195
 H     :    2.908510    2.816443    3.728814    2.250948    5.691995    4.167552

            O           O           H           H           H           H     
            ------      ------      ------      ------      ------      ------
 O     :    0.000000
 O     :    4.234613    0.000000
 H     :    7.352336    5.834704    0.000000
 H     :    6.531909    5.748165    1.554501    0.000000
 H     :    5.446784    3.815598    3.579500    4.072867    0.000000
 H     :    3.917596    3.208494    3.987977    3.847274    1.605684    0.000000
 H     :    1.008520    5.012491    7.414447    6.428551    5.886532    4.304403
 H     :    0.994153    4.626525    8.262466    7.498665    6.108957    4.663878
 H     :    4.655988    0.998113    6.263684    6.359972    3.771190    3.446063
 H     :    3.489057    1.001103    6.399671    6.088726    4.429059    3.496020

            H           H           H           H     
            ------      ------      ------      ------
 H     :    0.000000
 H     :    1.683502    0.000000
 H     :    5.519660    4.917647    0.000000
 H     :    4.294077    3.811263    1.677649    0.000000


  Max    interatomic separation is    8.2625 Angstrom (   15.6138 Bohr)
  between atoms   14 and    9, "H     " and "H     ".

  Min HX interatomic separation is    0.9680 Angstrom (    1.8292 Bohr)

  Min YX interatomic separation is    2.5907 Angstrom (    4.8958 Bohr)


  Bond distances (Angstrom):
  --------------------------

                  atom 1     atom 2       distance
                  ------     ------       --------
  bond distance:  H          N            0.996909
  bond distance:  H          N            1.000192
  bond distance:  H          N            0.967976
  bond distance:  H          O            0.990667
  bond distance:  H          O            0.985622
  bond distance:  H          O            0.984460
  bond distance:  H          O            1.060905
  bond distance:  H          O            1.008520
  bond distance:  H          O            0.994153
  bond distance:  H          O            0.998113
  bond distance:  H          O            1.001103


  Bond angles (degrees):
  ----------------------

                  atom 1     atom 2     atom 3         angle
                  ------     ------     ------         -----
  bond angle:     H          N          H            107.372
  bond angle:     H          N          H            109.821
  bond angle:     H          N          H            109.521
  bond angle:     H          O          H            103.733
  bond angle:     H          O          H            103.385
  bond angle:     H          O          H            114.411
  bond angle:     H          O          H            114.102




 Principal moments of inertia (u*A**2) and principal axes
 --------------------------------------------------------

   IA     235.130813          0.228877    0.332333    0.914970
   IB     523.144408          0.880921    0.329258   -0.339952
   IC     570.294776         -0.414239    0.883823   -0.217400


 Rotational constants
 --------------------

               A                   B                   C

           2149.3525            966.0411            886.1716 MHz
            0.071695            0.032224            0.029560 cm-1


@  Nuclear repulsion energy :  185.617522540833 Hartree


                     .---------------------------------------.
                     | Starting in Integral Section (HERMIT) |
                     `---------------------------------------'



 ***************************************************************************************
 ****************** Output from **INTEGRALS input processing (HERMIT) ******************
 ***************************************************************************************



    *************************************************************************
    ****************** Output from HERMIT input processing ******************
    *************************************************************************


 Default print level:        1

 * Nuclear model: Point charge

 Calculation of one- and two-electron Hamiltonian integrals.

 The following one-electron property integrals are calculated as requested:
          - overlap integrals
          - dipole length integrals

 Center of mass  (bohr):      0.385134694563      1.030311607711     -0.269381534666
 Operator center (bohr):      0.000000000000      0.000000000000      0.000000000000
 Gauge origin    (bohr):      0.000000000000      0.000000000000      0.000000000000
 Dipole origin   (bohr):      0.000000000000      0.000000000000      0.000000000000
 
  *********************************** 
  QMMM electrostatic potential: 
  Multipole order                                    0
  Isotropic polarization  
  *********************************** 
 
  ---------------- 
  QMMM information 
  ---------------- 
 
  MM coordinates in au 
  -------------------- 
     1      8.663980      8.063093     -8.685714
     2      9.574766      7.886757    -10.375702
     3      7.307469      9.341052     -8.638199
     4     -7.228129     -8.079286      5.719846
     5     -5.889265     -9.292921      6.529200
     6     -7.202113     -6.466063      6.813496
     7     -7.934314     -3.673452      8.956907
     8     -7.149091     -4.139273     10.683378
     9     -9.765139     -3.435023      9.045854
    10    -11.063460      6.732576     11.187133
    11     -9.392608      7.301809     10.779310
    12    -11.045510      5.117461     10.476466
    13     -7.317847     -1.450592      1.659293
    14     -8.649122     -0.476094      2.656023
    15     -6.666421     -0.310998      0.215028
    16      9.084342      4.696824     -4.812412
    17      7.914761      5.640842     -3.642704
    18      8.970551      5.885750     -6.311443
    19      0.072080     -6.438860     -9.737632
    20     -1.699797     -6.016453     -9.352001
    21     -0.101114     -7.720671    -10.994283
    22      8.519139     -7.415300     11.415150
    23      9.754012     -8.715738     11.374717
    24      8.120044     -7.261543     13.307775
    25     -9.353666      5.482506     -4.333645
    26    -11.211265      5.836141     -4.476750
    27     -9.250383      4.405995     -5.951853
    28     -7.158143     -1.019303     -6.139348
    29     -6.254829     -0.004985     -4.838406
    30     -8.827937     -1.576623     -5.413079
    31     -4.505793     -6.498772     -2.954923
    32     -3.066508     -7.628265     -2.951781
    33     -5.368944     -6.707883     -1.225537
    34     -5.807094      3.909046     11.167788
    35     -5.155521      5.252299     12.380384
    36     -5.792145      4.461031      9.394395
    37      9.787814     -0.201450     -1.228422
    38     10.467614      1.195620     -2.198625
    39      7.958230      0.167573     -1.323568
    40     11.400589      9.947490     -0.294194
    41     11.926647     10.783480      1.232657
    42     11.874618     10.920289     -1.733752
    43      5.842211      6.906029      5.657891
    44      5.317652      7.702900      4.055454
    45      6.815006      5.363290      5.198266
    46     -2.628605     -0.026672    -10.117327
    47     -1.477433     -0.864862    -11.514903
    48     -3.729546      1.362045    -10.782526
    49     -6.968656     10.368334     10.622079
    50     -5.951171      9.672172     11.895611
    51     -8.297735     11.195618     11.586601
    52     -8.414858      5.363075      1.306785
    53     -9.154975      6.972785      0.686755
    54     -7.451126      5.703545      2.891778
    55     10.182778     -2.992995      9.020727
    56      9.647239     -1.500601      9.816660
    57      9.454570     -4.443443     10.028472
    58      0.941152     -8.922138      9.544444
    59      2.260613     -9.530858      8.289684
    60     -0.032018     -7.519848      8.566958
    61      9.079580      9.852552      8.240687
    62      7.850404      8.575776      7.620519
    63     10.296925      8.875800      9.156645
    64      0.872305      7.856045    -10.536561
    65      2.056534      9.149151     -9.833887
    66      0.921867      6.184456     -9.799197
    67      8.116446     -7.044003     -6.339937
    68      8.989614     -5.379755     -6.003063
    69      9.234950     -8.433904     -5.658118
    70      3.740993     10.348898      1.749879
    71      3.774392     12.196442      2.028150
    72      1.991639      9.956147      0.819637
    73      0.503516     -2.560467     10.331405
    74      1.143490     -3.560692     11.650806
    75      0.592255     -3.615475      8.803023
    76     -4.083672      7.562724     -9.092268
    77     -4.222880      7.738667     -7.213410
    78     -2.225912      7.896899     -9.445677
    79     -6.370786      1.730460     -2.111414
    80     -7.528274      3.206213     -2.127314
    81     -4.769860      2.741970     -2.066778
    82      6.270633     -4.562470     -0.074533
    83      6.739463     -3.509499      1.343231
    84      7.824702     -5.377696     -0.723656
    85      4.673153     11.209700     -9.477409
    86      4.031236     12.641242     -8.340520
    87      5.032488     12.066489    -11.103339
    88      4.243492     -0.140046      5.182625
    89      2.438967      0.366000      5.284636
    90      5.358882      1.030379      5.995608
    91      0.744577      3.054597     -7.363454
    92     -0.375421      1.814815     -8.208299
    93      2.444742      2.300541     -7.261206
    94     -6.831823     -8.733547     -6.850032
    95     -6.178711     -7.880441     -5.284749
    96     -6.678339    -10.615818     -6.530672
    97      7.117215      7.392062     -0.915569
    98      5.803215      8.688700     -0.519144
    99      8.762112      8.274986     -0.610593
   100      3.956544     -2.575234     -4.822789
   101      2.179160     -3.174111     -4.438228
   102      4.834477     -2.989821     -3.184377
   103      2.959572     -8.879131     -6.670881
   104      1.611160     -7.871376     -7.638362
   105      4.282380     -7.623204     -6.309342
   106     -4.266431     -1.313067      6.205382
   107     -5.631692     -1.684897      7.374879
   108     -5.255799     -1.181831      4.577111
   109     -9.488615      2.578053     -8.751048
   110     -8.511604      3.354912    -10.091444
   111     -8.585489      0.962281     -8.371118
   112      1.234312     -7.280104      1.520298
   113      2.775694     -6.437828      1.043941
   114      0.399199     -8.016536      0.081381
   115     -4.969785     -4.581048    -10.266438
   116     -4.593561     -2.750188     -9.897025
   117     -5.867431     -5.214089     -8.693575
   118     -5.421095      9.334058     -4.319264
   119     -6.985484      8.207107     -4.526085
   120     -4.450403      8.510718     -2.820339
   121     11.055459     -7.277606      0.012521
   122     12.905229     -6.734729      0.431152
   123     10.469292     -8.423929      1.334681
   124     -0.167190     -9.649660     -2.550783
   125     -0.512241    -11.420133     -2.298353
   126      1.032493     -9.577289     -4.076064
   127    -11.645721    -10.326019     -4.058230
   128    -12.049124     -9.166001     -2.532764
   129    -10.168055     -9.700456     -4.985927
   130     -0.546906      8.690250     -0.447034
   131     -0.275756      6.975024     -1.289562
   132     -0.958099      8.068225      1.317872
   133      1.034145      6.174673      8.173530
   134      1.172668      7.031217      9.867568
   135      2.803883      6.224654      7.430626
   136    -11.656271    -10.777201      4.173900
   137    -10.367262     -9.560389      4.883317
   138    -12.293413    -11.604993      5.742660
   139     -1.894522      7.933943      4.780839
   140     -0.383711      7.437594      5.808047
   141     -2.499163      9.613976      5.329574
   142      5.438549      1.387000     -7.335690
   143      4.820784     -0.083524     -6.305976
   144      6.631463      2.324499     -6.284114
   145    -11.111644      1.415543      3.389424
   146    -10.269244      2.900934      2.510307
   147    -12.394819      0.877441      2.231343
   148    -10.743605    -11.068804    -10.121199
   149    -10.142706     -9.945254     -8.762764
   150    -11.849295    -12.209275     -9.231274
   151     -7.708660     -6.300744      1.190301
   152     -7.230485     -4.505831      1.311697
   153     -7.020308     -7.092254      2.681956
   154      8.597192      1.175001    -11.729972
   155     10.117531      1.696692    -10.677166
   156      7.147751      1.231017    -10.591951
   157      8.268466      2.582764      6.860528
   158      9.825521      1.878547      6.180807
   159      8.332513      2.688207      8.791059
   160     -0.666864     -5.198716      5.958303
   161     -2.098964     -4.063799      5.681983
   162      0.012697     -5.666811      4.216716
   163     -3.758656    -11.430812      7.321742
   164     -4.926486    -12.094417      8.536802
   165     -2.409883    -10.918615      8.413303
   166     -5.485397      4.707521      5.322189
   167     -4.010588      5.944086      5.323421
   168     -4.603293      3.064386      5.452242
   169      5.579362     -9.489435      6.128282
   170      6.385203     -7.710551      5.977423
   171      6.670758    -10.470659      7.146111
   172      6.948302     -4.389267      5.289876
   173      5.607428     -3.139633      5.444352
   174      8.470121     -3.626313      6.015926
   175     11.625642     -3.206535     -4.914511
   176     12.516268     -4.670594     -4.462785
   177     10.673315     -2.467412     -3.452480
 
  MM charges 
  ---------- 
     1     -0.674440
     2      0.337220
     3      0.337220
     4     -0.674440
     5      0.337220
     6      0.337220
     7     -0.674440
     8      0.337220
     9      0.337220
    10     -0.674440
    11      0.337220
    12      0.337220
    13     -0.674440
    14      0.337220
    15      0.337220
    16     -0.674440
    17      0.337220
    18      0.337220
    19     -0.674440
    20      0.337220
    21      0.337220
    22     -0.674440
    23      0.337220
    24      0.337220
    25     -0.674440
    26      0.337220
    27      0.337220
    28     -0.674440
    29      0.337220
    30      0.337220
    31     -0.674440
    32      0.337220
    33      0.337220
    34     -0.674440
    35      0.337220
    36      0.337220
    37     -0.674440
    38      0.337220
    39      0.337220
    40     -0.674440
    41      0.337220
    42      0.337220
    43     -0.674440
    44      0.337220
    45      0.337220
    46     -0.674440
    47      0.337220
    48      0.337220
    49     -0.674440
    50      0.337220
    51      0.337220
    52     -0.674440
    53      0.337220
    54      0.337220
    55     -0.674440
    56      0.337220
    57      0.337220
    58     -0.674440
    59      0.337220
    60      0.337220
    61     -0.674440
    62      0.337220
    63      0.337220
    64     -0.674440
    65      0.337220
    66      0.337220
    67     -0.674440
    68      0.337220
    69      0.337220
    70     -0.674440
    71      0.337220
    72      0.337220
    73     -0.674440
    74      0.337220
    75      0.337220
    76     -0.674440
    77      0.337220
    78      0.337220
    79     -0.674440
    80      0.337220
    81      0.337220
    82     -0.674440
    83      0.337220
    84      0.337220
    85     -0.674440
    86      0.337220
    87      0.337220
    88     -0.674440
    89      0.337220
    90      0.337220
    91     -0.674440
    92      0.337220
    93      0.337220
    94     -0.674440
    95      0.337220
    96      0.337220
    97     -0.674440
    98      0.337220
    99      0.337220
   100     -0.674440
   101      0.337220
   102      0.337220
   103     -0.674440
   104      0.337220
   105      0.337220
   106     -0.674440
   107      0.337220
   108      0.337220
   109     -0.674440
   110      0.337220
   111      0.337220
   112     -0.674440
   113      0.337220
   114      0.337220
   115     -0.674440
   116      0.337220
   117      0.337220
   118     -0.674440
   119      0.337220
   120      0.337220
   121     -0.674440
   122      0.337220
   123      0.337220
   124     -0.674440
   125      0.337220
   126      0.337220
   127     -0.674440
   128      0.337220
   129      0.337220
   130     -0.674440
   131      0.337220
   132      0.337220
   133     -0.674440
   134      0.337220
   135      0.337220
   136     -0.674440
   137      0.337220
   138      0.337220
   139     -0.674440
   140      0.337220
   141      0.337220
   142     -0.674440
   143      0.337220
   144      0.337220
   145     -0.674440
   146      0.337220
   147      0.337220
   148     -0.674440
   149      0.337220
   150      0.337220
   151     -0.674440
   152      0.337220
   153      0.337220
   154     -0.674440
   155      0.337220
   156      0.337220
   157     -0.674440
   158      0.337220
   159      0.337220
   160     -0.674440
   161      0.337220
   162      0.337220
   163     -0.674440
   164      0.337220
   165      0.337220
   166     -0.674440
   167      0.337220
   168      0.337220
   169     -0.674440
   170      0.337220
   171      0.337220
   172     -0.674440
   173      0.337220
   174      0.337220
   175     -0.674440
   176      0.337220
   177      0.337220
 
  MM isotropic polarizabilities in au 
  ----------------------------------- 
     1      5.739350
     2      2.308390
     3      2.308390
     4      5.739350
     5      2.308390
     6      2.308390
     7      5.739350
     8      2.308390
     9      2.308390
    10      5.739350
    11      2.308390
    12      2.308390
    13      5.739350
    14      2.308390
    15      2.308390
    16      5.739350
    17      2.308390
    18      2.308390
    19      5.739350
    20      2.308390
    21      2.308390
    22      5.739350
    23      2.308390
    24      2.308390
    25      5.739350
    26      2.308390
    27      2.308390
    28      5.739350
    29      2.308390
    30      2.308390
    31      5.739350
    32      2.308390
    33      2.308390
    34      5.739350
    35      2.308390
    36      2.308390
    37      5.739350
    38      2.308390
    39      2.308390
    40      5.739350
    41      2.308390
    42      2.308390
    43      5.739350
    44      2.308390
    45      2.308390
    46      5.739350
    47      2.308390
    48      2.308390
    49      5.739350
    50      2.308390
    51      2.308390
    52      5.739350
    53      2.308390
    54      2.308390
    55      5.739350
    56      2.308390
    57      2.308390
    58      5.739350
    59      2.308390
    60      2.308390
    61      5.739350
    62      2.308390
    63      2.308390
    64      5.739350
    65      2.308390
    66      2.308390
    67      5.739350
    68      2.308390
    69      2.308390
    70      5.739350
    71      2.308390
    72      2.308390
    73      5.739350
    74      2.308390
    75      2.308390
    76      5.739350
    77      2.308390
    78      2.308390
    79      5.739350
    80      2.308390
    81      2.308390
    82      5.739350
    83      2.308390
    84      2.308390
    85      5.739350
    86      2.308390
    87      2.308390
    88      5.739350
    89      2.308390
    90      2.308390
    91      5.739350
    92      2.308390
    93      2.308390
    94      5.739350
    95      2.308390
    96      2.308390
    97      5.739350
    98      2.308390
    99      2.308390
   100      5.739350
   101      2.308390
   102      2.308390
   103      5.739350
   104      2.308390
   105      2.308390
   106      5.739350
   107      2.308390
   108      2.308390
   109      5.739350
   110      2.308390
   111      2.308390
   112      5.739350
   113      2.308390
   114      2.308390
   115      5.739350
   116      2.308390
   117      2.308390
   118      5.739350
   119      2.308390
   120      2.308390
   121      5.739350
   122      2.308390
   123      2.308390
   124      5.739350
   125      2.308390
   126      2.308390
   127      5.739350
   128      2.308390
   129      2.308390
   130      5.739350
   131      2.308390
   132      2.308390
   133      5.739350
   134      2.308390
   135      2.308390
   136      5.739350
   137      2.308390
   138      2.308390
   139      5.739350
   140      2.308390
   141      2.308390
   142      5.739350
   143      2.308390
   144      2.308390
   145      5.739350
   146      2.308390
   147      2.308390
   148      5.739350
   149      2.308390
   150      2.308390
   151      5.739350
   152      2.308390
   153      2.308390
   154      5.739350
   155      2.308390
   156      2.308390
   157      5.739350
   158      2.308390
   159      2.308390
   160      5.739350
   161      2.308390
   162      2.308390
   163      5.739350
   164      2.308390
   165      2.308390
   166      5.739350
   167      2.308390
   168      2.308390
   169      5.739350
   170      2.308390
   171      2.308390
   172      5.739350
   173      2.308390
   174      2.308390
   175      5.739350
   176      2.308390
   177      2.308390


     ************************************************************************
     ************************** Output from HERINT **************************
     ************************************************************************



                      Nuclear contribution to dipole moments
                      --------------------------------------

                 au               Debye          C m (/(10**-30)

      x     18.64167390        47.38240581       158.05069322
      y     49.90326201       126.84143196       423.09747484
      z    -12.11905552       -30.80356463      -102.74963165



 Threshold for neglecting two-electron integrals:  1.00D-12
 HERMIT - Number of two-electron integrals written:    23641206 ( 49.9% )
 HERMIT - Megabytes written:                            270.709

  Time used in TWOINT     is       4.60 seconds
  Total CPU  time used in HERMIT:   4.76 seconds
  Total wall time used in HERMIT:   5.24 seconds


                        .----------------------------------.
                        | End of Integral Section (HERMIT) |
                        `----------------------------------'



                   .--------------------------------------------.
                   | Starting in Wave Function Section (SIRIUS) |
                   `--------------------------------------------'

NCCEXCI for singlet:   25
 CCSD_INPUT: core-val requested
 Requested number of core orbs per sym
                     1
 Indices of requested core orbs
                     1

 *** Output from Huckel module :

     Using EWMO model:          T
     Using EHT  model:          F
     Number of Huckel orbitals each symmetry:   36

 EWMO - Energy Weighted Maximum Overlap - is a Huckel type method,
        which normally is better than Extended Huckel Theory.
 Reference: Linderberg and Ohrn, Propagators in Quantum Chemistry (Wiley, 1973)

 Huckel EWMO eigenvalues for symmetry :  1
          -20.684516     -20.684419     -20.684305     -20.684062     -15.675136
           -1.763698      -1.595028      -1.577440      -1.570817      -1.451688
           -0.814194      -0.806779      -0.800425      -0.778485      -0.754556
           -0.721361      -0.698201      -0.688679      -0.664139      -0.647023
           -0.616183      -0.610691      -0.608511      -0.585827      -0.501427
           -0.260081      -0.246580      -0.242815      -0.221036      -0.179724
           -0.179344      -0.178466      -0.174385      -0.151105      -0.142363
           -0.132313

 **********************************************************************
 *SIRIUS* a direct, restricted step, second order MCSCF program       *
 **********************************************************************

 
     Date and time (Linux)  : Fri Jun  8 17:33:07 2018
     Host name              : n-62-29-5                               

 Title lines from ".mol" input file:
                                                                             
                                                                             

 Print level on unit LUPRI =   2 is   0
 Print level on unit LUW4  =   2 is  11

@    (Integral direct) CC calculation.

@    This is a combination run starting with
@              a restricted, closed shell Hartree-Fock calculation


 Initial molecular orbitals are obtained according to
 ".MOSTART EWMO  " input option

@    QM part is embedded in an environment :

@         Model: QMMM

     Wave function specification
     ============================

     For the specification of the Coupled Cluster: see later.

@    Wave function type        --- CC ---
@    Number of closed shell electrons          50
@    Number of electrons in active shells       0
@    Total charge of the molecule               0

@    Spin multiplicity and 2 M_S                1         0
@    Total number of symmetries                 1 (point group: C1 )
@    Reference state symmetry                   1 (irrep name : A  )

     Orbital specifications
     ======================
@    Abelian symmetry species          All |    1
@                                          |  A  
                                       --- |  ---
@    Occupied SCF orbitals              25 |   25
@    Secondary orbitals                114 |  114
@    Total number of orbitals          139 |  139
@    Number of basis functions         139 |  139

     Optimization information
     ========================
@    Number of configurations                 1
@    Number of orbital rotations           2850
     ------------------------------------------
@    Total number of variables             2851

     Maximum number of Fock   iterations      0
     Maximum number of DIIS   iterations     60
     Maximum number of QC-SCF iterations     60
     Threshold for SCF convergence     1.00D-07


 Changes of defaults for CC:
 ---------------------------


 -Implicit frozen core calculation
 -Excitation energies calculated
 -One-photon absorption strengths will be calculated
 -Oscillator strengths calculated
  
* Read MO coefficients from SIRIUS.RST with label "NEWORB  " and header info:  8Jun18  REORTHO 


 ***********************************************
 ***** DIIS acceleration of SCF iterations *****
 ***********************************************

 C1-DIIS algorithm; max error vectors =    8
 -----------------------------------------------------------------------------

 *** DIIS iteration number    1
 RDSUPM called. NFMAT, ISYMDM(1:NFMAT)                     1
                     1

Calculating AOSUPINT
     (Precalculated two-electron integrals are transformed to P-supermatrix elements.
      Threshold for discarding integrals :  1.00D-12 )
  CPU  time used in FORMSUP    is   3.01 seconds
  WALL time used in FORMSUP    is   6.00 seconds

 ITDIIS, energy, error norm, change in energy, scr.thr., difden:
@ DIIS iter.   1    -359.844614598        3.58895D+00   -3.60D+02  -20    F

 (DIIS_RED) Control Parameters C2DIIS =         F NEVC =    1


 (DIIS_RED) B matrix:

               Column   1
       1      12.88057373
    ==== End of matrix output ====

 DIIS C vector; C2DIIS = F, LAMBDA = -1.29D+01
    1.000000
* Read MO coefficients from SIRIUS.RST with label "NEWORB  " and header info:  8Jun18  DIIS   1
      Virial theorem: -V/T =      2.000880
@      MULPOP N      -0.58; H       0.16; H       0.19; H       0.22; O      -0.53; O      -0.87; O      -0.52; O      -0.51; H       0.27; H       0.31; 
@             H       0.29; H       0.42; H       0.30; H       0.27; H       0.28; H       0.31; 
   1  Level shift: doubly occupied orbital energies shifted by -2.00D-01

 DIIS Fock eigenvalues in symmetry 1
      -20.76044      -20.73737      -20.71117      -20.47484      -16.06917
       -1.54121       -1.53740       -1.50889       -1.49977       -1.40978
       -1.00461       -0.98879       -0.93412       -0.93298       -0.88670
       -0.88623       -0.79027       -0.77608       -0.75679       -0.75592
       -0.74349       -0.74015       -0.70478       -0.65787       -0.61861
        0.06397        0.10614        0.11653        0.17974        0.21469
        0.21900        0.22820        0.26358        0.27281        0.28488
        0.29868        0.31414        0.32368        0.34234        0.35410
        0.37021        0.42123        0.49512        0.59425        0.63094
        0.76122        0.85527        0.90646        0.92047        0.97352
        1.00043        1.01124        1.02292        1.04603        1.08199
        1.09446        1.10996        1.15217        1.16363        1.19016
        1.21379        1.22912        1.23869        1.26932        1.28011
        1.31384        1.32103        1.33937        1.35967        1.39226
        1.42405        1.44898        1.56543        1.60425        1.66746
        1.70024        1.71554        1.73278        1.75262        1.78631
        1.80591        1.81300        1.84277        1.86189        1.87328
        1.89594        1.90423        1.91803        1.94201        1.98337
        2.03226        2.04960        2.13974        2.19631        2.39510
        2.41182        2.45242        2.46944        2.49606        2.51465
        2.53807        2.54769        2.66451        2.68978        2.71487
        2.72531        2.72873        2.73509        2.79882        2.80863
        2.81404        2.87895        2.88769        2.92681        2.93690
        2.94161        2.96040        2.99585        3.02055        3.04608
        3.13159        3.21278        3.21762        3.30397        3.33911
        3.35523        3.38676        3.66686        3.67328        3.67886
        3.71044        3.79784        3.81273        3.89050        3.91399
        4.59987        5.05703        5.15463       36.80354
 Time used in FCKEIG, thr_jaco:   3.00D-02  3.20D-02  1.68D-04
 CPU and wall times used in FCKEIG, THR_FCKEIG:   3.00D-02  3.20D-02  3.59D-02
 -----------------------------------------------------------------------------

 *** DIIS iteration number    2
 RDSUPM called. NFMAT, ISYMDM(1:NFMAT)                     1
                     1

 ITDIIS, energy, error norm, change in energy, scr.thr., difden:
@ DIIS iter.   2    -360.642318108        9.70239D-01   -7.98D-01  -20    F

 (DIIS_RED) Control Parameters C2DIIS =         F NEVC =    2


 (DIIS_RED) B matrix:

               Column   1     Column   2
       1      12.88057373
       2       1.03032580     0.94136324
    ==== End of matrix output ====

 DIIS C vector; C2DIIS = F, LAMBDA = -9.41D-01
   -0.007564    1.007564
* Read MO coefficients from SIRIUS.RST with label "NEWORB  " and header info:  8Jun18  DIIS   2
      Virial theorem: -V/T =      2.004909
@      MULPOP N      -0.97; H       0.26; H       0.29; H       0.33; O      -0.63; O      -0.81; O      -0.69; O      -0.62; H       0.33; H       0.35; 
@             H       0.31; H       0.47; H       0.39; H       0.34; H       0.34; H       0.34; 
   2  Level shift: doubly occupied orbital energies shifted by -1.00D-01

 DIIS Fock eigenvalues in symmetry 1
      -20.75062      -20.70206      -20.68422      -20.65019      -15.48389
       -1.43716       -1.42968       -1.42207       -1.39879       -1.21768
       -0.81684       -0.80762       -0.77964       -0.75955       -0.73159
       -0.71317       -0.69579       -0.67354       -0.67161       -0.65174
       -0.62954       -0.62295       -0.62185       -0.58220       -0.50296
        0.08710        0.12165        0.12663        0.20461        0.24075
        0.24977        0.27121        0.28966        0.30222        0.32364
        0.33573        0.35058        0.36177        0.38098        0.38809
        0.40217        0.45083        0.53170        0.67712        0.70420
        0.84648        0.96121        1.00674        1.01516        1.03354
        1.04294        1.06519        1.08634        1.08881        1.10794
        1.13326        1.15160        1.16294        1.17796        1.19949
        1.22812        1.24327        1.27476        1.28732        1.31186
        1.34006        1.35340        1.36734        1.39608        1.42204
        1.43502        1.50971        1.60464        1.63151        1.68963
        1.72635        1.75829        1.76545        1.80330        1.83478
        1.84725        1.85015        1.86439        1.89239        1.90620
        1.91694        1.93491        1.96009        1.98319        2.00654
        2.06349        2.10261        2.29374        2.33716        2.46857
        2.48392        2.50053        2.51143        2.57623        2.58787
        2.59853        2.62573        2.68298        2.74581        2.75953
        2.76457        2.76964        2.78582        2.86335        2.86641
        2.88777        2.97136        2.97990        2.98478        2.99099
        3.00008        3.02940        3.08743        3.10317        3.13520
        3.27073        3.27544        3.28399        3.35276        3.35827
        3.58589        3.61298        3.71653        3.72734        3.74678
        3.77295        3.84213        3.85205        3.90870        3.93250
        4.83814        5.34946        5.44493       37.27898
 Time used in FCKEIG, thr_jaco:   2.30D-02  2.40D-02  4.54D-05
 CPU and wall times used in FCKEIG, THR_FCKEIG:   2.30D-02  2.40D-02  9.70D-03
 -----------------------------------------------------------------------------

 *** DIIS iteration number    3
 RDSUPM called. NFMAT, ISYMDM(1:NFMAT)                     1
                     1

 ITDIIS, energy, error norm, change in energy, scr.thr., difden:
@ DIIS iter.   3    -360.705231997        3.92483D-01   -6.29D-02  -20    F

 (DIIS_RED) Control Parameters C2DIIS =         F NEVC =    3


 (DIIS_RED) B matrix:

               Column   1     Column   2     Column   3
       1      12.88057373
       2       1.03032580     0.94136324
       3       0.78326375    -0.03181978     0.15404283
    ==== End of matrix output ====

 DIIS C vector; C2DIIS = F, LAMBDA = -8.11D-02
   -0.061792    0.183439    0.878353
* Read MO coefficients from SIRIUS.RST with label "NEWORB  " and header info:  8Jun18  DIIS   3
      Virial theorem: -V/T =      2.003359
@      MULPOP N      -0.88; H       0.23; H       0.26; H       0.31; O      -0.72; O      -0.97; O      -0.79; O      -0.73; H       0.37; H       0.38; 
@             H       0.40; H       0.54; H       0.44; H       0.38; H       0.39; H       0.38; 
   3  Level shift: doubly occupied orbital energies shifted by -5.00D-02

 DIIS Fock eigenvalues in symmetry 1
      -20.61680      -20.61322      -20.57620      -20.53983      -15.59030
       -1.37130       -1.37093       -1.33922       -1.31907       -1.20871
       -0.75162       -0.74790       -0.70853       -0.69962       -0.69345
       -0.68582       -0.61233       -0.60713       -0.60138       -0.58970
       -0.56282       -0.55226       -0.51536       -0.51177       -0.46986
        0.08954        0.12371        0.12886        0.20664        0.24361
        0.25523        0.27214        0.29471        0.30801        0.32850
        0.34171        0.34962        0.36647        0.38745        0.39038
        0.40784        0.45342        0.54500        0.67115        0.69923
        0.84395        0.95682        1.00587        1.01505        1.03272
        1.05169        1.07481        1.08699        1.09781        1.11829
        1.14754        1.16056        1.18147        1.21232        1.22028
        1.24156        1.25493        1.28668        1.30087        1.31906
        1.34893        1.36429        1.38697        1.40929        1.43329
        1.43638        1.50859        1.61530        1.63808        1.70076
        1.75421        1.77598        1.77868        1.82380        1.84899
        1.86101        1.86509        1.88393        1.91461        1.92262
        1.93785        1.94729        1.97214        2.00318        2.01704
        2.07245        2.10855        2.27552        2.32368        2.47938
        2.49372        2.51567        2.52435        2.58879        2.59730
        2.60990        2.62362        2.71401        2.75425        2.77302
        2.78228        2.78327        2.79865        2.87341        2.87967
        2.89534        2.98150        2.99023        2.99916        3.00729
        3.01132        3.02593        3.06465        3.09280        3.13968
        3.26342        3.28482        3.28846        3.36589        3.37196
        3.54252        3.57093        3.73285        3.73920        3.75990
        3.78379        3.85544        3.86884        3.93221        3.94574
        4.77740        5.28503        5.38235       37.12747
 Time used in FCKEIG, thr_jaco:   2.50D-02  3.00D-02  1.84D-05
 CPU and wall times used in FCKEIG, THR_FCKEIG:   2.50D-02  3.00D-02  3.92D-03
 -----------------------------------------------------------------------------

 *** DIIS iteration number    4
 RDSUPM called. NFMAT, ISYMDM(1:NFMAT)                     1
                     1

 ITDIIS, energy, error norm, change in energy, scr.thr., difden:
@ DIIS iter.   4    -360.715295190        8.48048D-02   -1.01D-02  -20    F

 (DIIS_RED) Control Parameters C2DIIS =         F NEVC =    4


 (DIIS_RED) B matrix:

               Column   1     Column   2     Column   3     Column   4
       1      12.88057373
       2       1.03032580     0.94136324
       3       0.78326375    -0.03181978     0.15404283
       4       0.06466393     0.06353528     0.00212000     0.00719185
    ==== End of matrix output ====

 DIIS C vector; C2DIIS = F, LAMBDA = -3.30D-03
    0.001565   -0.072119   -0.016380    1.086934
* Read MO coefficients from SIRIUS.RST with label "NEWORB  " and header info:  8Jun18  DIIS   4
      Virial theorem: -V/T =      2.004002
@      MULPOP N      -0.95; H       0.24; H       0.28; H       0.33; O      -0.74; O      -0.97; O      -0.82; O      -0.75; H       0.38; H       0.40; 
@             H       0.41; H       0.55; H       0.46; H       0.40; H       0.40; H       0.39; 
   4  Level shift: doubly occupied orbital energies shifted by -1.25D-02

 DIIS Fock eigenvalues in symmetry 1
      -20.58191      -20.58137      -20.54198      -20.53235      -15.53721
       -1.33541       -1.33504       -1.30377       -1.29063       -1.16551
       -0.71542       -0.71212       -0.66826       -0.66225       -0.65780
       -0.64420       -0.57334       -0.57112       -0.56634       -0.55145
       -0.52274       -0.51262       -0.48021       -0.47538       -0.42804
        0.09029        0.12402        0.12987        0.20810        0.24446
        0.25553        0.27374        0.29405        0.30773        0.32794
        0.34229        0.35117        0.36623        0.38741        0.39116
        0.40693        0.45511        0.54616        0.67472        0.70285
        0.84702        0.95982        1.00838        1.01616        1.03359
        1.05083        1.07398        1.08688        1.09647        1.11600
        1.14838        1.15775        1.18189        1.21194        1.21843
        1.24248        1.25504        1.28815        1.30072        1.32042
        1.34920        1.36529        1.38683        1.40639        1.43290
        1.43819        1.50919        1.61587        1.63886        1.70027
        1.75230        1.77562        1.77784        1.82398        1.84796
        1.86024        1.86518        1.88291        1.91345        1.92247
        1.93652        1.94759        1.97220        2.00287        2.01816
        2.07321        2.11107        2.28121        2.32861        2.47737
        2.49230        2.51548        2.52393        2.58803        2.59442
        2.61008        2.62658        2.70926        2.75630        2.77246
        2.78256        2.78311        2.79702        2.87159        2.87867
        2.89701        2.98008        2.98907        2.99989        3.00228
        3.00881        3.03026        3.06969        3.09649        3.14178
        3.26804        3.28308        3.28753        3.36408        3.37036
        3.55036        3.57862        3.73163        3.73733        3.75691
        3.78296        3.85469        3.86823        3.92858        3.94466
        4.78617        5.29422        5.39143       37.14300
 Time used in FCKEIG, thr_jaco:   2.10D-02  2.30D-02  3.97D-06
 CPU and wall times used in FCKEIG, THR_FCKEIG:   2.10D-02  2.30D-02  8.48D-04
 -----------------------------------------------------------------------------

 *** DIIS iteration number    5
 RDSUPM called. NFMAT, ISYMDM(1:NFMAT)                     1
                     1

 ITDIIS, energy, error norm, change in energy, scr.thr., difden:
@ DIIS iter.   5    -360.716182121        2.21258D-02   -8.87D-04  -20    F

 (DIIS_RED) Control Parameters C2DIIS =         F NEVC =    5


 (DIIS_RED) B matrix:

               Column   1     Column   2     Column   3     Column   4     Column   5
       1      12.88057373
       2       1.03032580     0.94136324
       3       0.78326375    -0.03181978     0.15404283
       4       0.06466393     0.06353528     0.00212000     0.00719185
       5       0.01252258     0.00412111     0.00400865     0.00081662     0.00048955
    ==== End of matrix output ====

 DIIS C vector; C2DIIS = F, LAMBDA = -3.59D-04
    0.001668   -0.005332   -0.034626   -0.028957    1.067247
* Read MO coefficients from SIRIUS.RST with label "NEWORB  " and header info:  8Jun18  DIIS   5
      Virial theorem: -V/T =      2.003788
@      MULPOP N      -0.96; H       0.24; H       0.28; H       0.33; O      -0.76; O      -0.99; O      -0.84; O      -0.76; H       0.39; H       0.40; 
@             H       0.42; H       0.55; H       0.47; H       0.41; H       0.41; H       0.40; 

 DIIS Fock eigenvalues in symmetry 1
      -20.56896      -20.56719      -20.52944      -20.51145      -15.51841
       -1.32249       -1.32209       -1.29114       -1.27509       -1.15105
       -0.70275       -0.69994       -0.65435       -0.64956       -0.64359
       -0.63029       -0.56065       -0.55684       -0.55260       -0.53918
       -0.50935       -0.49876       -0.46431       -0.46186       -0.41300
        0.09044        0.12410        0.13001        0.20849        0.24461
        0.25564        0.27413        0.29407        0.30781        0.32793
        0.34242        0.35148        0.36616        0.38774        0.39133
        0.40694        0.45562        0.54732        0.67537        0.70347
        0.84778        0.96117        1.00906        1.01646        1.03405
        1.05093        1.07430        1.08703        1.09644        1.11661
        1.14923        1.15749        1.18315        1.21335        1.21994
        1.24329        1.25597        1.28865        1.30122        1.32089
        1.34935        1.36589        1.38788        1.40779        1.43337
        1.43906        1.50989        1.61644        1.63919        1.70044
        1.75360        1.77609        1.77779        1.82505        1.84803
        1.86023        1.86568        1.88374        1.91434        1.92287
        1.93776        1.94807        1.97230        2.00417        2.01918
        2.07465        2.11198        2.28247        2.32963        2.47697
        2.49208        2.51560        2.52394        2.58792        2.59400
        2.61059        2.62748        2.71076        2.75676        2.77232
        2.78292        2.78387        2.79677        2.87116        2.87854
        2.89740        2.97977        2.98863        3.00016        3.00288
        3.00854        3.03140        3.07121        3.09765        3.14300
        3.26918        3.28272        3.28746        3.36379        3.37108
        3.55251        3.58077        3.73156        3.73688        3.75659
        3.78433        3.85443        3.86827        3.93015        3.94450
        4.78902        5.29724        5.39435       37.14914
 Time used in FCKEIG, thr_jaco:   1.70D-02  2.00D-02  1.04D-06
 CPU and wall times used in FCKEIG, THR_FCKEIG:   1.70D-02  2.00D-02  2.21D-04
 -----------------------------------------------------------------------------

 *** DIIS iteration number    6
 RDSUPM called. NFMAT, ISYMDM(1:NFMAT)                     1
                     1

 ITDIIS, energy, error norm, change in energy, scr.thr., difden:
@ DIIS iter.   6    -360.716247226        8.50103D-03   -6.51D-05  -20    F

 (DIIS_RED) Control Parameters C2DIIS =         F NEVC =    6


 (DIIS_RED) B matrix:

               Column   1     Column   2     Column   3     Column   4     Column   5     Column   6
       1      12.88057373
       2       1.03032580     0.94136324
       3       0.78326375    -0.03181978     0.15404283
       4       0.06466393     0.06353528     0.00212000     0.00719185
       5       0.01252258     0.00412111     0.00400865     0.00081662     0.00048955
       6      -0.00172861    -0.00031473     0.00054488     0.00032074     0.00003732     0.00007227
    ==== End of matrix output ====

 DIIS C vector; C2DIIS = F, LAMBDA = -2.85D-05
    0.000391    0.007359   -0.006484   -0.124855    0.175330    0.948259
* Read MO coefficients from SIRIUS.RST with label "NEWORB  " and header info:  8Jun18  DIIS   6
      Virial theorem: -V/T =      2.003925
@      MULPOP N      -0.96; H       0.23; H       0.28; H       0.33; O      -0.76; O      -0.99; O      -0.84; O      -0.76; H       0.39; H       0.40; 
@             H       0.42; H       0.55; H       0.47; H       0.41; H       0.41; H       0.40; 

 DIIS Fock eigenvalues in symmetry 1
      -20.56910      -20.56769      -20.52929      -20.51421      -15.52164
       -1.32251       -1.32217       -1.29102       -1.27585       -1.15205
       -0.70304       -0.70017       -0.65509       -0.64976       -0.64442
       -0.63109       -0.56080       -0.55744       -0.55311       -0.53931
       -0.50917       -0.49872       -0.46471       -0.46169       -0.41385
        0.09043        0.12410        0.13003        0.20848        0.24457
        0.25557        0.27402        0.29396        0.30775        0.32782
        0.34230        0.35133        0.36603        0.38754        0.39115
        0.40683        0.45544        0.54681        0.67507        0.70320
        0.84753        0.96065        1.00864        1.01608        1.03370
        1.05073        1.07402        1.08669        1.09624        1.11624
        1.14918        1.15737        1.18290        1.21327        1.21968
        1.24303        1.25577        1.28846        1.30098        1.32062
        1.34921        1.36560        1.38745        1.40725        1.43319
        1.43871        1.50951        1.61628        1.63906        1.70046
        1.75319        1.77587        1.77763        1.82468        1.84795
        1.86019        1.86549        1.88343        1.91403        1.92270
        1.93735        1.94784        1.97229        2.00375        2.01883
        2.07414        2.11163        2.28179        2.32898        2.47671
        2.49180        2.51543        2.52377        2.58789        2.59380
        2.61024        2.62702        2.71022        2.75645        2.77209
        2.78266        2.78343        2.79667        2.87092        2.87831
        2.89709        2.97963        2.98841        2.99982        3.00245
        3.00838        3.03078        3.07035        3.09706        3.14240
        3.26856        3.28245        3.28719        3.36362        3.37064
        3.55130        3.57956        3.73130        3.73664        3.75646
        3.78364        3.85421        3.86802        3.92946        3.94437
        4.78744        5.29564        5.39277       37.14598
 Time used in FCKEIG, thr_jaco:   1.90D-02  2.00D-02  3.98D-07
 CPU and wall times used in FCKEIG, THR_FCKEIG:   1.90D-02  2.00D-02  8.50D-05
 -----------------------------------------------------------------------------

 *** DIIS iteration number    7
 RDSUPM called. NFMAT, ISYMDM(1:NFMAT)                     1
                     1

 ITDIIS, energy, error norm, change in energy, scr.thr., difden:
@ DIIS iter.   7    -360.716254986        1.93074D-03   -7.76D-06  -20    F

 (DIIS_RED) Control Parameters C2DIIS =         F NEVC =    7


 (DIIS_RED) B matrix:

               Column   1     Column   2     Column   3     Column   4     Column   5     Column   6
       1      12.88057373
       2       1.03032580     0.94136324
       3       0.78326375    -0.03181978     0.15404283
       4       0.06466393     0.06353528     0.00212000     0.00719185
       5       0.01252258     0.00412111     0.00400865     0.00081662     0.00048955
       6      -0.00172861    -0.00031473     0.00054488     0.00032074     0.00003732     0.00007227
       7       0.00050781    -0.00004314     0.00008156     0.00000907     0.00003058     0.00000208

               Column   7
       7       0.00000373
    ==== End of matrix output ====

 DIIS C vector; C2DIIS = F, LAMBDA = -8.83D-07
   -0.000228   -0.000767    0.003653    0.025310   -0.125118   -0.106474    1.203623
* Read MO coefficients from SIRIUS.RST with label "NEWORB  " and header info:  8Jun18  DIIS   7
      Virial theorem: -V/T =      2.003899
@      MULPOP N      -0.96; H       0.24; H       0.28; H       0.33; O      -0.76; O      -0.99; O      -0.84; O      -0.76; H       0.39; H       0.40; 
@             H       0.42; H       0.55; H       0.47; H       0.41; H       0.41; H       0.40; 

 DIIS Fock eigenvalues in symmetry 1
      -20.56913      -20.56763      -20.52938      -20.51368      -15.52127
       -1.32248       -1.32212       -1.29101       -1.27558       -1.15191
       -0.70303       -0.70020       -0.65498       -0.64975       -0.64428
       -0.63101       -0.56084       -0.55734       -0.55304       -0.53940
       -0.50912       -0.49861       -0.46443       -0.46161       -0.41363
        0.09044        0.12411        0.13005        0.20851        0.24459
        0.25559        0.27407        0.29397        0.30777        0.32783
        0.34231        0.35135        0.36604        0.38758        0.39116
        0.40684        0.45549        0.54698        0.67514        0.70326
        0.84757        0.96076        1.00870        1.01612        1.03377
        1.05077        1.07405        1.08671        1.09625        1.11630
        1.14924        1.15735        1.18299        1.21337        1.21980
        1.24313        1.25585        1.28849        1.30103        1.32066
        1.34924        1.36569        1.38753        1.40737        1.43323
        1.43877        1.50958        1.61633        1.63911        1.70049
        1.75333        1.77591        1.77763        1.82480        1.84795
        1.86018        1.86553        1.88350        1.91411        1.92273
        1.93746        1.94789        1.97229        2.00388        2.01891
        2.07426        2.11169        2.28187        2.32906        2.47668
        2.49179        2.51544        2.52378        2.58788        2.59378
        2.61035        2.62709        2.71038        2.75650        2.77209
        2.78269        2.78354        2.79666        2.87089        2.87831
        2.89713        2.97962        2.98838        2.99985        3.00254
        3.00836        3.03091        3.07049        3.09720        3.14251
        3.26864        3.28243        3.28720        3.36363        3.37079
        3.55146        3.57971        3.73130        3.73661        3.75643
        3.78382        3.85420        3.86804        3.92962        3.94436
        4.78770        5.29583        5.39295       37.14634
 Time used in FCKEIG, thr_jaco:   1.90D-02  2.10D-02  9.04D-08
 CPU and wall times used in FCKEIG, THR_FCKEIG:   1.90D-02  2.10D-02  1.93D-05
 -----------------------------------------------------------------------------

 *** DIIS iteration number    8
 RDSUPM called. NFMAT, ISYMDM(1:NFMAT)                     1
                     1

 ITDIIS, energy, error norm, change in energy, scr.thr., difden:
@ DIIS iter.   8    -360.716255469        3.11593D-04   -4.83D-07  -20    F

 (DIIS_RED) Control Parameters C2DIIS =         F NEVC =    8


 (DIIS_RED) B matrix:

               Column   1     Column   2     Column   3     Column   4     Column   5     Column   6
       1      12.88057373
       2       1.03032580     0.94136324
       3       0.78326375    -0.03181978     0.15404283
       4       0.06466393     0.06353528     0.00212000     0.00719185
       5       0.01252258     0.00412111     0.00400865     0.00081662     0.00048955
       6      -0.00172861    -0.00031473     0.00054488     0.00032074     0.00003732     0.00007227
       7       0.00050781    -0.00004314     0.00008156     0.00000907     0.00003058     0.00000208
       8       0.00009531    -0.00001467     0.00001262     0.00000025     0.00000071     0.00000103

               Column   7     Column   8
       7       0.00000373
       8       0.00000026     0.00000010
    ==== End of matrix output ====

 DIIS C vector; C2DIIS = F, LAMBDA = -6.31D-08
    0.000005   -0.000120   -0.000253    0.001082    0.008886   -0.019554   -0.124041    1.133996
* Read MO coefficients from SIRIUS.RST with label "NEWORB  " and header info:  8Jun18  DIIS   8
      Virial theorem: -V/T =      2.003909
@      MULPOP N      -0.96; H       0.24; H       0.28; H       0.33; O      -0.76; O      -0.99; O      -0.84; O      -0.76; H       0.39; H       0.40; 
@             H       0.42; H       0.55; H       0.47; H       0.41; H       0.41; H       0.40; 

 DIIS Fock eigenvalues in symmetry 1
      -20.56910      -20.56761      -20.52932      -20.51370      -15.52130
       -1.32247       -1.32211       -1.29098       -1.27559       -1.15192
       -0.70302       -0.70019       -0.65499       -0.64973       -0.64429
       -0.63102       -0.56084       -0.55735       -0.55305       -0.53939
       -0.50911       -0.49860       -0.46442       -0.46158       -0.41365
        0.09044        0.12411        0.13005        0.20851        0.24459
        0.25558        0.27407        0.29397        0.30777        0.32783
        0.34231        0.35135        0.36604        0.38758        0.39116
        0.40685        0.45549        0.54695        0.67513        0.70326
        0.84757        0.96076        1.00869        1.01611        1.03376
        1.05077        1.07405        1.08671        1.09626        1.11630
        1.14924        1.15736        1.18299        1.21338        1.21981
        1.24312        1.25585        1.28849        1.30103        1.32067
        1.34925        1.36568        1.38753        1.40737        1.43323
        1.43877        1.50957        1.61633        1.63911        1.70050
        1.75332        1.77591        1.77763        1.82478        1.84796
        1.86020        1.86553        1.88350        1.91411        1.92274
        1.93746        1.94788        1.97231        2.00387        2.01890
        2.07425        2.11169        2.28186        2.32905        2.47668
        2.49179        2.51544        2.52378        2.58790        2.59378
        2.61034        2.62708        2.71038        2.75649        2.77209
        2.78269        2.78353        2.79667        2.87089        2.87831
        2.89712        2.97963        2.98838        2.99985        3.00255
        3.00837        3.03089        3.07047        3.09718        3.14250
        3.26862        3.28243        3.28720        3.36363        3.37078
        3.55144        3.57970        3.73130        3.73661        3.75644
        3.78380        3.85421        3.86804        3.92961        3.94438
        4.78767        5.29581        5.39293       37.14631
 Time used in FCKEIG, thr_jaco:   1.60D-02  1.80D-02  1.46D-08
 CPU and wall times used in FCKEIG, THR_FCKEIG:   1.60D-02  1.80D-02  3.12D-06
 -----------------------------------------------------------------------------

 *** DIIS iteration number    9
 RDSUPM called. NFMAT, ISYMDM(1:NFMAT)                     1
                     1

 ITDIIS, energy, error norm, change in energy, scr.thr., difden:
@ DIIS iter.   9    -360.716255483        9.23005D-05   -1.32D-08  -20    F

 (DIIS_RED) Control Parameters C2DIIS =         F NEVC =    8


 (DIIS_RED) B matrix:

               Column   1     Column   2     Column   3     Column   4     Column   5     Column   6
       1       0.00000001
       2       0.00000150     0.94136324
       3      -0.00000274    -0.03181978     0.15404283
       4       0.00000010     0.06353528     0.00212000     0.00719185
       5       0.00000003     0.00412111     0.00400865     0.00081662     0.00048955
       6       0.00000003    -0.00031473     0.00054488     0.00032074     0.00003732     0.00007227
       7       0.00000006    -0.00004314     0.00008156     0.00000907     0.00003058     0.00000208
       8       0.00000001    -0.00001467     0.00001262     0.00000025     0.00000071     0.00000103

               Column   7     Column   8
       7       0.00000373
       8       0.00000026     0.00000010
    ==== End of matrix output ====

 DIIS C vector; C2DIIS = F, LAMBDA = -6.35D-09
    1.044919    0.000045   -0.000069   -0.001051    0.004779    0.004089   -0.051281   -0.001431
* Read MO coefficients from SIRIUS.RST with label "NEWORB  " and header info:  8Jun18  DIIS   9
      Virial theorem: -V/T =      2.003910
@      MULPOP N      -0.96; H       0.24; H       0.28; H       0.33; O      -0.76; O      -0.99; O      -0.84; O      -0.76; H       0.39; H       0.40; 
[...]
                                                                                
            Total SCF   energy:                  -360.7162554837                
            Total MP2   energy:                  -361.7349385292                
            Total CCSD  energy:                  -361.7801235879                
                                                                                
                                                                                
            Total SCF   energy:                  -360.7162554837                
            Total RSTAR energy:                  -361.7801235879                
            Total CCSD  energy:                  -361.7801867604                
                                                                                
                                                                                
            Total SCF   energy:                  -360.7162554837                
            Total RSTAR energy:                  -361.7801867604                
            Total CCSD  energy:                  -361.7801886722                
                                                                                
                                                                                
            Total SCF   energy:                  -360.7162554837                
            Total RSTAR energy:                  -361.7801886722                
            Total CCSD  energy:                  -361.7801887486                
                                                                                
                                                                                
            Total SCF   energy:                  -360.7162554837                
            Total RSTAR energy:                  -361.7801887486                
            Total CCSD  energy:                  -361.7801887522                
                                                                                
                                                                                
            Total SCF   energy:                  -360.7162554837                
            Total RSTAR energy:                  -361.7801887522                
            Total CCSD  energy:                  -361.7801887522                
            CCSD Total  energy:                  -362.2238243464                
            CCSD E(QM/MM)     :                    -0.4396400017                
                                                                                
                                                                                
                                                                                
 +=============================================================================+
 |  sym. | Exci.  |        CCSD       Excitation energies            | ||T1||  |
 |(spin, |        +------------------------------------------------------------+
 | spat) |        |     Hartree    |       eV.      |     cm-1       |    %    |
 +=============================================================================+
 | ^1A   |    1   |    14.8103628  |     403.01047  |   3250498.890  |  88.58  |
 | ^1A   |    2   |    14.8720365  |     404.68870  |   3264034.690  |  88.75  |
 | ^1A   |    3   |    14.8860290  |     405.06945  |   3267105.697  |  88.70  |
 | ^1A   |    4   |    14.9118266  |     405.77144  |   3272767.609  |  88.61  |
 | ^1A   |    5   |    14.9371117  |     406.45949  |   3278317.061  |  88.30  |
 | ^1A   |    6   |    14.9539565  |     406.91786  |   3282014.060  |  88.45  |
 | ^1A   |    7   |    14.9718981  |     407.40607  |   3285951.778  |  88.47  |
 | ^1A   |    8   |    15.0037459  |     408.27269  |   3292941.566  |  88.84  |
 | ^1A   |    9   |    15.0148491  |     408.57483  |   3295378.449  |  88.89  |
 | ^1A   |   10   |    15.0312954  |     409.02235  |   3298987.992  |  88.32  |
 | ^1A   |   11   |    15.0730238  |     410.15784  |   3308146.311  |  88.13  |
 | ^1A   |   12   |    15.1000242  |     410.89256  |   3314072.219  |  87.98  |
 | ^1A   |   13   |    15.1066786  |     411.07364  |   3315532.697  |  87.93  |
 | ^1A   |   14   |    15.1174275  |     411.36613  |   3317891.796  |  88.04  |
 | ^1A   |   15   |    15.1489305  |     412.22337  |   3324805.913  |  88.04  |
 | ^1A   |   16   |    15.1596001  |     412.51370  |   3327147.615  |  88.04  |
 | ^1A   |   17   |    15.1734014  |     412.88925  |   3330176.645  |  88.23  |
 | ^1A   |   18   |    15.1854926  |     413.21827  |   3332830.369  |  88.26  |
 | ^1A   |   19   |    15.2771472  |     415.71232  |   3352946.216  |  88.32  |
 | ^1A   |   20   |    15.3186762  |     416.84238  |   3362060.791  |  88.45  |
 | ^1A   |   21   |    15.4232141  |     419.68700  |   3385004.193  |  88.57  |
 | ^1A   |   22   |    15.4895765  |     421.49282  |   3399569.055  |  89.36  |
 | ^1A   |   23   |    15.5317479  |     422.64036  |   3408824.617  |  89.96  |
 | ^1A   |   24   |    15.5396999  |     422.85674  |   3410569.873  |  90.10  |
 | ^1A   |   25   |    15.6496216  |     425.84786  |   3434694.889  |   0.05  |
 +=============================================================================+
                                                                                
                                                                                
     Total energies in Hartree:                                                 
             1 ^1A       -346.9738215277                                        
             2 ^1A       -346.9121478809                                        
             3 ^1A       -346.8981553452                                        
             4 ^1A       -346.8723577760                                        
             5 ^1A       -346.8470726102                                        
             6 ^1A       -346.8302278454                                        
             7 ^1A       -346.8122862793                                        
             8 ^1A       -346.7804384652                                        
             9 ^1A       -346.7693352071                                        
            10 ^1A       -346.7528889214                                        
            11 ^1A       -346.7111605475                                        
            12 ^1A       -346.6841601223                                        
            13 ^1A       -346.6775056981                                        
            14 ^1A       -346.6667568481                                        
            15 ^1A       -346.6352538139                                        
            16 ^1A       -346.6245842365                                        
            17 ^1A       -346.6107829601                                        
            18 ^1A       -346.5986917017                                        
            19 ^1A       -346.5070371584                                        
            20 ^1A       -346.4655080985                                        
            21 ^1A       -346.3609702646                                        
            22 ^1A       -346.2946078712                                        
            23 ^1A       -346.2524364262                                        
            24 ^1A       -346.2444844589                                        
            25 ^1A       -346.1345627929                                        
                                                                                
                                                                                
 +=============================================================================+
 |  sym. | Exci.  |        CCSD       Length   Gauge Oscillator Strength       |
 |(spin, |        +------------------------------------------------------------+
 | spat) |        | Dipole Strength(a.u.) | Oscillator strength  | Direction   |
 +=============================================================================+
 | ^1A   |    1   |        0.0006380      |      0.0062994       |  (Y,Z)      |
 | ^1A   |    2   |        0.0021909      |      0.0217219       |  (Y,Z)      |
 | ^1A   |    3   |        0.0011992      |      0.0119008       |  (Y,Z)      |
 | ^1A   |    4   |        0.0013896      |      0.0138147       |  (Y,Z)      |
 | ^1A   |    5   |        0.0006155      |      0.0061294       |  (Y,Z)      |
 | ^1A   |    6   |        0.0007398      |      0.0073749       |  (Y,Z)      |
 | ^1A   |    7   |        0.0002241      |      0.0022368       |  (Y,Z)      |
 | ^1A   |    8   |        0.0015900      |      0.0159044       |  (Y,Z)      |
 | ^1A   |    9   |        0.0018904      |      0.0189227       |  (Y,Z)      |
 | ^1A   |   10   |        0.0008446      |      0.0084631       |  (Y,Z)      |
 | ^1A   |   11   |        0.0001469      |      0.0014759       |  (Y,Z)      |
 | ^1A   |   12   |        0.0000873      |      0.0008791       |  (Y,Z)      |
 | ^1A   |   13   |        0.0001100      |      0.0011082       |  (Y,Z)      |
 | ^1A   |   14   |        0.0000555      |      0.0005597       |  (Y,Z)      |
 | ^1A   |   15   |        0.0001388      |      0.0014017       |  (Y,Z)      |
 | ^1A   |   16   |        0.0002549      |      0.0025766       |  (Y,Z)      |
 | ^1A   |   17   |        0.0003151      |      0.0031869       |  (Y,Z)      |
 | ^1A   |   18   |        0.0005444      |      0.0055116       |  (Y,Z)      |
 | ^1A   |   19   |        0.0002390      |      0.0024344       |  (Y,Z)      |
 | ^1A   |   20   |        0.0004214      |      0.0043036       |  (Y,Z)      |
 | ^1A   |   21   |        0.0013741      |      0.0141289       |  (Y,Z)      |
 | ^1A   |   22   |        0.0040076      |      0.0413844       |  (Y,Z)      |
 | ^1A   |   23   |        0.0050472      |      0.0522610       |  (Y,Z)      |
 | ^1A   |   24   |        0.0053938      |      0.0558791       |  (Y,Z)      |
 | ^1A   |   25   |        0.0000002      |      0.0000025       |  (Y,Z)      |
 +=============================================================================+

  1 a.u. =        27.21138 eV.  
  1 a.u. =    219474.62934 cm-1.
  

 *******************************************************************************
 *******************************************************************************
 *                                                                             *
 *                                                                             *
 *                      END OF COUPLED CLUSTER CALCULATION                     *
 *                                                                             *
 *                                                                             *
 *******************************************************************************
 *******************************************************************************


 CPU and wall time for CC :   82226.209   88699.102

 
     Date and time (Linux)  : Sat Jun  9 18:12:59 2018
     Host name              : n-62-29-5                               


                      .-------------------------------------.
                      | End of Coupled Cluster Section (CC) |
                      `-------------------------------------'

  Total CPU  time used in DALTON:  22 hours 51 minutes 55 seconds
  Total wall time used in DALTON:  24 hours 39 minutes 58 seconds

 
     Date and time (Linux)  : Sat Jun  9 18:12:59 2018
     Host name              : n-62-29-5                               
  

 +---------------------------------------------------------+ 
 | List of selected calculated molecular properties (a.u.) | 
 +---------------------------------------------------------+ 

  Properties are read from unit number                      4

 CCSD       properties :
 #  1 1 CCSD/MM  Ground state Energy =    -362.2238243464
 #  2 1 E_QM/MM  Ground state Energy =      -0.4396400017
 #  3 1 Sy: 1 Sp: 1 Exc:  1 E_tot:   -346.9738215277 w:     14.8103628171 E_grs:   -361.7841843447
 #  4 1 Exctot   Excited state Energy =    -346.9738215277
 #  5 1 Sy: 1 Sp: 1 Exc:  2 E_tot:   -346.9121478809 w:     14.8720364638 E_grs:   -361.7841843447
 #  6 1 Exctot   Excited state Energy =    -346.9121478809
 #  7 1 Sy: 1 Sp: 1 Exc:  3 E_tot:   -346.8981553452 w:     14.8860289995 E_grs:   -361.7841843447
 #  8 1 Exctot   Excited state Energy =    -346.8981553452
 #  9 1 Sy: 1 Sp: 1 Exc:  4 E_tot:   -346.8723577760 w:     14.9118265688 E_grs:   -361.7841843447
 # 10 1 Exctot   Excited state Energy =    -346.8723577760
 # 11 1 Sy: 1 Sp: 1 Exc:  5 E_tot:   -346.8470726102 w:     14.9371117345 E_grs:   -361.7841843447
 # 12 1 Exctot   Excited state Energy =    -346.8470726102
 # 13 1 Sy: 1 Sp: 1 Exc:  6 E_tot:   -346.8302278454 w:     14.9539564993 E_grs:   -361.7841843447
 # 14 1 Exctot   Excited state Energy =    -346.8302278454
 # 15 1 Sy: 1 Sp: 1 Exc:  7 E_tot:   -346.8122862793 w:     14.9718980654 E_grs:   -361.7841843447
 # 16 1 Exctot   Excited state Energy =    -346.8122862793
 # 17 1 Sy: 1 Sp: 1 Exc:  8 E_tot:   -346.7804384652 w:     15.0037458796 E_grs:   -361.7841843447
 # 18 1 Exctot   Excited state Energy =    -346.7804384652
 # 19 1 Sy: 1 Sp: 1 Exc:  9 E_tot:   -346.7693352071 w:     15.0148491377 E_grs:   -361.7841843447
 # 20 1 Exctot   Excited state Energy =    -346.7693352071
 # 21 1 Sy: 1 Sp: 1 Exc: 10 E_tot:   -346.7528889214 w:     15.0312954234 E_grs:   -361.7841843447
 # 22 1 Exctot   Excited state Energy =    -346.7528889214
 # 23 1 Sy: 1 Sp: 1 Exc: 11 E_tot:   -346.7111605475 w:     15.0730237972 E_grs:   -361.7841843447
 # 24 1 Exctot   Excited state Energy =    -346.7111605475
 # 25 1 Sy: 1 Sp: 1 Exc: 12 E_tot:   -346.6841601223 w:     15.1000242225 E_grs:   -361.7841843447
 # 26 1 Exctot   Excited state Energy =    -346.6841601223
 # 27 1 Sy: 1 Sp: 1 Exc: 13 E_tot:   -346.6775056981 w:     15.1066786466 E_grs:   -361.7841843447
 # 28 1 Exctot   Excited state Energy =    -346.6775056981
 # 29 1 Sy: 1 Sp: 1 Exc: 14 E_tot:   -346.6667568481 w:     15.1174274967 E_grs:   -361.7841843447
 # 30 1 Exctot   Excited state Energy =    -346.6667568481
 # 31 1 Sy: 1 Sp: 1 Exc: 15 E_tot:   -346.6352538139 w:     15.1489305309 E_grs:   -361.7841843447
 # 32 1 Exctot   Excited state Energy =    -346.6352538139
 # 33 1 Sy: 1 Sp: 1 Exc: 16 E_tot:   -346.6245842365 w:     15.1596001083 E_grs:   -361.7841843447
 # 34 1 Exctot   Excited state Energy =    -346.6245842365
 # 35 1 Sy: 1 Sp: 1 Exc: 17 E_tot:   -346.6107829601 w:     15.1734013846 E_grs:   -361.7841843447
 # 36 1 Exctot   Excited state Energy =    -346.6107829601
 # 37 1 Sy: 1 Sp: 1 Exc: 18 E_tot:   -346.5986917017 w:     15.1854926430 E_grs:   -361.7841843447
 # 38 1 Exctot   Excited state Energy =    -346.5986917017
 # 39 1 Sy: 1 Sp: 1 Exc: 19 E_tot:   -346.5070371584 w:     15.2771471863 E_grs:   -361.7841843447
 # 40 1 Exctot   Excited state Energy =    -346.5070371584
 # 41 1 Sy: 1 Sp: 1 Exc: 20 E_tot:   -346.4655080985 w:     15.3186762463 E_grs:   -361.7841843447
 # 42 1 Exctot   Excited state Energy =    -346.4655080985
 # 43 1 Sy: 1 Sp: 1 Exc: 21 E_tot:   -346.3609702646 w:     15.4232140802 E_grs:   -361.7841843447
 # 44 1 Exctot   Excited state Energy =    -346.3609702646
 # 45 1 Sy: 1 Sp: 1 Exc: 22 E_tot:   -346.2946078712 w:     15.4895764736 E_grs:   -361.7841843447
 # 46 1 Exctot   Excited state Energy =    -346.2946078712
 # 47 1 Sy: 1 Sp: 1 Exc: 23 E_tot:   -346.2524364262 w:     15.5317479185 E_grs:   -361.7841843447
 # 48 1 Exctot   Excited state Energy =    -346.2524364262
 # 49 1 Sy: 1 Sp: 1 Exc: 24 E_tot:   -346.2444844589 w:     15.5396998858 E_grs:   -361.7841843447
 # 50 1 Exctot   Excited state Energy =    -346.2444844589
 # 51 1 Sy: 1 Sp: 1 Exc: 25 E_tot:   -346.1345627929 w:     15.6496215519 E_grs:   -361.7841843447
 # 52 1 Exctot   Excited state Energy =    -346.1345627929
 # 53 1 |<O|XDIPLEN |i(14.810363)>| =     0.00347629
 # 55 1 |<O|XDIPLEN |i(14.872036)>| =     0.01186984
 # 57 1 |<O|XDIPLEN |i(14.886029)>| =     0.03240862
 # 59 1 |<O|XDIPLEN |i(14.911827)>| =     0.00786803
 # 61 1 |<O|XDIPLEN |i(14.937112)>| =     0.01719057
 # 63 1 |<O|XDIPLEN |i(14.953956)>| =     0.01765344
 # 65 1 |<O|XDIPLEN |i(14.971898)>| =     0.00381810
 # 67 1 |<O|XDIPLEN |i(15.003746)>| =     0.00768381
 # 69 1 |<O|XDIPLEN |i(15.014849)>| =     0.03655474
 # 71 1 |<O|XDIPLEN |i(15.031295)>| =     0.02603060
 # 73 1 |<O|XDIPLEN |i(15.073024)>| =     0.01135999
 # 75 1 |<O|XDIPLEN |i(15.100024)>| =     0.00279737
 # 77 1 |<O|XDIPLEN |i(15.106679)>| =     0.00589034
 # 79 1 |<O|XDIPLEN |i(15.117427)>| =     0.00593746
 # 81 1 |<O|XDIPLEN |i(15.148931)>| =     0.00904103
 # 83 1 |<O|XDIPLEN |i(15.159600)>| =     0.00882680
 # 85 1 |<O|XDIPLEN |i(15.173401)>| =     0.00001655
 # 87 1 |<O|XDIPLEN |i(15.185493)>| =     0.00720807
 # 89 1 |<O|XDIPLEN |i(15.277147)>| =     0.00791203
 # 91 1 |<O|XDIPLEN |i(15.318676)>| =     0.00311038
 # 93 1 |<O|XDIPLEN |i(15.423214)>| =     0.01486009
 # 95 1 |<O|XDIPLEN |i(15.489576)>| =     0.02050866
 # 97 1 |<O|XDIPLEN |i(15.531748)>| =     0.05383145
 # 99 1 |<O|XDIPLEN |i(15.539700)>| =     0.04390948
 #101 1 |<O|XDIPLEN |i(15.649622)>| =     0.00013109
 #103 1 |<O|YDIPLEN |i(14.810363)>| =     0.02192178
 #105 1 |<O|YDIPLEN |i(14.872036)>| =     0.02867946
 #107 1 |<O|YDIPLEN |i(14.886029)>| =     0.00384936
 #109 1 |<O|YDIPLEN |i(14.911827)>| =     0.02163759
 #111 1 |<O|YDIPLEN |i(14.937112)>| =     0.01540791
 #113 1 |<O|YDIPLEN |i(14.953956)>| =     0.00337541
 #115 1 |<O|YDIPLEN |i(14.971898)>| =     0.01357810
 #117 1 |<O|YDIPLEN |i(15.003746)>| =     0.01862090
 #119 1 |<O|YDIPLEN |i(15.014849)>| =     0.02100389
 #121 1 |<O|YDIPLEN |i(15.031295)>| =     0.00884994
 #123 1 |<O|YDIPLEN |i(15.073024)>| =     0.00182829
 #125 1 |<O|YDIPLEN |i(15.100024)>| =     0.00714417
 #127 1 |<O|YDIPLEN |i(15.106679)>| =     0.00737644
 #129 1 |<O|YDIPLEN |i(15.117427)>| =     0.00286579
 #131 1 |<O|YDIPLEN |i(15.148931)>| =     0.00733059
 #133 1 |<O|YDIPLEN |i(15.159600)>| =     0.01088533
 #135 1 |<O|YDIPLEN |i(15.173401)>| =     0.01728901
 #137 1 |<O|YDIPLEN |i(15.185493)>| =     0.01985809
 #139 1 |<O|YDIPLEN |i(15.277147)>| =     0.00838015
 #141 1 |<O|YDIPLEN |i(15.318676)>| =     0.01033204
 #143 1 |<O|YDIPLEN |i(15.423214)>| =     0.03245559
 #145 1 |<O|YDIPLEN |i(15.489576)>| =     0.05494798
 #147 1 |<O|YDIPLEN |i(15.531748)>| =     0.01397029
 #149 1 |<O|YDIPLEN |i(15.539700)>| =     0.02850392
 #151 1 |<O|YDIPLEN |i(15.649622)>| =     0.00023576
 #153 1 |<O|ZDIPLEN |i(14.810363)>| =     0.01205622
 #155 1 |<O|ZDIPLEN |i(14.872036)>| =     0.03503530
 #157 1 |<O|ZDIPLEN |i(14.886029)>| =     0.01157810
 #159 1 |<O|ZDIPLEN |i(14.911827)>| =     0.02931807
 #161 1 |<O|ZDIPLEN |i(14.937112)>| =     0.00908864
 #163 1 |<O|ZDIPLEN |i(14.953956)>| =     0.02041383
 #165 1 |<O|ZDIPLEN |i(14.971898)>| =     0.00501561
 #167 1 |<O|ZDIPLEN |i(15.003746)>| =     0.03441311
 #169 1 |<O|ZDIPLEN |i(15.014849)>| =     0.01062939
 #171 1 |<O|ZDIPLEN |i(15.031295)>| =     0.00941471
 #173 1 |<O|ZDIPLEN |i(15.073024)>| =     0.00380571
 #175 1 |<O|ZDIPLEN |i(15.100024)>| =     0.00533545
 #177 1 |<O|ZDIPLEN |i(15.106679)>| =     0.00457515
 #179 1 |<O|ZDIPLEN |i(15.117427)>| =     0.00347361
 #181 1 |<O|ZDIPLEN |i(15.148931)>| =     0.00182091
 #183 1 |<O|ZDIPLEN |i(15.159600)>| =     0.00765151
 #185 1 |<O|ZDIPLEN |i(15.173401)>| =     0.00401751
 #187 1 |<O|ZDIPLEN |i(15.185493)>| =     0.00990600
 #189 1 |<O|ZDIPLEN |i(15.277147)>| =     0.01030506
 #191 1 |<O|ZDIPLEN |i(15.318676)>| =     0.01746371
 #193 1 |<O|ZDIPLEN |i(15.423214)>| =     0.00999684
 #195 1 |<O|ZDIPLEN |i(15.489576)>| =     0.02382758
 #197 1 |<O|ZDIPLEN |i(15.531748)>| =     0.04420612
 #199 1 |<O|ZDIPLEN |i(15.539700)>| =     0.05151042
 #201 1 |<O|ZDIPLEN |i(15.649622)>| =     0.00040738

 THE_END   
