

     ************************************************************************
     *************** Dalton - An Electronic Structure Program ***************
     ************************************************************************

    This is output from DALTON release Dalton2017.alpha (2016)
         ( Web site: http://daltonprogram.org )

   ----------------------------------------------------------------------------

    NOTE:
     
    Dalton is an experimental code for the evaluation of molecular
    properties using (MC)SCF, DFT, CI, and CC wave functions.
    The authors accept no responsibility for the performance of
    the code or for the correctness of the results.
     
    The code (in whole or part) is provided under a licence and
    is not to be reproduced for further distribution without
    the written permission of the authors or their representatives.
     
    See the home page "http://daltonprogram.org" for further information.
     
    If results obtained with this code are published,
    the appropriate citations would be both of:
     
       K. Aidas, C. Angeli, K. L. Bak, V. Bakken, R. Bast,
       L. Boman, O. Christiansen, R. Cimiraglia, S. Coriani,
       P. Dahle, E. K. Dalskov, U. Ekstroem,
       T. Enevoldsen, J. J. Eriksen, P. Ettenhuber, B. Fernandez,
       L. Ferrighi, H. Fliegl, L. Frediani, K. Hald, A. Halkier,
       C. Haettig, H. Heiberg, T. Helgaker, A. C. Hennum,
       H. Hettema, E. Hjertenaes, S. Hoest, I.-M. Hoeyvik,
       M. F. Iozzi, B. Jansik, H. J. Aa. Jensen, D. Jonsson,
       P. Joergensen, J. Kauczor, S. Kirpekar,
       T. Kjaergaard, W. Klopper, S. Knecht, R. Kobayashi, H. Koch,
       J. Kongsted, A. Krapp, K. Kristensen, A. Ligabue,
       O. B. Lutnaes, J. I. Melo, K. V. Mikkelsen, R. H. Myhre,
       C. Neiss, C. B. Nielsen, P. Norman, J. Olsen,
       J. M. H. Olsen, A. Osted, M. J. Packer, F. Pawlowski,
       T. B. Pedersen, P. F. Provasi, S. Reine, Z. Rinkevicius,
       T. A. Ruden, K. Ruud, V. Rybkin, P. Salek, C. C. M. Samson,
       A. Sanchez de Meras, T. Saue, S. P. A. Sauer,
       B. Schimmelpfennig, K. Sneskov, A. H. Steindal,
       K. O. Sylvester-Hvid, P. R. Taylor, A. M. Teale,
       E. I. Tellgren, D. P. Tew, A. J. Thorvaldsen, L. Thoegersen,
       O. Vahtras, M. A. Watson, D. J. D. Wilson, M. Ziolkowski
       and H. Agren,
       "The Dalton quantum chemistry program system",
       WIREs Comput. Mol. Sci. 2014, 4:269–284 (doi: 10.1002/wcms.1172)
     
    and
     
       Dalton, a Molecular Electronic Structure Program,
       Release Dalton2017.alpha (2016), see http://daltonprogram.org
   ----------------------------------------------------------------------------

    Authors in alphabetical order (major contribution(s) in parenthesis):

  Kestutis Aidas,           Vilnius University,           Lithuania   (QM/MM)
  Celestino Angeli,         University of Ferrara,        Italy       (NEVPT2)
  Keld L. Bak,              UNI-C,                        Denmark     (AOSOPPA, non-adiabatic coupling, magnetic properties)
  Vebjoern Bakken,          University of Oslo,           Norway      (DALTON; geometry optimizer, symmetry detection)
  Radovan Bast,             UiT The Arctic U. of Norway,  Norway      (DALTON installation and execution frameworks)
  Pablo Baudin,             University of Valencia,       Spain       (Cholesky excitation energies)
  Linus Boman,              NTNU,                         Norway      (Cholesky decomposition and subsystems)
  Ove Christiansen,         Aarhus University,            Denmark     (CC module)
  Renzo Cimiraglia,         University of Ferrara,        Italy       (NEVPT2)
  Sonia Coriani,            University of Trieste,        Italy       (CC module, MCD in RESPONS)
  Janusz Cukras,            University of Trieste,        Italy       (MChD in RESPONS)
  Paal Dahle,               University of Oslo,           Norway      (Parallelization)
  Erik K. Dalskov,          UNI-C,                        Denmark     (SOPPA)
  Thomas Enevoldsen,        Univ. of Southern Denmark,    Denmark     (SOPPA)
  Janus J. Eriksen,         Aarhus University,            Denmark     (Polarizable embedding model, TDA)
  Rasmus Faber,             University of Copenhagen,     Denmark     (Vib.avg. NMR with SOPPA, parallel AO-SOPPA)
  Berta Fernandez,          U. of Santiago de Compostela, Spain       (doublet spin, ESR in RESPONS)
  Lara Ferrighi,            Aarhus University,            Denmark     (PCM Cubic response)
  Heike Fliegl,             University of Oslo,           Norway      (CCSD(R12))
  Luca Frediani,            UiT The Arctic U. of Norway,  Norway      (PCM)
  Bin Gao,                  UiT The Arctic U. of Norway,  Norway      (Gen1Int library)
  Christof Haettig,         Ruhr-University Bochum,       Germany     (CC module)
  Kasper Hald,              Aarhus University,            Denmark     (CC module)
  Asger Halkier,            Aarhus University,            Denmark     (CC module)
  Frederik Beyer Hansen,    University of Copenhagen,     Denmark     (Parallel AO-SOPPA)
  Erik D. Hedegaard,        Univ. of Southern Denmark,    Denmark     (Polarizable embedding model, QM/MM)
  Hanne Heiberg,            University of Oslo,           Norway      (geometry analysis, selected one-electron integrals)
  Trygve Helgaker,          University of Oslo,           Norway      (DALTON; ABACUS, ERI, DFT modules, London, and much more)
  Alf Christian Hennum,     University of Oslo,           Norway      (Parity violation)
  Hinne Hettema,            University of Auckland,       New Zealand (quadratic response in RESPONS; SIRIUS supersymmetry)
  Eirik Hjertenaes,         NTNU,                         Norway      (Cholesky decomposition)
  Pi A. B. Haase,           University of Copenhagen,     Denmark     (Triplet AO-SOPPA)
  Maria Francesca Iozzi,    University of Oslo,           Norway      (RPA)
  Brano Jansik              Technical Univ. of Ostrava    Czech Rep.  (DFT cubic response)
  Hans Joergen Aa. Jensen,  Univ. of Southern Denmark,    Denmark     (DALTON; SIRIUS, RESPONS, ABACUS modules, London, and much more)
  Dan Jonsson,              UiT The Arctic U. of Norway,  Norway      (cubic response in RESPONS module)
  Poul Joergensen,          Aarhus University,            Denmark     (RESPONS, ABACUS, and CC modules)
  Maciej Kaminski,          University of Warsaw,         Poland      (CPPh in RESPONS)
  Joanna Kauczor,           Linkoeping University,        Sweden      (Complex polarization propagator (CPP) module)
  Sheela Kirpekar,          Univ. of Southern Denmark,    Denmark     (Mass-velocity & Darwin integrals)
  Wim Klopper,              KIT Karlsruhe,                Germany     (R12 code in CC, SIRIUS, and ABACUS modules)
  Stefan Knecht,            ETH Zurich,                   Switzerland (Parallel CI and MCSCF)
  Rika Kobayashi,           Australian National Univ.,    Australia   (DIIS in CC, London in MCSCF)
  Henrik Koch,              NTNU,                         Norway      (CC module, Cholesky decomposition)
  Jacob Kongsted,           Univ. of Southern Denmark,    Denmark     (Polarizable embedding model, QM/MM)
  Andrea Ligabue,           University of Modena,         Italy       (CTOCD, AOSOPPA)
  Nanna H. List             Univ. of Southern Denmark,    Denmark     (Polarizable embedding model)
  Ola B. Lutnaes,           University of Oslo,           Norway      (DFT Hessian)
  Juan I. Melo,             University of Buenos Aires,   Argentina   (LRESC, Relativistic Effects on NMR Shieldings)
  Kurt V. Mikkelsen,        University of Copenhagen,     Denmark     (MC-SCRF and QM/MM)
  Rolf H. Myhre,            NTNU,                         Norway      (Cholesky, subsystems and ECC2)
  Christian Neiss,          Univ. Erlangen-Nuernberg,     Germany     (CCSD(R12))
  Christian B. Nielsen,     University of Copenhagen,     Denmark     (QM/MM)
  Patrick Norman,           Linkoeping University,        Sweden      (Cubic response and complex frequency response in RESPONS)
  Jeppe Olsen,              Aarhus University,            Denmark     (SIRIUS CI/density modules)
  Jogvan Magnus H. Olsen,   Univ. of Southern Denmark,    Denmark     (Polarizable embedding model, QM/MM)
  Anders Osted,             Copenhagen University,        Denmark     (QM/MM)
  Martin J. Packer,         University of Sheffield,      UK          (SOPPA)
  Filip Pawlowski,          Kazimierz Wielki University,  Poland      (CC3)
  Morten N. Pedersen,       Univ. of Southern Denmark,    Denmark     (Polarizable embedding model)
  Thomas B. Pedersen,       University of Oslo,           Norway      (Cholesky decomposition)
  Patricio F. Provasi,      University of Northeastern,   Argentina   (Analysis of coupling constants in localized orbitals)
  Zilvinas Rinkevicius,     KTH Stockholm,                Sweden      (open-shell DFT, ESR)
  Elias Rudberg,            KTH Stockholm,                Sweden      (DFT grid and basis info)
  Torgeir A. Ruden,         University of Oslo,           Norway      (Numerical derivatives in ABACUS)
  Kenneth Ruud,             UiT The Arctic U. of Norway,  Norway      (DALTON; ABACUS magnetic properties and much more)
  Pawel Salek,              KTH Stockholm,                Sweden      (DALTON; DFT code)
  Claire C. M. Samson       University of Karlsruhe       Germany     (Boys localization, r12 integrals in ERI)
  Alfredo Sanchez de Meras, University of Valencia,       Spain       (CC module, Cholesky decomposition)
  Trond Saue,               Paul Sabatier University,     France      (direct Fock matrix construction)
  Stephan P. A. Sauer,      University of Copenhagen,     Denmark     (SOPPA(CCSD), SOPPA prop., AOSOPPA, vibrational g-factors)
  Bernd Schimmelpfennig,    Forschungszentrum Karlsruhe,  Germany     (AMFI module)
  Kristian Sneskov,         Aarhus University,            Denmark     (Polarizable embedding model, QM/MM)
  Arnfinn H. Steindal,      UiT The Arctic U. of Norway,  Norway      (parallel QM/MM, Polarizable embedding model)
  Casper Steinmann,         Univ. of Southern Denmark,    Denmark     (QFIT, Polarizable embedding model)
  K. O. Sylvester-Hvid,     University of Copenhagen,     Denmark     (MC-SCRF)
  Peter R. Taylor,          VLSCI/Univ. of Melbourne,     Australia   (Symmetry handling ABACUS, integral transformation)
  Andrew M. Teale,          University of Nottingham,     England     (DFT-AC, DFT-D)
  David P. Tew,             University of Bristol,        England     (CCSD(R12))
  Olav Vahtras,             KTH Stockholm,                Sweden      (triplet response, spin-orbit, ESR, TDDFT, open-shell DFT)
  David J. Wilson,          La Trobe University,          Australia   (DFT Hessian and DFT magnetizabilities)
  Hans Agren,               KTH Stockholm,                Sweden      (SIRIUS module, RESPONS, MC-SCRF solvation model)
 --------------------------------------------------------------------------------

     Date and time (Linux)  : Wed Dec 19 13:50:32 2018
     Host name              : n-62-23-9                               

 * Work memory size             :  1280000000 =  9.537 gigabytes.

 * Directories for basis set searches:
   1) /zhome/37/3/129401/NH3NH4/CCSD
   2) /zhome/9a/4/124800/source/dalton/build-mlcc/basis


Compilation information
-----------------------

 Who compiled             | rfaber
 Host                     | hpclogin1
 System                   | Linux-2.6.32-696.1.1.el6.x86_64
 CMake generator          | Unix Makefiles
 Processor                | x86_64
 64-bit integers          | ON
 MPI                      | OFF
 Fortran compiler         | /opt/intel/2016update2/compilers_and_libraries_201
                          | 6.2.181/linux/bin/intel64/ifort
 Fortran compiler version | ifort (IFORT) 16.0.2 20160204
 C compiler               | /opt/intel/2016update2/compilers_and_libraries_201
                          | 6.2.181/linux/bin/intel64/icc
 C compiler version       | icc (ICC) 16.0.2 20160204
 C++ compiler             | /opt/intel/2016update2/compilers_and_libraries_201
                          | 6.2.181/linux/bin/intel64/icpc
 C++ compiler version     | icpc (ICC) 16.0.2 20160204
 Static linking           | OFF
 Last Git revision        | bb4d1599ca5680a9f3980451fc8bbefdba436d59
 Git branch               | mlcc
 Configuration time       | 2017-06-13 16:11:03.928841


   Content of the .dal input file
 ----------------------------------

**DALTON
.RUN WAVE FUNCTIONS
*QMMM
.QMMM
**INTEGRALS
.DIPLEN
**WAVE FUNCTIONS
.CC
*PRINT
!To check the origin of excit
.PRINTL
   0 11
*SCF INP
.THRESH
1.0D-7
*CC INP
.CCSD
.THRLEQ
 1.0D-9
.THRENR
 1.0D-10
.FROIMP
4
0
.PRINT
 1
.MAX IT
 1200
.MAXRED
 1200
.MXLRV
1199
*CCSLV
.CCMM
.MXSLIT
200
.MXINIT
4 5
*CCEXCI
.NCCEXC
 15
.CVSEPARA
1
1
*CCLRSD
.DIPOLE
**END OF DALTON INPUT


   Content of the .mol file
 ----------------------------

ATOMBASIS


Atomtypes=4 Charge=1 Nosymm Angstrom
   7.00000    1    Basis=6-31G**
N          0.000000        0.000000        0.000000
   1.00000    4    Basis=6-31G**
H         -0.986798        0.158192        0.209252
H          0.099905        0.008150       -1.036203
H          0.306136       -0.830246        0.456604
H          0.602571        0.778264        0.308939
   8.00000    4    Basis=6-31G**
O         -2.851387        0.280971       -0.395421
O          1.557405        2.243639        0.898477
O          0.027701        0.430319       -2.700204
O          2.086789       -1.795203        1.452611
   1.00000    8    Basis=6-31G**
H         -3.332311       -0.400096        0.142368
H         -3.514301        1.053183       -0.434516
H          1.432841        3.232280        1.052153
H          2.267997        2.159980        0.184844
H          0.867235        0.355314       -3.217866
H         -0.496919       -0.303537       -3.061090
H          1.766803       -2.435519        2.169424
H          2.362806       -0.979235        1.975913


       *******************************************************************
       *********** Output from DALTON general input processing ***********
       *******************************************************************

 --------------------------------------------------------------------------------
   Overall default print level:    0
   Print level for DALTON.STAT:    1

    HERMIT 1- and 2-electron integral sections will be executed
    "Old" integral transformation used (limited to max 255 basis functions)
    Wave function sections will be executed (SIRIUS module)
 --------------------------------------------------------------------------------


 Changes of defaults for *QMMM  :
 --------------------------------

 +------------------+
 |  WORD: | CHANGE: |
 +------------------+
 |   QMMM |       T |
 +------------------+
 


   ****************************************************************************
   *************** Output of molecule and basis set information ***************
   ****************************************************************************


    The two title cards from your ".mol" input:
    ------------------------------------------------------------------------
 1:                                                                         
 2:                                                                         
    ------------------------------------------------------------------------

  Coordinates are entered in Angstrom and converted to atomic units.
          - Conversion factor : 1 bohr = 0.52917721 A

  Atomic type no.    1
  --------------------
  Nuclear charge:   7.00000
  Number of symmetry independent centers:    1
  Number of basis sets to read;    2
  The basis set is "6-31G**" from the basis set library.
  Basis set file used for this atomic type with Z =   7 :
     "/zhome/9a/4/124800/source/dalton/build-mlcc/basis/6-31G**"

  Info about the basis set file: your basis has no documentation.
  Basis set: 6-31G**                                                                         

  Atomic type no.    2
  --------------------
  Nuclear charge:   1.00000
  Number of symmetry independent centers:    4
  Number of basis sets to read;    2
  The basis set is "6-31G**" from the basis set library.
  Basis set file used for this atomic type with Z =   1 :
     "/zhome/9a/4/124800/source/dalton/build-mlcc/basis/6-31G**"

  Info about the basis set file: your basis has no documentation.
  Basis set: 6-31G**                                                                         

  Atomic type no.    3
  --------------------
  Nuclear charge:   8.00000
  Number of symmetry independent centers:    4
  Number of basis sets to read;    2
  The basis set is "6-31G**" from the basis set library.
  Basis set file used for this atomic type with Z =   8 :
     "/zhome/9a/4/124800/source/dalton/build-mlcc/basis/6-31G**"

  Info about the basis set file: your basis has no documentation.
  Basis set: 6-31G**                                                                         

  Atomic type no.    4
  --------------------
  Nuclear charge:   1.00000
  Number of symmetry independent centers:    8
  Number of basis sets to read;    2
  The basis set is "6-31G**" from the basis set library.
  Basis set file used for this atomic type with Z =   1 :
     "/zhome/9a/4/124800/source/dalton/build-mlcc/basis/6-31G**"

  Info about the basis set file: your basis has no documentation.
  Basis set: 6-31G**                                                                         


                         SYMGRP: Point group information
                         -------------------------------

@    Point group: C1 


                                 Isotopic Masses
                                 ---------------

                           N          14.003074
                           H           1.007825
                           H           1.007825
                           H           1.007825
                           H           1.007825
                           O          15.994915
                           O          15.994915
                           O          15.994915
                           O          15.994915
                           H           1.007825
                           H           1.007825
                           H           1.007825
                           H           1.007825
                           H           1.007825
                           H           1.007825
                           H           1.007825
                           H           1.007825

                       Total mass:    90.076634 amu
                       Natural abundance:  98.500 %

 Center-of-mass coordinates (a.u.):    0.304421    0.448288   -0.276269


  Atoms and basis sets
  --------------------

  Number of atom types :    4
  Total number of atoms:   17

  label    atoms   charge   prim   cont     basis
  ----------------------------------------------------------------------
  N           1    7.0000    27    14      [10s4p1d|3s2p1d]                                   
  H           4    1.0000     7     5      [4s1p|2s1p]                                        
  O           4    8.0000    27    14      [10s4p1d|3s2p1d]                                   
  H           8    1.0000     7     5      [4s1p|2s1p]                                        
  ----------------------------------------------------------------------
  total:     17   51.0000   219   130
  ----------------------------------------------------------------------
  Spherical harmonic basis used.

  Threshold for neglecting AO integrals:  1.00D-12


  Cartesian Coordinates (a.u.)
  ----------------------------

  Total number of coordinates:   51
  N       :     1  x   0.0000000000    2  y   0.0000000000    3  z   0.0000000000
  H       :     4  x  -1.8647779607    5  y   0.2989395552    6  z   0.3954289711
  H       :     7  x   0.1887930885    8  y   0.0154012679    9  z  -1.9581398799
  H       :    10  x   0.5785131970   11  y  -1.5689375564   12  z   0.8628565076
  H       :    13  x   1.1386941609   14  y   1.4707058129   15  z   0.5838100993
  O       :    16  x  -5.3883405064   17  y   0.5309582391   18  z  -0.7472373941
  O       :    19  x   2.9430689157   20  y   4.2398632334   21  z   1.6978754596
  O       :    22  x   0.0523473034   23  y   0.8131850564   24  z  -5.1026460416
  O       :    25  x   3.9434596906   26  y  -3.3924420088   27  z   2.7450369562
  H       :    28  x  -6.2971551533   29  y  -0.7560718637   30  z   0.2690365290
  H       :    31  x  -6.6410664108   32  y   1.9902274295   33  z  -0.8211162369
  H       :    34  x   2.7076770707   35  y   6.1081239593   36  z   1.9882810116
  H       :    37  x   4.2858931823   38  y   4.0817706355   39  z   0.3493045358
  H       :    40  x   1.6388366360   41  y   0.6714461484   42  z  -6.0808854469
  H       :    43  x  -0.9390408163   44  y  -0.5736017988   45  z  -5.7846217440
  H       :    46  x   3.3387737868   47  y  -4.6024638822   48  z   4.0996172090
  H       :    49  x   4.4650562265   50  y  -1.8504859620   51  z   3.7339344168

  Max    interatomic separation is    6.8441 Angstrom (   12.9335 Bohr)
  between atoms   16 and   11, "H     " and "H     ".

  Min HX interatomic separation is    0.9716 Angstrom (    1.8361 Bohr)

  Min YX interatomic separation is    2.7344 Angstrom (    5.1673 Bohr)


  Bond distances (Angstrom):
  --------------------------

                  atom 1     atom 2       distance
                  ------     ------       --------
  bond distance:  H          N            1.021069
  bond distance:  H          N            1.041040
  bond distance:  H          N            0.995748
  bond distance:  H          N            1.031615
  bond distance:  H          O            0.992148
  bond distance:  H          O            1.018477
  bond distance:  H          O            1.008238
  bond distance:  H          O            1.010550
  bond distance:  H          O            0.989150
  bond distance:  H          O            0.971602
  bond distance:  H          O            1.013023
  bond distance:  H          O            1.007886


  Bond angles (degrees):
  ----------------------

                  atom 1     atom 2     atom 3         angle
                  ------     ------     ------         -----
  bond angle:     H          N          H            107.188
  bond angle:     H          N          H            109.410
  bond angle:     H          N          H            112.721
  bond angle:     H          N          H            115.686
  bond angle:     H          N          H            103.658
  bond angle:     H          N          H            108.187
  bond angle:     H          O          H            103.048
  bond angle:     H          O          H            106.003
  bond angle:     H          O          H            101.924
  bond angle:     H          O          H            103.346




 Principal moments of inertia (u*A**2) and principal axes
 --------------------------------------------------------

   IA     278.928570          0.813318   -0.168257    0.556959
   IB     471.571523          0.378648    0.879879   -0.287122
   IC     508.953087         -0.441746    0.444413    0.779332


 Rotational constants
 --------------------

               A                   B                   C

           1811.8582           1071.6911            992.9776 MHz
            0.060437            0.035748            0.033122 cm-1


@  Nuclear repulsion energy :  197.867445360576 Hartree


                     .---------------------------------------.
                     | Starting in Integral Section (HERMIT) |
                     `---------------------------------------'



 ***************************************************************************************
 ****************** Output from **INTEGRALS input processing (HERMIT) ******************
 ***************************************************************************************



    *************************************************************************
    ****************** Output from HERMIT input processing ******************
    *************************************************************************


 Default print level:        1

 * Nuclear model: Point charge

 Calculation of one- and two-electron Hamiltonian integrals.

 The following one-electron property integrals are calculated as requested:
          - overlap integrals
          - dipole length integrals

 Center of mass  (bohr):      0.304421072511      0.448288259817     -0.276268787024
 Operator center (bohr):      0.000000000000      0.000000000000      0.000000000000
 Gauge origin    (bohr):      0.000000000000      0.000000000000      0.000000000000
 Dipole origin   (bohr):      0.000000000000      0.000000000000      0.000000000000
 
  *********************************** 
  QMMM electrostatic potential: 
  Multipole order                                    0
  Isotropic polarization  
  *********************************** 
 
  ---------------- 
  QMMM information 
  ---------------- 
 
  MM coordinates in au 
  -------------------- 
     1      0.213346      6.818655     -2.976139
     2      1.774785      6.546741     -2.153137
     3      0.302454      8.626057     -3.502551
     4      9.467201      8.707926     -8.190836
     5      7.691482      8.696196     -7.933252
     6     10.088212      6.932317     -8.567856
     7      5.051285      9.308041     -4.626539
     8      6.153661     10.282446     -3.630905
     9      5.268611      7.446417     -4.348914
    10      8.059315    -11.198475     -1.081267
    11      8.611892    -11.652167      0.662693
    12      9.789858    -11.147413     -1.853103
    13     -8.058030     -7.946313     -3.382604
    14     -6.293497     -8.418036     -3.210289
    15     -8.537528     -7.429866     -5.129805
    16    -11.199328     11.069307     -4.686247
    17    -12.108870     10.361718     -6.082872
    18    -10.564293     12.808033     -4.964481
    19     -3.246884     -8.515869      4.018709
    20     -2.487138     -8.825047      2.368052
    21     -4.188740    -10.018752      4.707266
    22      4.865680      0.734867     -6.835689
    23      5.533795     -0.904691     -6.298314
    24      5.445998      0.853132     -8.701040
    25      5.771171    -10.914656      5.797995
    26      7.047129     -9.719712      5.149398
    27      6.349206    -12.693309      5.806909
    28     -2.993464      5.232997     -8.221989
    29     -3.599754      3.906878     -9.395764
    30     -1.731683      4.475185     -6.983218
    31     -9.613965      3.657310     -1.094032
    32    -10.641120      3.191386      0.403014
    33     -9.450286      5.476031     -1.073461
    34      9.372637     -6.316317     -5.085202
    35     10.547805     -5.348195     -5.968666
    36      8.757650     -5.517564     -3.477293
    37     11.135300      1.093233     -4.748147
    38     12.158793     -0.238977     -5.361595
    39     12.088117      2.349846     -3.676897
    40      9.746555     -3.519010     -0.295461
    41      8.515527     -3.668996      1.088161
    42      9.811178     -1.695716     -0.712886
    43      8.331810      7.013359      0.955994
    44      8.079685      6.867159      2.790576
    45     10.263889      7.128831      0.855914
    46      5.918847     -7.351097     -8.864522
    47      4.928791     -8.892488     -8.405987
    48      7.289817     -7.426370     -7.430624
    49     -3.734766      6.968970      0.013638
    50     -2.094752      6.742654     -0.756886
    51     -4.883859      8.086057     -0.765137
    52     11.514309      2.402662      3.265367
    53      9.685158      2.002554      3.646174
    54     12.290017      3.438232      4.597551
    55     -1.272475     11.739829     -4.802319
    56      0.057548     11.839703     -6.117180
    57     -2.712322     10.691390     -5.592522
    58     -8.868485      1.302460     10.357103
    59     -7.197041      0.833571     10.804341
    60     -9.487999     -0.090686      9.187178
    61     -2.460310      0.334531      5.093940
    62     -3.285799      2.123924      4.840919
    63     -3.621201     -0.790026      5.869178
    64      1.935087      1.246314      7.446806
    65      1.839509      0.169102      8.978091
    66      0.367964      0.924089      6.279834
    67    -10.172522     -6.685416      0.760866
    68     -9.499859     -7.363620     -0.829518
    69    -11.548360     -5.463306      0.426086
    70     -5.389847      9.525926     -7.260203
    71     -6.901097      9.155980     -6.147563
    72     -4.812076      7.700162     -7.733799
    73    -10.448865     -4.614757     11.356530
    74     -9.009793     -5.555895     10.936707
    75    -11.942595     -5.586565     10.552911
    76     -5.863975     -7.314801     10.831111
    77     -6.646843     -8.125533     12.354593
    78     -4.232074     -6.539452     11.155849
    79      2.098567      9.941328      3.038426
    80      3.504936     11.208962      3.069202
    81      0.859308     10.856749      1.974960
    82     -4.892567     -1.800695     -5.387664
    83     -4.217780     -3.407503     -4.946339
    84     -5.382086     -0.707007     -3.884430
    85      4.607946      5.203433      9.129428
    86      3.352214      4.089486      8.175896
    87      3.472410      6.313006     10.163550
    88      2.887065     -4.162536     -5.827872
    89      3.814314     -5.004758     -7.183505
    90      3.910046     -4.629672     -4.241562
    91      0.858021     -1.662647    -11.383884
    92      0.868970     -3.577535    -11.862739
    93      2.043272     -1.561169    -10.003086
    94      0.797610      8.357221    -11.547570
    95     -0.019782      9.072301    -13.048107
    96     -0.504478      7.429783    -10.568301
    97    -10.918688     10.088089      7.192228
    98    -11.383427     10.702186      8.953590
    99    -10.270155      8.325642      7.110484
   100    -10.165147     -1.772378      5.923203
   101     -8.886928     -2.766066      5.031651
   102    -10.417342     -0.372439      4.725423
   103     -8.328254     -9.954463     -9.514070
   104     -9.813399    -10.413585    -10.422928
   105     -7.104682    -11.424411     -9.307296
   106      8.043725     -7.722780      9.844279
   107      7.184529     -7.426418     11.497084
   108      6.978349     -8.782326      8.824518
   109     11.101117    -11.640934     11.595308
   110     10.118486    -12.908916     12.632685
   111      9.931852    -10.198725     11.019996
   112     -6.621430     -3.730006      2.456139
   113     -5.462501     -5.002260      3.091977
   114     -7.972112     -4.943541      2.041129
   115      7.140283      1.276219    -11.278577
   116      8.518498      2.377130    -10.761198
   117      6.066042      2.378398    -12.511359
   118      7.410372     -2.272658      7.739029
   119      9.311465     -2.113526      7.912914
   120      7.003699     -2.887462      9.466001
   121     -1.467900      9.207222      7.474322
   122     -0.540199      9.415186      5.900713
   123     -2.929514     10.319619      7.276566
   124      6.698248      1.436693      4.379435
   125      6.847436      0.446002      5.928744
   126      5.208242      2.549225      4.332335
   127     -9.210786      5.341579      6.979545
   128     -7.514791      5.018614      6.183044
   129     -9.107671      4.049313      8.362499
   130     10.667015      3.982925     -9.237166
   131     10.788996      2.877365     -7.716959
   132     12.243917      3.734855    -10.124317
   133      6.245696      4.325279     -2.936343
   134      6.914757      2.864292     -3.922752
   135      7.747505      4.760887     -1.738694
   136     -4.553626      4.931698      4.571412
   137     -4.189916      5.579490      2.720491
   138     -3.725697      6.145941      5.700663
   139     -4.133799      0.693949    -10.507044
   140     -2.349944      0.117256    -10.779368
   141     -4.630738     -0.379737     -9.097739
   142     -0.612232     -6.871345    -11.504639
   143      0.105127     -7.828684    -12.936451
   144     -0.490669     -7.974542    -10.023644
   145     -1.864315     -6.138664     -5.148428
   146     -1.511208     -7.960961     -4.961270
   147     -0.326838     -5.199546     -5.043760
   148    -10.389327     -3.329728     -6.849989
   149    -10.070965     -3.376600     -8.726232
   150     -8.690784     -3.269060     -6.073893
   151      2.736866    -11.508553     -8.288069
   152      2.171564    -12.704971     -9.583311
   153      3.687099    -12.580013     -7.084016
   154      7.436577      7.956061      6.298172
   155      6.447058      6.615723      7.209317
   156      8.940449      8.699127      7.111784
   157      4.773494     -7.006358     -0.772203
   158      4.865357     -5.708541      0.517942
   159      6.276449     -8.136896     -0.878619
   160      1.362175     -7.007086      6.087282
   161      2.330357     -8.634597      6.063647
   162     -0.293000     -7.464237      5.298331
   163      8.700826     -6.585792      4.277794
   164      8.428093     -5.622825      5.860897
   165     10.488095     -7.123309      4.520108
   166     -8.975114      8.914280     -0.567218
   167     -9.353007      9.604924     -2.170528
   168     -9.735064      9.879819      0.789739
   169     -6.253542    -11.189454      6.991331
   170     -7.840525    -12.172057      6.765873
   171     -6.406812     -9.956825      8.363289
   172    -11.383434    -11.337701      2.711770
   173    -10.807712     -9.632573      2.093329
   174    -11.115258    -11.713641      4.590623
   175      0.402306     -9.875191      0.089887
   176     -0.317710    -10.377046     -1.572426
   177      1.905025     -8.806802     -0.099233
 
  MM charges 
  ---------- 
     1     -0.674440
     2      0.337220
     3      0.337220
     4     -0.674440
     5      0.337220
     6      0.337220
     7     -0.674440
     8      0.337220
     9      0.337220
    10     -0.674440
    11      0.337220
    12      0.337220
    13     -0.674440
    14      0.337220
    15      0.337220
    16     -0.674440
    17      0.337220
    18      0.337220
    19     -0.674440
    20      0.337220
    21      0.337220
    22     -0.674440
    23      0.337220
    24      0.337220
    25     -0.674440
    26      0.337220
    27      0.337220
    28     -0.674440
    29      0.337220
    30      0.337220
    31     -0.674440
    32      0.337220
    33      0.337220
    34     -0.674440
    35      0.337220
    36      0.337220
    37     -0.674440
    38      0.337220
    39      0.337220
    40     -0.674440
    41      0.337220
    42      0.337220
    43     -0.674440
    44      0.337220
    45      0.337220
    46     -0.674440
    47      0.337220
    48      0.337220
    49     -0.674440
    50      0.337220
    51      0.337220
    52     -0.674440
    53      0.337220
    54      0.337220
    55     -0.674440
    56      0.337220
    57      0.337220
    58     -0.674440
    59      0.337220
    60      0.337220
    61     -0.674440
    62      0.337220
    63      0.337220
    64     -0.674440
    65      0.337220
    66      0.337220
    67     -0.674440
    68      0.337220
    69      0.337220
    70     -0.674440
    71      0.337220
    72      0.337220
    73     -0.674440
    74      0.337220
    75      0.337220
    76     -0.674440
    77      0.337220
    78      0.337220
    79     -0.674440
    80      0.337220
    81      0.337220
    82     -0.674440
    83      0.337220
    84      0.337220
    85     -0.674440
    86      0.337220
    87      0.337220
    88     -0.674440
    89      0.337220
    90      0.337220
    91     -0.674440
    92      0.337220
    93      0.337220
    94     -0.674440
    95      0.337220
    96      0.337220
    97     -0.674440
    98      0.337220
    99      0.337220
   100     -0.674440
   101      0.337220
   102      0.337220
   103     -0.674440
   104      0.337220
   105      0.337220
   106     -0.674440
   107      0.337220
   108      0.337220
   109     -0.674440
   110      0.337220
   111      0.337220
   112     -0.674440
   113      0.337220
   114      0.337220
   115     -0.674440
   116      0.337220
   117      0.337220
   118     -0.674440
   119      0.337220
   120      0.337220
   121     -0.674440
   122      0.337220
   123      0.337220
   124     -0.674440
   125      0.337220
   126      0.337220
   127     -0.674440
   128      0.337220
   129      0.337220
   130     -0.674440
   131      0.337220
   132      0.337220
   133     -0.674440
   134      0.337220
   135      0.337220
   136     -0.674440
   137      0.337220
   138      0.337220
   139     -0.674440
   140      0.337220
   141      0.337220
   142     -0.674440
   143      0.337220
   144      0.337220
   145     -0.674440
   146      0.337220
   147      0.337220
   148     -0.674440
   149      0.337220
   150      0.337220
   151     -0.674440
   152      0.337220
   153      0.337220
   154     -0.674440
   155      0.337220
   156      0.337220
   157     -0.674440
   158      0.337220
   159      0.337220
   160     -0.674440
   161      0.337220
   162      0.337220
   163     -0.674440
   164      0.337220
   165      0.337220
   166     -0.674440
   167      0.337220
   168      0.337220
   169     -0.674440
   170      0.337220
   171      0.337220
   172     -0.674440
   173      0.337220
   174      0.337220
   175     -0.674440
   176      0.337220
   177      0.337220
 
  MM isotropic polarizabilities in au 
  ----------------------------------- 
     1      5.739350
     2      2.308390
     3      2.308390
     4      5.739350
     5      2.308390
     6      2.308390
     7      5.739350
     8      2.308390
     9      2.308390
    10      5.739350
    11      2.308390
    12      2.308390
    13      5.739350
    14      2.308390
    15      2.308390
    16      5.739350
    17      2.308390
    18      2.308390
    19      5.739350
    20      2.308390
    21      2.308390
    22      5.739350
    23      2.308390
    24      2.308390
    25      5.739350
    26      2.308390
    27      2.308390
    28      5.739350
    29      2.308390
    30      2.308390
    31      5.739350
    32      2.308390
    33      2.308390
    34      5.739350
    35      2.308390
    36      2.308390
    37      5.739350
    38      2.308390
    39      2.308390
    40      5.739350
    41      2.308390
    42      2.308390
    43      5.739350
    44      2.308390
    45      2.308390
    46      5.739350
    47      2.308390
    48      2.308390
    49      5.739350
    50      2.308390
    51      2.308390
    52      5.739350
    53      2.308390
    54      2.308390
    55      5.739350
    56      2.308390
    57      2.308390
    58      5.739350
    59      2.308390
    60      2.308390
    61      5.739350
    62      2.308390
    63      2.308390
    64      5.739350
    65      2.308390
    66      2.308390
    67      5.739350
    68      2.308390
    69      2.308390
    70      5.739350
    71      2.308390
    72      2.308390
    73      5.739350
    74      2.308390
    75      2.308390
    76      5.739350
    77      2.308390
    78      2.308390
    79      5.739350
    80      2.308390
    81      2.308390
    82      5.739350
    83      2.308390
    84      2.308390
    85      5.739350
    86      2.308390
    87      2.308390
    88      5.739350
    89      2.308390
    90      2.308390
    91      5.739350
    92      2.308390
    93      2.308390
    94      5.739350
    95      2.308390
    96      2.308390
    97      5.739350
    98      2.308390
    99      2.308390
   100      5.739350
   101      2.308390
   102      2.308390
   103      5.739350
   104      2.308390
   105      2.308390
   106      5.739350
   107      2.308390
   108      2.308390
   109      5.739350
   110      2.308390
   111      2.308390
   112      5.739350
   113      2.308390
   114      2.308390
   115      5.739350
   116      2.308390
   117      2.308390
   118      5.739350
   119      2.308390
   120      2.308390
   121      5.739350
   122      2.308390
   123      2.308390
   124      5.739350
   125      2.308390
   126      2.308390
   127      5.739350
   128      2.308390
   129      2.308390
   130      5.739350
   131      2.308390
   132      2.308390
   133      5.739350
   134      2.308390
   135      2.308390
   136      5.739350
   137      2.308390
   138      2.308390
   139      5.739350
   140      2.308390
   141      2.308390
   142      5.739350
   143      2.308390
   144      2.308390
   145      5.739350
   146      2.308390
   147      2.308390
   148      5.739350
   149      2.308390
   150      2.308390
   151      5.739350
   152      2.308390
   153      2.308390
   154      5.739350
   155      2.308390
   156      2.308390
   157      5.739350
   158      2.308390
   159      2.308390
   160      5.739350
   161      2.308390
   162      2.308390
   163      5.739350
   164      2.308390
   165      2.308390
   166      5.739350
   167      2.308390
   168      2.308390
   169      5.739350
   170      2.308390
   171      2.308390
   172      5.739350
   173      2.308390
   174      2.308390
   175      5.739350
   176      2.308390
   177      2.308390


     ************************************************************************
     ************************** Output from HERINT **************************
     ************************************************************************



                      Nuclear contribution to dipole moments
                      --------------------------------------

                 au               Debye          C m (/(10**-30)

      x     15.00448023        38.13758224       127.21328111
      y     22.81756991        57.99647406       193.45541394
      z    -13.61826219       -34.61416763      -115.46043507


  Time used in POPOVLP    is       0.10 seconds
  Time used in QUADRUP    is       0.21 seconds
  Time used in KINENE     is       0.12 seconds

 Threshold for neglecting two-electron integrals:  1.00D-12
 HERMIT - Number of two-electron integrals written:    15687815 ( 43.3% )
 HERMIT - Megabytes written:                            179.637

  Time used in TWOINT     is       7.68 seconds
  Total CPU  time used in HERMIT:   8.34 seconds
  Total wall time used in HERMIT:   4.94 seconds


                        .----------------------------------.
                        | End of Integral Section (HERMIT) |
                        `----------------------------------'



                   .--------------------------------------------.
                   | Starting in Wave Function Section (SIRIUS) |
                   `--------------------------------------------'

NCCEXCI for singlet:   15
 CCSD_INPUT: core-val requested
 Requested number of core orbs per sym
                     1
 Indices of requested core orbs
                     1

 *** Output from Huckel module :

     Using EWMO model:          T
     Using EHT  model:          F
     Number of Huckel orbitals each symmetry:   37

 EWMO - Energy Weighted Maximum Overlap - is a Huckel type method,
        which normally is better than Extended Huckel Theory.
 Reference: Linderberg and Ohrn, Propagators in Quantum Chemistry (Wiley, 1973)

 Huckel EWMO eigenvalues for symmetry :  1
          -20.684757     -20.684307     -20.684301     -20.684188     -15.676261
           -1.810613      -1.610149      -1.595077      -1.580492      -1.500336
           -0.832820      -0.801479      -0.775950      -0.773554      -0.760814
           -0.755893      -0.739108      -0.690751      -0.673016      -0.666928
           -0.648013      -0.613096      -0.582336      -0.581044      -0.555657
           -0.262605      -0.247434      -0.244364      -0.236639      -0.185256
           -0.184603      -0.183498      -0.176039      -0.173574      -0.144605
           -0.139775      -0.136468

 **********************************************************************
 *SIRIUS* a direct, restricted step, second order MCSCF program       *
 **********************************************************************

 
     Date and time (Linux)  : Wed Dec 19 13:50:38 2018
     Host name              : n-62-23-9                               

 Title lines from ".mol" input file:
                                                                             
                                                                             

 Print level on unit LUPRI =   2 is   0
 Print level on unit LUW4  =   2 is  11

@    (Integral direct) CC calculation.

@    This is a combination run starting with
@              a restricted, closed shell Hartree-Fock calculation


 Initial molecular orbitals are obtained according to
 ".MOSTART EWMO  " input option

@    QM part is embedded in an environment :

@         Model: QMMM

     Wave function specification
     ============================

     For the specification of the Coupled Cluster: see later.

@    Wave function type        --- CC ---
@    Number of closed shell electrons          50
@    Number of electrons in active shells       0
@    Total charge of the molecule               1

@    Spin multiplicity and 2 M_S                1         0
@    Total number of symmetries                 1 (point group: C1 )
@    Reference state symmetry                   1 (irrep name : A  )

     Orbital specifications
     ======================
@    Abelian symmetry species          All |    1
@                                          |  A  
                                       --- |  ---
@    Occupied SCF orbitals              25 |   25
@    Secondary orbitals                105 |  105
@    Total number of orbitals          130 |  130
@    Number of basis functions         130 |  130

     Optimization information
     ========================
@    Number of configurations                 1
@    Number of orbital rotations           2625
     ------------------------------------------
@    Total number of variables             2626

     Maximum number of Fock   iterations      0
     Maximum number of DIIS   iterations     60
     Maximum number of QC-SCF iterations     60
     Threshold for SCF convergence     1.00D-07


 Changes of defaults for CC:
 ---------------------------


 -Implicit frozen core calculation
 -Excitation energies calculated
 -One-photon absorption strengths will be calculated
 -Oscillator strengths calculated
  
* Read MO coefficients from SIRIUS.RST with label "NEWORB  " and header info: 19Dec18  REORTHO 


 ***********************************************
 ***** DIIS acceleration of SCF iterations *****
 ***********************************************

 C1-DIIS algorithm; max error vectors =    8
 -----------------------------------------------------------------------------

 *** DIIS iteration number    1
 RDSUPM called. NFMAT, ISYMDM(1:NFMAT)                     1
                     1

Calculating AOSUPINT
     (Precalculated two-electron integrals are transformed to P-supermatrix elements.
      Threshold for discarding integrals :  1.00D-12 )
  CPU  time used in FORMSUP    is   5.84 seconds
  WALL time used in FORMSUP    is   3.92 seconds

 ITDIIS, energy, error norm, change in energy, scr.thr., difden:
@ DIIS iter.   1    -360.097870521        3.76574D+00   -3.60D+02  -20    F

 (DIIS_RED) Control Parameters C2DIIS =         F NEVC =    1


 (DIIS_RED) B matrix:

               Column   1
       1      14.18079663
    ==== End of matrix output ====

 DIIS C vector; C2DIIS = F, LAMBDA = -1.42D+01
    1.000000
* Read MO coefficients from SIRIUS.RST with label "NEWORB  " and header info: 19Dec18  DIIS   1
      Virial theorem: -V/T =      2.006514
@      MULPOP N       0.24; H       0.13; H       0.16; H       0.13; H       0.16; O      -0.50; O      -0.49; O      -0.48; O      -0.54; H       0.28; 
@             H       0.27; H       0.26; H       0.28; H       0.27; H       0.28; H       0.28; H       0.28; 
   1  Level shift: doubly occupied orbital energies shifted by -2.00D-01

 DIIS Fock eigenvalues in symmetry 1
      -20.83826      -20.83634      -20.83177      -20.82131      -16.48432
       -1.73744       -1.63143       -1.62553       -1.61514       -1.60557
       -1.22240       -1.20698       -1.18955       -1.00116       -0.99576
       -0.99358       -0.97353       -0.88236       -0.87274       -0.86637
       -0.85918       -0.83569       -0.82975       -0.82580       -0.81902
        0.04056        0.10595        0.10848        0.12693        0.15374
        0.20139        0.21953        0.22334        0.23256        0.23917
        0.26641        0.26889        0.56606        0.58509        0.61279
        0.83056        0.86726        0.88230        0.88849        0.89663
        0.90837        0.92983        0.93976        0.95565        0.98202
        0.98940        1.01644        1.04995        1.05559        1.07212
        1.09996        1.13556        1.17430        1.18522        1.18910
        1.19992        1.22839        1.23992        1.26344        1.28640
        1.31806        1.41654        1.52684        1.55078        1.60043
        1.62770        1.65202        1.66995        1.68440        1.68954
        1.70150        1.70797        1.71804        1.74167        1.78773
        1.81349        1.84450        1.93499        2.11304        2.15317
        2.16624        2.23981        2.28929        2.33564        2.37828
        2.38093        2.39131        2.41122        2.41714        2.42960
        2.44111        2.46634        2.55553        2.57914        2.59810
        2.63711        2.73238        2.76602        2.77064        2.78568
        2.79939        2.80137        2.81467        2.82244        2.83438
        2.84519        2.88291        3.06990        3.12996        3.14580
        3.16272        3.18927        3.21736        3.33825        3.45116
        3.46886        3.49743        3.50882        3.52470        3.55282
        3.61804        3.73270        3.75843        3.77999        3.80766
 Time used in FCKEIG, thr_jaco:   2.30D-01  2.30D-02  1.84D-04
 CPU and wall times used in FCKEIG, THR_FCKEIG:   2.30D-01  2.30D-02  3.77D-02
 -----------------------------------------------------------------------------

 *** DIIS iteration number    2
 RDSUPM called. NFMAT, ISYMDM(1:NFMAT)                     1
                     1

 ITDIIS, energy, error norm, change in energy, scr.thr., difden:
@ DIIS iter.   2    -361.014926173        1.07350D+00   -9.17D-01  -20    F

 (DIIS_RED) Control Parameters C2DIIS =         F NEVC =    2


 (DIIS_RED) B matrix:

               Column   1     Column   2
       1      14.18079663
       2       0.98232177     1.15241069
    ==== End of matrix output ====

 DIIS C vector; C2DIIS = F, LAMBDA = -1.15D+00
    0.012723    0.987277
* Read MO coefficients from SIRIUS.RST with label "NEWORB  " and header info: 19Dec18  DIIS   2
      Virial theorem: -V/T =      2.003701
@      MULPOP N      -0.74; H       0.39; H       0.40; H       0.36; H       0.39; O      -0.67; O      -0.64; O      -0.61; O      -0.67; H       0.34; 
@             H       0.37; H       0.35; H       0.35; H       0.36; H       0.32; H       0.36; H       0.34; 
   2  Level shift: doubly occupied orbital energies shifted by -1.00D-01

 DIIS Fock eigenvalues in symmetry 1
      -20.78781      -20.78137      -20.76379      -20.75890      -15.62040
       -1.52195       -1.52047       -1.51611       -1.50014       -1.38380
       -0.88925       -0.88440       -0.87694       -0.86809       -0.86273
       -0.84921       -0.84598       -0.78149       -0.76319       -0.75388
       -0.74945       -0.71546       -0.70719       -0.69538       -0.68907
        0.11725        0.15887        0.16652        0.18720        0.23348
        0.24889        0.25353        0.28592        0.28949        0.30663
        0.35022        0.36813        0.71939        0.73244        0.76763
        0.89308        0.92626        0.92924        0.95255        0.96439
        0.98609        1.00411        1.01782        1.05018        1.05920
        1.06130        1.07043        1.08560        1.11798        1.13466
        1.15894        1.20047        1.20610        1.21012        1.21974
        1.23466        1.27507        1.28653        1.32838        1.48161
        1.48895        1.52172        1.56486        1.58949        1.63638
        1.67851        1.69745        1.71968        1.72287        1.73010
        1.73682        1.73962        1.75479        1.79710        1.84489
        1.84993        1.88726        2.02131        2.25043        2.29283
        2.30825        2.41315        2.41903        2.42129        2.42908
        2.44662        2.45452        2.45720        2.49548        2.50854
        2.53127        2.59272        2.60344        2.61715        2.64376
        2.69024        2.81330        2.82933        2.83450        2.83966
        2.84341        2.85601        2.88736        2.90921        2.93834
        2.95450        3.00760        3.17999        3.20196        3.22667
        3.26162        3.26976        3.33883        3.52603        3.55480
        3.57369        3.60194        3.63033        3.69894        3.75082
        3.76230        3.78149        3.79863        3.82236        3.85044
 Time used in FCKEIG, thr_jaco:   1.84D-01  1.80D-02  5.24D-05
 CPU and wall times used in FCKEIG, THR_FCKEIG:   1.84D-01  1.80D-02  1.07D-02
 -----------------------------------------------------------------------------

 *** DIIS iteration number    3
 RDSUPM called. NFMAT, ISYMDM(1:NFMAT)                     1
                     1

 ITDIIS, energy, error norm, change in energy, scr.thr., difden:
@ DIIS iter.   3    -361.087430518        3.54785D-01   -7.25D-02  -20    F

 (DIIS_RED) Control Parameters C2DIIS =         F NEVC =    3


 (DIIS_RED) B matrix:

               Column   1     Column   2     Column   3
       1      14.18079663
       2       0.98232177     1.15241069
       3       0.84410939    -0.02217181     0.12587227
    ==== End of matrix output ====

 DIIS C vector; C2DIIS = F, LAMBDA = -6.45D-02
   -0.059752    0.124864    0.934888
* Read MO coefficients from SIRIUS.RST with label "NEWORB  " and header info: 19Dec18  DIIS   3
      Virial theorem: -V/T =      2.004604
@      MULPOP N      -0.65; H       0.38; H       0.39; H       0.34; H       0.38; O      -0.79; O      -0.75; O      -0.72; O      -0.77; H       0.39; 
@             H       0.43; H       0.40; H       0.40; H       0.42; H       0.36; H       0.41; H       0.38; 
   3  Level shift: doubly occupied orbital energies shifted by -5.00D-02

 DIIS Fock eigenvalues in symmetry 1
      -20.70191      -20.68812      -20.67390      -20.67115      -15.77955
       -1.45606       -1.45066       -1.44666       -1.43404       -1.38753
       -0.86743       -0.85859       -0.83284       -0.81062       -0.80275
       -0.79625       -0.78371       -0.71393       -0.69480       -0.68763
       -0.68479       -0.64220       -0.63180       -0.62207       -0.61788
        0.12282        0.16664        0.17393        0.19511        0.23477
        0.25605        0.26274        0.29579        0.29716        0.30497
        0.34535        0.36375        0.70674        0.72294        0.75575
        0.90278        0.93702        0.94197        0.96198        0.97549
        0.99801        1.01492        1.02530        1.05517        1.06640
        1.07170        1.08133        1.09220        1.12880        1.13251
        1.15394        1.21163        1.21366        1.22304        1.23061
        1.24597        1.29136        1.29771        1.34295        1.45945
        1.48834        1.50687        1.57888        1.60340        1.65161
        1.69492        1.71629        1.74028        1.74250        1.74901
        1.75596        1.75866        1.77288        1.81179        1.86109
        1.86490        1.90296        2.02401        2.25196        2.29601
        2.30845        2.41486        2.42835        2.43288        2.44335
        2.45894        2.46292        2.47056        2.50638        2.51979
        2.52934        2.58832        2.61989        2.63726        2.66160
        2.71204        2.82831        2.84355        2.84916        2.85150
        2.85795        2.87042        2.90191        2.91749        2.94559
        2.95192        3.00565        3.19438        3.21694        3.23707
        3.25838        3.28174        3.32398        3.51614        3.57011
        3.59248        3.61328        3.63974        3.67498        3.72201
        3.75795        3.78979        3.81415        3.83731        3.87063
 Time used in FCKEIG, thr_jaco:   1.61D-01  1.60D-02  1.73D-05
 CPU and wall times used in FCKEIG, THR_FCKEIG:   1.61D-01  1.60D-02  3.55D-03
 -----------------------------------------------------------------------------

 *** DIIS iteration number    4
 RDSUPM called. NFMAT, ISYMDM(1:NFMAT)                     1
                     1

 ITDIIS, energy, error norm, change in energy, scr.thr., difden:
@ DIIS iter.   4    -361.096628079        7.07294D-02   -9.20D-03  -20    F

 (DIIS_RED) Control Parameters C2DIIS =         F NEVC =    4


 (DIIS_RED) B matrix:

               Column   1     Column   2     Column   3     Column   4
       1      14.18079663
       2       0.98232177     1.15241069
       3       0.84410939    -0.02217181     0.12587227
       4       0.07799258     0.04710591     0.00738804     0.00500265
    ==== End of matrix output ====

 DIIS C vector; C2DIIS = F, LAMBDA = -3.09D-03
   -0.000037   -0.042717   -0.046673    1.089426
* Read MO coefficients from SIRIUS.RST with label "NEWORB  " and header info: 19Dec18  DIIS   4
      Virial theorem: -V/T =      2.004595
@      MULPOP N      -0.76; H       0.41; H       0.41; H       0.36; H       0.41; O      -0.82; O      -0.78; O      -0.74; O      -0.80; H       0.41; 
@             H       0.45; H       0.41; H       0.41; H       0.43; H       0.37; H       0.43; H       0.39; 
   4  Level shift: doubly occupied orbital energies shifted by -1.25D-02

 DIIS Fock eigenvalues in symmetry 1
      -20.67367      -20.66445      -20.64844      -20.64735      -15.72028
       -1.42165       -1.41730       -1.41330       -1.39992       -1.34071
       -0.82127       -0.81311       -0.78753       -0.77545       -0.76738
       -0.76153       -0.74900       -0.67761       -0.65912       -0.65145
       -0.64849       -0.60428       -0.59504       -0.58436       -0.58057
        0.12303        0.16520        0.17275        0.19357        0.23653
        0.25510        0.26176        0.29541        0.29677        0.30785
        0.35040        0.36884        0.71285        0.72815        0.76163
        0.90180        0.93566        0.94006        0.96084        0.97354
        0.99584        1.01385        1.02471        1.05857        1.06854
        1.07227        1.08135        1.09463        1.13020        1.13571
        1.15751        1.21147        1.21454        1.22188        1.23012
        1.24528        1.28968        1.29684        1.34062        1.46725
        1.49017        1.51192        1.57778        1.60247        1.65092
        1.69389        1.71432        1.73856        1.74037        1.74684
        1.75436        1.75720        1.77155        1.81092        1.86089
        1.86502        1.90317        2.02706        2.25833        2.30221
        2.31510        2.41948        2.42974        2.43140        2.44158
        2.45791        2.46279        2.46923        2.50392        2.52022
        2.53025        2.59235        2.61783        2.63472        2.65901
        2.70925        2.82646        2.84259        2.84778        2.85110
        2.85597        2.86832        2.89932        2.91895        2.94795
        2.95719        3.01167        3.19240        3.21547        3.23690
        3.26296        3.27997        3.33166        3.52301        3.56755
        3.58933        3.61184        3.63900        3.68251        3.73065
        3.76209        3.78897        3.81259        3.83579        3.86855
 Time used in FCKEIG, thr_jaco:   1.43D-01  1.50D-02  3.45D-06
 CPU and wall times used in FCKEIG, THR_FCKEIG:   1.43D-01  1.50D-02  7.07D-04
 -----------------------------------------------------------------------------

 *** DIIS iteration number    5
 RDSUPM called. NFMAT, ISYMDM(1:NFMAT)                     1
                     1

 ITDIIS, energy, error norm, change in energy, scr.thr., difden:
@ DIIS iter.   5    -361.097259441        2.49285D-02   -6.31D-04  -20    F

 (DIIS_RED) Control Parameters C2DIIS =         F NEVC =    5


 (DIIS_RED) B matrix:

               Column   1     Column   2     Column   3     Column   4     Column   5
       1      14.18079663
       2       0.98232177     1.15241069
       3       0.84410939    -0.02217181     0.12587227
       4       0.07799258     0.04710591     0.00738804     0.00500265
       5       0.01599241     0.00390655     0.00402698     0.00053396     0.00062143
    ==== End of matrix output ====

 DIIS C vector; C2DIIS = F, LAMBDA = -4.39D-04
    0.001879   -0.010661   -0.048315    0.131455    0.925643
* Read MO coefficients from SIRIUS.RST with label "NEWORB  " and header info: 19Dec18  DIIS   5
      Virial theorem: -V/T =      2.004292
@      MULPOP N      -0.76; H       0.41; H       0.42; H       0.36; H       0.41; O      -0.83; O      -0.79; O      -0.76; O      -0.81; H       0.41; 
@             H       0.45; H       0.42; H       0.41; H       0.44; H       0.38; H       0.44; H       0.40; 

 DIIS Fock eigenvalues in symmetry 1
      -20.65634      -20.64457      -20.62920      -20.62782      -15.70480
       -1.40722       -1.40182       -1.39805       -1.38528       -1.32681
       -0.80737       -0.79925       -0.77348       -0.76154       -0.75289
       -0.74677       -0.73496       -0.66367       -0.64449       -0.63659
       -0.63435       -0.58920       -0.57923       -0.56900       -0.56468
        0.12361        0.16562        0.17325        0.19403        0.23726
        0.25560        0.26240        0.29619        0.29731        0.30865
        0.35142        0.37005        0.71389        0.72917        0.76267
        0.90240        0.93631        0.94079        0.96158        0.97434
        0.99655        1.01476        1.02572        1.06022        1.07018
        1.07359        1.08332        1.09638        1.13224        1.13755
        1.15897        1.21295        1.21617        1.22360        1.23194
        1.24699        1.29180        1.29833        1.34235        1.46856
        1.49161        1.51336        1.57918        1.60404        1.65276
        1.69549        1.71546        1.74002        1.74200        1.74809
        1.75609        1.75878        1.77310        1.81279        1.86241
        1.86672        1.90477        2.02860        2.25933        2.30330
        2.31611        2.42036        2.43050        2.43255        2.44317
        2.45848        2.46383        2.47055        2.50409        2.52114
        2.53112        2.59366        2.61875        2.63611        2.66001
        2.71083        2.82705        2.84336        2.84848        2.85196
        2.85668        2.86888        2.89981        2.91977        2.94897
        2.95826        3.01267        3.19290        3.21627        3.23752
        3.26397        3.28098        3.33280        3.52417        3.56830
        3.59032        3.61272        3.64015        3.68372        3.73200
        3.76347        3.79011        3.81390        3.83688        3.87023
 Time used in FCKEIG, thr_jaco:   1.34D-01  1.30D-02  1.22D-06
 CPU and wall times used in FCKEIG, THR_FCKEIG:   1.34D-01  1.30D-02  2.49D-04
 -----------------------------------------------------------------------------

 *** DIIS iteration number    6
 RDSUPM called. NFMAT, ISYMDM(1:NFMAT)                     1
                     1

 ITDIIS, energy, error norm, change in energy, scr.thr., difden:
@ DIIS iter.   6    -361.097318063        8.70497D-03   -5.86D-05  -20    F

 (DIIS_RED) Control Parameters C2DIIS =         F NEVC =    6


 (DIIS_RED) B matrix:

               Column   1     Column   2     Column   3     Column   4     Column   5     Column   6
       1      14.18079663
       2       0.98232177     1.15241069
       3       0.84410939    -0.02217181     0.12587227
       4       0.07799258     0.04710591     0.00738804     0.00500265
       5       0.01599241     0.00390655     0.00402698     0.00053396     0.00062143
       6      -0.00308441    -0.00038979     0.00041290     0.00037245     0.00001923     0.00007578
    ==== End of matrix output ====

 DIIS C vector; C2DIIS = F, LAMBDA = -2.48D-05
    0.000574    0.005343   -0.000584   -0.140667    0.083666    1.051669
* Read MO coefficients from SIRIUS.RST with label "NEWORB  " and header info: 19Dec18  DIIS   6
      Virial theorem: -V/T =      2.004501
@      MULPOP N      -0.76; H       0.41; H       0.41; H       0.36; H       0.41; O      -0.83; O      -0.79; O      -0.76; O      -0.82; H       0.41; 
@             H       0.46; H       0.42; H       0.41; H       0.44; H       0.38; H       0.44; H       0.40; 

 DIIS Fock eigenvalues in symmetry 1
      -20.65747      -20.64655      -20.63069      -20.62997      -15.70623
       -1.40740       -1.40238       -1.39857       -1.38563       -1.32718
       -0.80772       -0.79964       -0.77382       -0.76176       -0.75335
       -0.74727       -0.73534       -0.66417       -0.64529       -0.63742
       -0.63506       -0.58918       -0.57954       -0.56914       -0.56503
        0.12353        0.16548        0.17309        0.19386        0.23718
        0.25548        0.26225        0.29604        0.29718        0.30850
        0.35119        0.36979        0.71379        0.72900        0.76253
        0.90224        0.93606        0.94050        0.96132        0.97406
        0.99627        1.01446        1.02542        1.06007        1.06999
        1.07337        1.08306        1.09621        1.13192        1.13725
        1.15871        1.21264        1.21589        1.22323        1.23150
        1.24658        1.29133        1.29798        1.34192        1.46827
        1.49132        1.51306        1.57904        1.60374        1.65238
        1.69513        1.71526        1.73975        1.74165        1.74777
        1.75571        1.75844        1.77277        1.81239        1.86222
        1.86642        1.90447        2.02834        2.25925        2.30320
        2.31600        2.42016        2.43025        2.43235        2.44278
        2.45824        2.46354        2.47020        2.50382        2.52084
        2.53085        2.59336        2.61851        2.63567        2.65965
        2.71039        2.82684        2.84308        2.84818        2.85169
        2.85634        2.86866        2.89956        2.91955        2.94880
        2.95813        3.01251        3.19268        3.21594        3.23721
        3.26374        3.28062        3.33261        3.52395        3.56804
        3.58995        3.61238        3.63980        3.68340        3.73172
        3.76311        3.78980        3.81349        3.83649        3.86973
 Time used in FCKEIG, thr_jaco:   1.33D-01  1.40D-02  4.25D-07
 CPU and wall times used in FCKEIG, THR_FCKEIG:   1.34D-01  1.40D-02  8.70D-05
 -----------------------------------------------------------------------------

 *** DIIS iteration number    7
 RDSUPM called. NFMAT, ISYMDM(1:NFMAT)                     1
                     1

 ITDIIS, energy, error norm, change in energy, scr.thr., difden:
@ DIIS iter.   7    -361.097327424        1.86535D-03   -9.36D-06  -20    F

 (DIIS_RED) Control Parameters C2DIIS =         F NEVC =    7


 (DIIS_RED) B matrix:

               Column   1     Column   2     Column   3     Column   4     Column   5     Column   6
       1      14.18079663
       2       0.98232177     1.15241069
       3       0.84410939    -0.02217181     0.12587227
       4       0.07799258     0.04710591     0.00738804     0.00500265
       5       0.01599241     0.00390655     0.00402698     0.00053396     0.00062143
       6      -0.00308441    -0.00038979     0.00041290     0.00037245     0.00001923     0.00007578
       7       0.00010938     0.00022346    -0.00001263     0.00001162     0.00003349     0.00000273

               Column   7
       7       0.00000348
    ==== End of matrix output ====

 DIIS C vector; C2DIIS = F, LAMBDA = -6.81D-07
   -0.000260   -0.000687    0.003926    0.024808   -0.096091   -0.168678    1.236982
* Read MO coefficients from SIRIUS.RST with label "NEWORB  " and header info: 19Dec18  DIIS   7
      Virial theorem: -V/T =      2.004459
@      MULPOP N      -0.76; H       0.41; H       0.41; H       0.36; H       0.41; O      -0.83; O      -0.80; O      -0.76; O      -0.82; H       0.41; 
@             H       0.46; H       0.42; H       0.42; H       0.44; H       0.38; H       0.44; H       0.40; 

 DIIS Fock eigenvalues in symmetry 1
      -20.65733      -20.64624      -20.63050      -20.62970      -15.70586
       -1.40731       -1.40226       -1.39842       -1.38553       -1.32699
       -0.80756       -0.79948       -0.77365       -0.76169       -0.75323
       -0.74717       -0.73526       -0.66420       -0.64525       -0.63737
       -0.63505       -0.58905       -0.57936       -0.56898       -0.56486
        0.12360        0.16551        0.17313        0.19389        0.23724
        0.25552        0.26231        0.29608        0.29722        0.30858
        0.35131        0.36991        0.71394        0.72914        0.76268
        0.90229        0.93611        0.94056        0.96137        0.97409
        0.99632        1.01450        1.02548        1.06019        1.07009
        1.07346        1.08316        1.09634        1.13203        1.13739
        1.15884        1.21274        1.21599        1.22332        1.23162
        1.24669        1.29141        1.29805        1.34200        1.46844
        1.49144        1.51322        1.57912        1.60384        1.65248
        1.69521        1.71530        1.73980        1.74170        1.74782
        1.75580        1.75852        1.77284        1.81249        1.86229
        1.86651        1.90457        2.02848        2.25939        2.30335
        2.31616        2.42027        2.43034        2.43240        2.44287
        2.45827        2.46362        2.47027        2.50383        2.52090
        2.53095        2.59349        2.61856        2.63575        2.65969
        2.71045        2.82687        2.84313        2.84822        2.85175
        2.85638        2.86869        2.89958        2.91962        2.94889
        2.95826        3.01267        3.19271        3.21600        3.23726
        3.26388        3.28067        3.33278        3.52411        3.56808
        3.59000        3.61242        3.63986        3.68357        3.73189
        3.76325        3.78987        3.81357        3.83655        3.86981
 Time used in FCKEIG, thr_jaco:   1.34D-01  1.40D-02  9.10D-08
 CPU and wall times used in FCKEIG, THR_FCKEIG:   1.34D-01  1.40D-02  1.87D-05
 -----------------------------------------------------------------------------

 *** DIIS iteration number    8
 RDSUPM called. NFMAT, ISYMDM(1:NFMAT)                     1
                     1

 ITDIIS, energy, error norm, change in energy, scr.thr., difden:
@ DIIS iter.   8    -361.097327839        2.70477D-04   -4.15D-07  -20    F

 (DIIS_RED) Control Parameters C2DIIS =         F NEVC =    8


 (DIIS_RED) B matrix:

               Column   1     Column   2     Column   3     Column   4     Column   5     Column   6
       1      14.18079663
       2       0.98232177     1.15241069
       3       0.84410939    -0.02217181     0.12587227
       4       0.07799258     0.04710591     0.00738804     0.00500265
       5       0.01599241     0.00390655     0.00402698     0.00053396     0.00062143
       6      -0.00308441    -0.00038979     0.00041290     0.00037245     0.00001923     0.00007578
       7       0.00010938     0.00022346    -0.00001263     0.00001162     0.00003349     0.00000273
       8       0.00009564    -0.00002453     0.00000883     0.00000047     0.00000039     0.00000073

               Column   7     Column   8
       7       0.00000348
       8       0.00000023     0.00000007
    ==== End of matrix output ====

 DIIS C vector; C2DIIS = F, LAMBDA = -3.39D-08
    0.000037    0.000066   -0.000931   -0.002457    0.021342    0.012370   -0.290979    1.260552
* Read MO coefficients from SIRIUS.RST with label "NEWORB  " and header info: 19Dec18  DIIS   8
      Virial theorem: -V/T =      2.004471
@      MULPOP N      -0.76; H       0.41; H       0.41; H       0.36; H       0.41; O      -0.83; O      -0.80; O      -0.76; O      -0.82; H       0.41; 
@             H       0.46; H       0.42; H       0.42; H       0.44; H       0.38; H       0.44; H       0.40; 

 DIIS Fock eigenvalues in symmetry 1
      -20.65731      -20.64628      -20.63050      -20.62969      -15.70588
       -1.40730       -1.40226       -1.39843       -1.38553       -1.32700
       -0.80756       -0.79949       -0.77367       -0.76168       -0.75323
       -0.74716       -0.73525       -0.66421       -0.64527       -0.63739
       -0.63506       -0.58904       -0.57937       -0.56898       -0.56486
        0.12359        0.16551        0.17313        0.19388        0.23724
        0.25552        0.26231        0.29609        0.29723        0.30858
        0.35130        0.36990        0.71393        0.72913        0.76266
        0.90229        0.93611        0.94056        0.96137        0.97409
        0.99631        1.01450        1.02548        1.06019        1.07008
        1.07345        1.08316        1.09633        1.13203        1.13738
        1.15883        1.21274        1.21599        1.22332        1.23161
        1.24668        1.29141        1.29805        1.34199        1.46843
        1.49143        1.51321        1.57912        1.60384        1.65248
        1.69521        1.71530        1.73980        1.74170        1.74782
        1.75579        1.75851        1.77284        1.81248        1.86229
        1.86651        1.90457        2.02847        2.25938        2.30334
        2.31614        2.42026        2.43033        2.43240        2.44287
        2.45827        2.46361        2.47027        2.50383        2.52089
        2.53094        2.59348        2.61856        2.63575        2.65970
        2.71045        2.82687        2.84313        2.84822        2.85175
        2.85638        2.86869        2.89958        2.91962        2.94888
        2.95826        3.01265        3.19271        3.21600        3.23726
        3.26387        3.28067        3.33276        3.52409        3.56807
        3.59000        3.61242        3.63986        3.68356        3.73188
        3.76324        3.78987        3.81357        3.83655        3.86981
 Time used in FCKEIG, thr_jaco:   1.34D-01  1.30D-02  1.32D-08
 CPU and wall times used in FCKEIG, THR_FCKEIG:   1.35D-01  1.30D-02  2.70D-06
 -----------------------------------------------------------------------------

 *** DIIS iteration number    9
 RDSUPM called. NFMAT, ISYMDM(1:NFMAT)                     1
                     1

 ITDIIS, energy, error norm, change in energy, scr.thr., difden:
@ DIIS iter.   9    -361.097327849        6.42982D-05   -1.00D-08  -20    F

 (DIIS_RED) Control Parameters C2DIIS =         F NEVC =    8


 (DIIS_RED) B matrix:

               Column   1     Column   2     Column   3     Column   4     Column   5     Column   6
       1       0.00000000
       2       0.00000675     1.15241069
       3      -0.00000232    -0.02217181     0.12587227
       4       0.00000017     0.04710591     0.00738804     0.00500265
       5       0.00000003     0.00390655     0.00402698     0.00053396     0.00062143
       6       0.00000003    -0.00038979     0.00041290     0.00037245     0.00001923     0.00007578
       7       0.00000004     0.00022346    -0.00001263     0.00001162     0.00003349     0.00000273
       8       0.00000001    -0.00002453     0.00000883     0.00000047     0.00000039     0.00000073

               Column   7     Column   8
       7       0.00000348
       8       0.00000023     0.00000007
    ==== End of matrix output ====

 DIIS C vector; C2DIIS = F, LAMBDA = -3.28D-09
    1.043863    0.000010   -0.000023   -0.000424    0.001857    0.002633   -0.028038   -0.019877
* Read MO coefficients from SIRIUS.RST with label "NEWORB  " and header info: 19Dec18  DIIS   9
      Virial theorem: -V/T =      2.004471
@      MULPOP N      -0.76; H       0.41; H       0.41; H       0.36; H       0.41; O      -0.83; O      -0.80; O      -0.76; O      -0.82; H       0.41; 
@             H       0.46; H       0.42; H       0.42; H       0.44; H       0.38; H       0.44; H       0.40; 

 DIIS Fock eigenvalues in symmetry 1
      -20.65732      -20.64625      -20.63050      -20.62971      -15.70588
       -1.40731       -1.40226       -1.39842       -1.38553       -1.32699
       -0.80756       -0.79948       -0.77366       -0.76168       -0.75322
       -0.74716       -0.73524       -0.66422       -0.64527       -0.63739
       -0.63506       -0.58905       -0.57936       -0.56898       -0.56487
        0.12359        0.16551        0.17313        0.19388        0.23724
        0.25552        0.26231        0.29609        0.29723        0.30858
        0.35130        0.36990        0.71393        0.72913        0.76267
        0.90229        0.93611        0.94056        0.96137        0.97409
        0.99631        1.01450        1.02548        1.06018        1.07008
        1.07345        1.08316        1.09633        1.13202        1.13738
        1.15883        1.21274        1.21599        1.22332        1.23161
        1.24668        1.29141        1.29805        1.34200        1.46843
        1.49143        1.51321        1.57912        1.60384        1.65248
        1.69521        1.71529        1.73980        1.74170        1.74782
        1.75580        1.75852        1.77284        1.81248        1.86229
        1.86651        1.90457        2.02847        2.25938        2.30334
        2.31614        2.42026        2.43034        2.43240        2.44287
        2.45827        2.46361        2.47027        2.50383        2.52089
        2.53094        2.59348        2.61856        2.63576        2.65970
        2.71045        2.82687        2.84313        2.84822        2.85175
        2.85639        2.86869        2.89958        2.91962        2.94888
        2.95826        3.01265        3.19271        3.21600        3.23726
        3.26387        3.28067        3.33277        3.52409        3.56807
        3.59000        3.61242        3.63986        3.68356        3.73188
        3.76324        3.78987        3.81357        3.83655        3.86981
 Time used in FCKEIG, thr_jaco:   1.45D-01  1.50D-02  3.14D-09
 CPU and wall times used in FCKEIG, THR_FCKEIG:   1.46D-01  1.50D-02  6.43D-07
 -----------------------------------------------------------------------------

 *** DIIS iteration number   10
 RDSUPM called. NFMAT, ISYMDM(1:NFMAT)                     1
                     1

 ITDIIS, energy, error norm, change in energy, scr.thr., difden:
@ DIIS iter.  10    -361.097327849        2.77082D-05   -4.14D-10  -20    F

 (DIIS_RED) Control Parameters C2DIIS =         F NEVC =    8


 (DIIS_RED) B matrix:

               Column   1     Column   2     Column   3     Column   4     Column   5     Column   6
       1       0.00000000
       2      -0.00000000     0.00000000
[...]

 Principal values of diagonalized transition strength matrix:

             a.u.               
 1      -0.00000000
 2      -0.00000000
 3       0.00283278

 Principal axis of diagonalized transition strength matrix:


               Column   1     Column   2     Column   3
       1       0.91782624     0.31735163    -0.23850143
       2       0.33689742    -0.30487529     0.89081490
       3      -0.20998837     0.89796381     0.38673749
    ==== End of matrix output ====


 CCSD   oscillator strength matrix for state nr. 13 of symmetry 1
 CCSD  excitation energy:15.48520418


               Column   1     Column   2     Column   3
       1       0.00166349    -0.00621323    -0.00269740
       2      -0.00621323     0.02320672     0.01007494
       3      -0.00269740     0.01007494     0.00437393
    ==== End of matrix output ====

 Principal values of diagonalized oscillator strength matrix:

             a.u.               
 1      -0.00000000
 2      -0.00000000
 3       0.02924414

 Principal axis of diagonalized oscillator strength matrix:


               Column   1     Column   2     Column   3
       1       0.91782624     0.31735163    -0.23850143
       2       0.33689742    -0.30487529     0.89081490
       3      -0.20998837     0.89796381     0.38673749
    ==== End of matrix output ====


 CCSD  Transition strength matrix for state nr. 14 of symmetry 1
 CCSD  excitation energy:15.50855924

 Gauge: length

               Column   1     Column   2     Column   3
       1       0.00292181     0.00028311     0.00108985
       2       0.00028311     0.00002743     0.00010560
       3       0.00108985     0.00010560     0.00040652
    ==== End of matrix output ====

 Principal values of diagonalized transition strength matrix:

             a.u.               
 1      -0.00000000
 2       0.00000000
 3       0.00335576

 Principal axis of diagonalized transition strength matrix:


               Column   1     Column   2     Column   3
       1      -0.31926225     0.16548904     0.93310503
       2       0.65370442     0.75132930     0.09041467
       3       0.68610651    -0.63884088     0.34805200
    ==== End of matrix output ====


 CCSD   oscillator strength matrix for state nr. 14 of symmetry 1
 CCSD  excitation energy:15.50855924


               Column   1     Column   2     Column   3
       1       0.03020875     0.00292712     0.01126799
       2       0.00292712     0.00028363     0.00109183
       3       0.01126799     0.00109183     0.00420300
    ==== End of matrix output ====

 Principal values of diagonalized oscillator strength matrix:

             a.u.               
 1      -0.00000000
 2       0.00000000
 3       0.03469538

 Principal axis of diagonalized oscillator strength matrix:


               Column   1     Column   2     Column   3
       1      -0.31926225     0.16548904     0.93310503
       2       0.65370442     0.75132930     0.09041467
       3       0.68610651    -0.63884088     0.34805200
    ==== End of matrix output ====


 CCSD  Transition strength matrix for state nr. 15 of symmetry 1
 CCSD  excitation energy:15.53224118

 Gauge: length

               Column   1     Column   2     Column   3
       1       0.00005834     0.00017010    -0.00035958
       2       0.00017010     0.00049599    -0.00104848
       3      -0.00035958    -0.00104848     0.00221638
    ==== End of matrix output ====

 Principal values of diagonalized transition strength matrix:

             a.u.               
 1      -0.00000000
 2      -0.00000000
 3       0.00277071

 Principal axis of diagonalized transition strength matrix:


               Column   1     Column   2     Column   3
       1      -0.62468051     0.76728014    -0.14510497
       2       0.74018365     0.52260532    -0.42309791
       3       0.24880199     0.37170535     0.89438957
    ==== End of matrix output ====


 CCSD   oscillator strength matrix for state nr. 15 of symmetry 1
 CCSD  excitation energy:15.53224118


               Column   1     Column   2     Column   3
       1       0.00060408     0.00176140    -0.00372343
       2       0.00176140     0.00513589    -0.01085681
       3      -0.00372343    -0.01085681     0.02295028
    ==== End of matrix output ====

 Principal values of diagonalized oscillator strength matrix:

             a.u.               
 1      -0.00000001
 2      -0.00000000
 3       0.02869026

 Principal axis of diagonalized oscillator strength matrix:


               Column   1     Column   2     Column   3
       1      -0.62468051     0.76728014    -0.14510497
       2       0.74018365     0.52260532    -0.42309791
       3       0.24880199     0.37170535     0.89438957
    ==== End of matrix output ====

  Total time for    135 linear response residues:      83.36 seconds.
  

 *******************************************************************************
 *******************************************************************************
 *                                                                             *
 *                                                                             *
 *                   SUMMARY OF COUPLED CLUSTER CALCULATION                    *
 *                                                                             *
 *                                                                             *
 *******************************************************************************
 *******************************************************************************

                                                                                
                                                                                
            Total SCF   energy:                  -361.0973278495                
            Total MP2   energy:                  -362.0872582714                
            Total CCSD  energy:                  -362.1359398188                
                                                                                
                                                                                
            Total SCF   energy:                  -361.0973278495                
            Total RSTAR energy:                  -362.1359398188                
            Total CCSD  energy:                  -362.1360120020                
                                                                                
                                                                                
            Total SCF   energy:                  -361.0973278495                
            Total RSTAR energy:                  -362.1360120020                
            Total CCSD  energy:                  -362.1360127758                
                                                                                
                                                                                
            Total SCF   energy:                  -361.0973278495                
            Total RSTAR energy:                  -362.1360127758                
            Total CCSD  energy:                  -362.1360128266                
                                                                                
                                                                                
            Total SCF   energy:                  -361.0973278495                
            Total RSTAR energy:                  -362.1360128266                
            Total CCSD  energy:                  -362.1360128283                
                                                                                
                                                                                
            Total SCF   energy:                  -361.0973278495                
            Total RSTAR energy:                  -362.1360128283                
            Total CCSD  energy:                  -362.1360128283                
            CCSD Total  energy:                  -362.5405317507                
            CCSD E(QM/MM)     :                    -0.4015008460                
                                                                                
                                                                                
                                                                                
 +=============================================================================+
 |  sym. | Exci.  |        CCSD       Excitation energies            | ||T1||  |
 |(spin, |        +------------------------------------------------------------+
 | spat) |        |     Hartree    |       eV.      |     cm-1       |    %    |
 +=============================================================================+
 | ^1A   |    1   |    15.0248052  |     408.84575  |   3297563.550  |  89.31  |
 | ^1A   |    2   |    15.0777416  |     410.28622  |   3309181.745  |  89.57  |
 | ^1A   |    3   |    15.0992463  |     410.87139  |   3313901.480  |  89.62  |
 | ^1A   |    4   |    15.1158296  |     411.32265  |   3317541.090  |  89.55  |
 | ^1A   |    5   |    15.1923031  |     413.40360  |   3334325.083  |  88.51  |
 | ^1A   |    6   |    15.2237887  |     414.26036  |   3341235.372  |  88.39  |
 | ^1A   |    7   |    15.2325291  |     414.49820  |   3343153.678  |  88.35  |
 | ^1A   |    8   |    15.2458293  |     414.86012  |   3346072.734  |  88.37  |
 | ^1A   |    9   |    15.2835960  |     415.88780  |   3354361.571  |  88.00  |
 | ^1A   |   10   |    15.2881879  |     416.01275  |   3355369.362  |  88.27  |
 | ^1A   |   11   |    15.3138419  |     416.71084  |   3360999.779  |  87.93  |
 | ^1A   |   12   |    15.3268328  |     417.06434  |   3363850.956  |  88.06  |
 | ^1A   |   13   |    15.4852042  |     421.37384  |   3398609.447  |  90.10  |
 | ^1A   |   14   |    15.5085592  |     422.00936  |   3403735.290  |  90.20  |
 | ^1A   |   15   |    15.5322412  |     422.65378  |   3408932.875  |  90.12  |
 +=============================================================================+
                                                                                
                                                                                
     Total energies in Hartree:                                                 
             1 ^1A       -347.1142257166                                        
             2 ^1A       -347.0612893224                                        
             3 ^1A       -347.0397846285                                        
             4 ^1A       -347.0232013427                                        
             5 ^1A       -346.9467278439                                        
             6 ^1A       -346.9152422503                                        
             7 ^1A       -346.9065018062                                        
             8 ^1A       -346.8932016061                                        
             9 ^1A       -346.8554348874                                        
            10 ^1A       -346.8508430534                                        
            11 ^1A       -346.8251889846                                        
            12 ^1A       -346.8121980658                                        
            13 ^1A       -346.6538267269                                        
            14 ^1A       -346.6304716686                                        
            15 ^1A       -346.6067897281                                        
                                                                                
                                                                                
 +=============================================================================+
 |  sym. | Exci.  |        CCSD       Length   Gauge Oscillator Strength       |
 |(spin, |        +------------------------------------------------------------+
 | spat) |        | Dipole Strength(a.u.) | Oscillator strength  | Direction   |
 +=============================================================================+
 | ^1A   |    1   |        0.0004344      |      0.0043508       |  (Y,Z)      |
 | ^1A   |    2   |        0.0036961      |      0.0371530       |  (Y,Z)      |
 | ^1A   |    3   |        0.0039395      |      0.0396557       |  (Y,Z)      |
 | ^1A   |    4   |        0.0036513      |      0.0367952       |  (Y,Z)      |
 | ^1A   |    5   |        0.0001929      |      0.0019537       |  (Y,Z)      |
 | ^1A   |    6   |        0.0005988      |      0.0060776       |  (Y,Z)      |
 | ^1A   |    7   |        0.0003438      |      0.0034915       |  (Y,Z)      |
 | ^1A   |    8   |        0.0004565      |      0.0046398       |  (Y,Z)      |
 | ^1A   |    9   |        0.0000394      |      0.0004017       |  (Y,Z)      |
 | ^1A   |   10   |        0.0000603      |      0.0006145       |  (Y,Z)      |
 | ^1A   |   11   |        0.0000380      |      0.0003884       |  (Y,Z)      |
 | ^1A   |   12   |        0.0000061      |      0.0000618       |  (Y,Z)      |
 | ^1A   |   13   |        0.0028328      |      0.0292441       |  (Y,Z)      |
 | ^1A   |   14   |        0.0033558      |      0.0346954       |  (Y,Z)      |
 | ^1A   |   15   |        0.0027707      |      0.0286903       |  (Y,Z)      |
 +=============================================================================+

  1 a.u. =        27.21138 eV.  
  1 a.u. =    219474.62934 cm-1.
  

 *******************************************************************************
 *******************************************************************************
 *                                                                             *
 *                                                                             *
 *                      END OF COUPLED CLUSTER CALCULATION                     *
 *                                                                             *
 *                                                                             *
 *******************************************************************************
 *******************************************************************************


 CPU and wall time for CC :  180750.070   19426.443

 
     Date and time (Linux)  : Wed Dec 19 19:15:45 2018
     Host name              : n-62-23-9                               


                      .-------------------------------------.
                      | End of Coupled Cluster Section (CC) |
                      `-------------------------------------'

  Total CPU  time used in DALTON:  50 hours 19 minutes 25 seconds
  Total wall time used in DALTON:   5 hours 25 minutes 12 seconds

 
     Date and time (Linux)  : Wed Dec 19 19:15:45 2018
     Host name              : n-62-23-9                               
  

 +---------------------------------------------------------+ 
 | List of selected calculated molecular properties (a.u.) | 
 +---------------------------------------------------------+ 

  Properties are read from unit number                      4

 CCSD       properties :
 #  1 1 CCSD/MM  Ground state Energy =    -362.5405317507
 #  2 1 E_QM/MM  Ground state Energy =      -0.4015008460
 #  3 1 Sy: 1 Sp: 1 Exc:  1 E_tot:   -347.1142257166 w:     15.0248051881 E_grs:   -362.1390309047
 #  4 1 Exctot   Excited state Energy =    -347.1142257166
 #  5 1 Sy: 1 Sp: 1 Exc:  2 E_tot:   -347.0612893224 w:     15.0777415824 E_grs:   -362.1390309047
 #  6 1 Exctot   Excited state Energy =    -347.0612893224
 #  7 1 Sy: 1 Sp: 1 Exc:  3 E_tot:   -347.0397846285 w:     15.0992462762 E_grs:   -362.1390309047
 #  8 1 Exctot   Excited state Energy =    -347.0397846285
 #  9 1 Sy: 1 Sp: 1 Exc:  4 E_tot:   -347.0232013427 w:     15.1158295620 E_grs:   -362.1390309047
 # 10 1 Exctot   Excited state Energy =    -347.0232013427
 # 11 1 Sy: 1 Sp: 1 Exc:  5 E_tot:   -346.9467278439 w:     15.1923030608 E_grs:   -362.1390309047
 # 12 1 Exctot   Excited state Energy =    -346.9467278439
 # 13 1 Sy: 1 Sp: 1 Exc:  6 E_tot:   -346.9152422503 w:     15.2237886545 E_grs:   -362.1390309047
 # 14 1 Exctot   Excited state Energy =    -346.9152422503
 # 15 1 Sy: 1 Sp: 1 Exc:  7 E_tot:   -346.9065018062 w:     15.2325290985 E_grs:   -362.1390309047
 # 16 1 Exctot   Excited state Energy =    -346.9065018062
 # 17 1 Sy: 1 Sp: 1 Exc:  8 E_tot:   -346.8932016061 w:     15.2458292987 E_grs:   -362.1390309047
 # 18 1 Exctot   Excited state Energy =    -346.8932016061
 # 19 1 Sy: 1 Sp: 1 Exc:  9 E_tot:   -346.8554348874 w:     15.2835960173 E_grs:   -362.1390309047
 # 20 1 Exctot   Excited state Energy =    -346.8554348874
 # 21 1 Sy: 1 Sp: 1 Exc: 10 E_tot:   -346.8508430534 w:     15.2881878514 E_grs:   -362.1390309047
 # 22 1 Exctot   Excited state Energy =    -346.8508430534
 # 23 1 Sy: 1 Sp: 1 Exc: 11 E_tot:   -346.8251889846 w:     15.3138419201 E_grs:   -362.1390309047
 # 24 1 Exctot   Excited state Energy =    -346.8251889846
 # 25 1 Sy: 1 Sp: 1 Exc: 12 E_tot:   -346.8121980658 w:     15.3268328389 E_grs:   -362.1390309047
 # 26 1 Exctot   Excited state Energy =    -346.8121980658
 # 27 1 Sy: 1 Sp: 1 Exc: 13 E_tot:   -346.6538267269 w:     15.4852041778 E_grs:   -362.1390309047
 # 28 1 Exctot   Excited state Energy =    -346.6538267269
 # 29 1 Sy: 1 Sp: 1 Exc: 14 E_tot:   -346.6304716686 w:     15.5085592361 E_grs:   -362.1390309047
 # 30 1 Exctot   Excited state Energy =    -346.6304716686
 # 31 1 Sy: 1 Sp: 1 Exc: 15 E_tot:   -346.6067897281 w:     15.5322411767 E_grs:   -362.1390309047
 # 32 1 Exctot   Excited state Energy =    -346.6067897281
 # 33 1 |<O|XDIPLEN |i(15.024805)>| =     0.00699280
 # 35 1 |<O|XDIPLEN |i(15.077742)>| =     0.01457959
 # 37 1 |<O|XDIPLEN |i(15.099246)>| =     0.06041747
 # 39 1 |<O|XDIPLEN |i(15.115830)>| =     0.00796709
 # 41 1 |<O|XDIPLEN |i(15.192303)>| =     0.00915870
 # 43 1 |<O|XDIPLEN |i(15.223789)>| =     0.01351722
 # 45 1 |<O|XDIPLEN |i(15.232529)>| =     0.00130048
 # 47 1 |<O|XDIPLEN |i(15.245829)>| =     0.01499837
 # 49 1 |<O|XDIPLEN |i(15.283596)>| =     0.00471250
 # 51 1 |<O|XDIPLEN |i(15.288188)>| =     0.00199202
 # 53 1 |<O|XDIPLEN |i(15.313842)>| =     0.00076171
 # 55 1 |<O|XDIPLEN |i(15.326833)>| =     0.00044635
 # 57 1 |<O|XDIPLEN |i(15.485204)>| =     0.01269396
 # 59 1 |<O|XDIPLEN |i(15.508559)>| =     0.05405380
 # 61 1 |<O|XDIPLEN |i(15.532241)>| =     0.00763796
 # 63 1 |<O|YDIPLEN |i(15.024805)>| =     0.01410418
 # 65 1 |<O|YDIPLEN |i(15.077742)>| =     0.05900323
 # 67 1 |<O|YDIPLEN |i(15.099246)>| =     0.01654916
 # 69 1 |<O|YDIPLEN |i(15.115830)>| =     0.00310409
 # 71 1 |<O|YDIPLEN |i(15.192303)>| =     0.00212535
 # 73 1 |<O|YDIPLEN |i(15.223789)>| =     0.01858831
 # 75 1 |<O|YDIPLEN |i(15.232529)>| =     0.00498021
 # 77 1 |<O|YDIPLEN |i(15.245829)>| =     0.00232598
 # 79 1 |<O|YDIPLEN |i(15.283596)>| =     0.00039225
 # 81 1 |<O|YDIPLEN |i(15.288188)>| =     0.00677169
 # 83 1 |<O|YDIPLEN |i(15.313842)>| =     0.00330811
 # 85 1 |<O|YDIPLEN |i(15.326833)>| =     0.00149612
 # 87 1 |<O|YDIPLEN |i(15.485204)>| =     0.04741263
 # 89 1 |<O|YDIPLEN |i(15.508559)>| =     0.00523761
 # 91 1 |<O|YDIPLEN |i(15.532241)>| =     0.02227084
 # 93 1 |<O|ZDIPLEN |i(15.024805)>| =     0.01365788
 # 95 1 |<O|ZDIPLEN |i(15.077742)>| =     0.00148292
 # 97 1 |<O|ZDIPLEN |i(15.099246)>| =     0.00391947
 # 99 1 |<O|ZDIPLEN |i(15.115830)>| =     0.05981816
 #101 1 |<O|ZDIPLEN |i(15.192303)>| =     0.01022221
 #103 1 |<O|ZDIPLEN |i(15.223789)>| =     0.00840153
 #105 1 |<O|ZDIPLEN |i(15.232529)>| =     0.01781367
 #107 1 |<O|ZDIPLEN |i(15.245829)>| =     0.01503783
 #109 1 |<O|ZDIPLEN |i(15.283596)>| =     0.00413129
 #111 1 |<O|ZDIPLEN |i(15.288188)>| =     0.00323599
 #113 1 |<O|ZDIPLEN |i(15.313842)>| =     0.00514987
 #115 1 |<O|ZDIPLEN |i(15.326833)>| =     0.00190087
 #117 1 |<O|ZDIPLEN |i(15.485204)>| =     0.02058367
 #119 1 |<O|ZDIPLEN |i(15.508559)>| =     0.02016228
 #121 1 |<O|ZDIPLEN |i(15.532241)>| =     0.04707849

 THE_END   
