

     ************************************************************************
     *************** Dalton - An Electronic Structure Program ***************
     ************************************************************************

    This is output from DALTON release Dalton2017.alpha (2016)
         ( Web site: http://daltonprogram.org )

   ----------------------------------------------------------------------------

    NOTE:
     
    Dalton is an experimental code for the evaluation of molecular
    properties using (MC)SCF, DFT, CI, and CC wave functions.
    The authors accept no responsibility for the performance of
    the code or for the correctness of the results.
     
    The code (in whole or part) is provided under a licence and
    is not to be reproduced for further distribution without
    the written permission of the authors or their representatives.
     
    See the home page "http://daltonprogram.org" for further information.
     
    If results obtained with this code are published,
    the appropriate citations would be both of:
     
       K. Aidas, C. Angeli, K. L. Bak, V. Bakken, R. Bast,
       L. Boman, O. Christiansen, R. Cimiraglia, S. Coriani,
       P. Dahle, E. K. Dalskov, U. Ekstroem,
       T. Enevoldsen, J. J. Eriksen, P. Ettenhuber, B. Fernandez,
       L. Ferrighi, H. Fliegl, L. Frediani, K. Hald, A. Halkier,
       C. Haettig, H. Heiberg, T. Helgaker, A. C. Hennum,
       H. Hettema, E. Hjertenaes, S. Hoest, I.-M. Hoeyvik,
       M. F. Iozzi, B. Jansik, H. J. Aa. Jensen, D. Jonsson,
       P. Joergensen, J. Kauczor, S. Kirpekar,
       T. Kjaergaard, W. Klopper, S. Knecht, R. Kobayashi, H. Koch,
       J. Kongsted, A. Krapp, K. Kristensen, A. Ligabue,
       O. B. Lutnaes, J. I. Melo, K. V. Mikkelsen, R. H. Myhre,
       C. Neiss, C. B. Nielsen, P. Norman, J. Olsen,
       J. M. H. Olsen, A. Osted, M. J. Packer, F. Pawlowski,
       T. B. Pedersen, P. F. Provasi, S. Reine, Z. Rinkevicius,
       T. A. Ruden, K. Ruud, V. Rybkin, P. Salek, C. C. M. Samson,
       A. Sanchez de Meras, T. Saue, S. P. A. Sauer,
       B. Schimmelpfennig, K. Sneskov, A. H. Steindal,
       K. O. Sylvester-Hvid, P. R. Taylor, A. M. Teale,
       E. I. Tellgren, D. P. Tew, A. J. Thorvaldsen, L. Thoegersen,
       O. Vahtras, M. A. Watson, D. J. D. Wilson, M. Ziolkowski
       and H. Agren,
       "The Dalton quantum chemistry program system",
       WIREs Comput. Mol. Sci. 2014, 4:269–284 (doi: 10.1002/wcms.1172)
     
    and
     
       Dalton, a Molecular Electronic Structure Program,
       Release Dalton2017.alpha (2016), see http://daltonprogram.org
   ----------------------------------------------------------------------------

    Authors in alphabetical order (major contribution(s) in parenthesis):

  Kestutis Aidas,           Vilnius University,           Lithuania   (QM/MM)
  Celestino Angeli,         University of Ferrara,        Italy       (NEVPT2)
  Keld L. Bak,              UNI-C,                        Denmark     (AOSOPPA, non-adiabatic coupling, magnetic properties)
  Vebjoern Bakken,          University of Oslo,           Norway      (DALTON; geometry optimizer, symmetry detection)
  Radovan Bast,             UiT The Arctic U. of Norway,  Norway      (DALTON installation and execution frameworks)
  Pablo Baudin,             University of Valencia,       Spain       (Cholesky excitation energies)
  Linus Boman,              NTNU,                         Norway      (Cholesky decomposition and subsystems)
  Ove Christiansen,         Aarhus University,            Denmark     (CC module)
  Renzo Cimiraglia,         University of Ferrara,        Italy       (NEVPT2)
  Sonia Coriani,            University of Trieste,        Italy       (CC module, MCD in RESPONS)
  Janusz Cukras,            University of Trieste,        Italy       (MChD in RESPONS)
  Paal Dahle,               University of Oslo,           Norway      (Parallelization)
  Erik K. Dalskov,          UNI-C,                        Denmark     (SOPPA)
  Thomas Enevoldsen,        Univ. of Southern Denmark,    Denmark     (SOPPA)
  Janus J. Eriksen,         Aarhus University,            Denmark     (Polarizable embedding model, TDA)
  Rasmus Faber,             University of Copenhagen,     Denmark     (Vib.avg. NMR with SOPPA, parallel AO-SOPPA)
  Berta Fernandez,          U. of Santiago de Compostela, Spain       (doublet spin, ESR in RESPONS)
  Lara Ferrighi,            Aarhus University,            Denmark     (PCM Cubic response)
  Heike Fliegl,             University of Oslo,           Norway      (CCSD(R12))
  Luca Frediani,            UiT The Arctic U. of Norway,  Norway      (PCM)
  Bin Gao,                  UiT The Arctic U. of Norway,  Norway      (Gen1Int library)
  Christof Haettig,         Ruhr-University Bochum,       Germany     (CC module)
  Kasper Hald,              Aarhus University,            Denmark     (CC module)
  Asger Halkier,            Aarhus University,            Denmark     (CC module)
  Frederik Beyer Hansen,    University of Copenhagen,     Denmark     (Parallel AO-SOPPA)
  Erik D. Hedegaard,        Univ. of Southern Denmark,    Denmark     (Polarizable embedding model, QM/MM)
  Hanne Heiberg,            University of Oslo,           Norway      (geometry analysis, selected one-electron integrals)
  Trygve Helgaker,          University of Oslo,           Norway      (DALTON; ABACUS, ERI, DFT modules, London, and much more)
  Alf Christian Hennum,     University of Oslo,           Norway      (Parity violation)
  Hinne Hettema,            University of Auckland,       New Zealand (quadratic response in RESPONS; SIRIUS supersymmetry)
  Eirik Hjertenaes,         NTNU,                         Norway      (Cholesky decomposition)
  Pi A. B. Haase,           University of Copenhagen,     Denmark     (Triplet AO-SOPPA)
  Maria Francesca Iozzi,    University of Oslo,           Norway      (RPA)
  Brano Jansik              Technical Univ. of Ostrava    Czech Rep.  (DFT cubic response)
  Hans Joergen Aa. Jensen,  Univ. of Southern Denmark,    Denmark     (DALTON; SIRIUS, RESPONS, ABACUS modules, London, and much more)
  Dan Jonsson,              UiT The Arctic U. of Norway,  Norway      (cubic response in RESPONS module)
  Poul Joergensen,          Aarhus University,            Denmark     (RESPONS, ABACUS, and CC modules)
  Maciej Kaminski,          University of Warsaw,         Poland      (CPPh in RESPONS)
  Joanna Kauczor,           Linkoeping University,        Sweden      (Complex polarization propagator (CPP) module)
  Sheela Kirpekar,          Univ. of Southern Denmark,    Denmark     (Mass-velocity & Darwin integrals)
  Wim Klopper,              KIT Karlsruhe,                Germany     (R12 code in CC, SIRIUS, and ABACUS modules)
  Stefan Knecht,            ETH Zurich,                   Switzerland (Parallel CI and MCSCF)
  Rika Kobayashi,           Australian National Univ.,    Australia   (DIIS in CC, London in MCSCF)
  Henrik Koch,              NTNU,                         Norway      (CC module, Cholesky decomposition)
  Jacob Kongsted,           Univ. of Southern Denmark,    Denmark     (Polarizable embedding model, QM/MM)
  Andrea Ligabue,           University of Modena,         Italy       (CTOCD, AOSOPPA)
  Nanna H. List             Univ. of Southern Denmark,    Denmark     (Polarizable embedding model)
  Ola B. Lutnaes,           University of Oslo,           Norway      (DFT Hessian)
  Juan I. Melo,             University of Buenos Aires,   Argentina   (LRESC, Relativistic Effects on NMR Shieldings)
  Kurt V. Mikkelsen,        University of Copenhagen,     Denmark     (MC-SCRF and QM/MM)
  Rolf H. Myhre,            NTNU,                         Norway      (Cholesky, subsystems and ECC2)
  Christian Neiss,          Univ. Erlangen-Nuernberg,     Germany     (CCSD(R12))
  Christian B. Nielsen,     University of Copenhagen,     Denmark     (QM/MM)
  Patrick Norman,           Linkoeping University,        Sweden      (Cubic response and complex frequency response in RESPONS)
  Jeppe Olsen,              Aarhus University,            Denmark     (SIRIUS CI/density modules)
  Jogvan Magnus H. Olsen,   Univ. of Southern Denmark,    Denmark     (Polarizable embedding model, QM/MM)
  Anders Osted,             Copenhagen University,        Denmark     (QM/MM)
  Martin J. Packer,         University of Sheffield,      UK          (SOPPA)
  Filip Pawlowski,          Kazimierz Wielki University,  Poland      (CC3)
  Morten N. Pedersen,       Univ. of Southern Denmark,    Denmark     (Polarizable embedding model)
  Thomas B. Pedersen,       University of Oslo,           Norway      (Cholesky decomposition)
  Patricio F. Provasi,      University of Northeastern,   Argentina   (Analysis of coupling constants in localized orbitals)
  Zilvinas Rinkevicius,     KTH Stockholm,                Sweden      (open-shell DFT, ESR)
  Elias Rudberg,            KTH Stockholm,                Sweden      (DFT grid and basis info)
  Torgeir A. Ruden,         University of Oslo,           Norway      (Numerical derivatives in ABACUS)
  Kenneth Ruud,             UiT The Arctic U. of Norway,  Norway      (DALTON; ABACUS magnetic properties and much more)
  Pawel Salek,              KTH Stockholm,                Sweden      (DALTON; DFT code)
  Claire C. M. Samson       University of Karlsruhe       Germany     (Boys localization, r12 integrals in ERI)
  Alfredo Sanchez de Meras, University of Valencia,       Spain       (CC module, Cholesky decomposition)
  Trond Saue,               Paul Sabatier University,     France      (direct Fock matrix construction)
  Stephan P. A. Sauer,      University of Copenhagen,     Denmark     (SOPPA(CCSD), SOPPA prop., AOSOPPA, vibrational g-factors)
  Bernd Schimmelpfennig,    Forschungszentrum Karlsruhe,  Germany     (AMFI module)
  Kristian Sneskov,         Aarhus University,            Denmark     (Polarizable embedding model, QM/MM)
  Arnfinn H. Steindal,      UiT The Arctic U. of Norway,  Norway      (parallel QM/MM, Polarizable embedding model)
  Casper Steinmann,         Univ. of Southern Denmark,    Denmark     (QFIT, Polarizable embedding model)
  K. O. Sylvester-Hvid,     University of Copenhagen,     Denmark     (MC-SCRF)
  Peter R. Taylor,          VLSCI/Univ. of Melbourne,     Australia   (Symmetry handling ABACUS, integral transformation)
  Andrew M. Teale,          University of Nottingham,     England     (DFT-AC, DFT-D)
  David P. Tew,             University of Bristol,        England     (CCSD(R12))
  Olav Vahtras,             KTH Stockholm,                Sweden      (triplet response, spin-orbit, ESR, TDDFT, open-shell DFT)
  David J. Wilson,          La Trobe University,          Australia   (DFT Hessian and DFT magnetizabilities)
  Hans Agren,               KTH Stockholm,                Sweden      (SIRIUS module, RESPONS, MC-SCRF solvation model)
 --------------------------------------------------------------------------------

     Date and time (Linux)  : Sun Dec  2 17:03:41 2018
     Host name              : n-62-23-21                              

 * Work memory size             :  1280000000 =  9.537 gigabytes.

 * Directories for basis set searches:
   1) /zhome/d7/7/119775/My_Codes/dalton-private/build2016/basis/diffs
   2) /zhome/37/3/129401/NH3NH4/CCSD/AIMD_SAMPLING/nh4_4h2o_nd
   3) /zhome/9a/4/124800/source/dalton/build-mlcc/basis


Compilation information
-----------------------

 Who compiled             | rfaber
 Host                     | hpclogin1
 System                   | Linux-2.6.32-696.1.1.el6.x86_64
 CMake generator          | Unix Makefiles
 Processor                | x86_64
 64-bit integers          | ON
 MPI                      | OFF
 Fortran compiler         | /opt/intel/2016update2/compilers_and_libraries_201
                          | 6.2.181/linux/bin/intel64/ifort
 Fortran compiler version | ifort (IFORT) 16.0.2 20160204
 C compiler               | /opt/intel/2016update2/compilers_and_libraries_201
                          | 6.2.181/linux/bin/intel64/icc
 C compiler version       | icc (ICC) 16.0.2 20160204
 C++ compiler             | /opt/intel/2016update2/compilers_and_libraries_201
                          | 6.2.181/linux/bin/intel64/icpc
 C++ compiler version     | icpc (ICC) 16.0.2 20160204
 Static linking           | OFF
 Last Git revision        | bb4d1599ca5680a9f3980451fc8bbefdba436d59
 Git branch               | mlcc
 Configuration time       | 2017-06-13 16:11:03.928841


   Content of the .dal input file
 ----------------------------------

**DALTON
.RUN WAVE FUNCTIONS
*QMMM
.QMMM
**INTEGRALS
.DIPLEN
**WAVE FUNCTIONS
.CC
*PRINT
!To check the origin of excit
.PRINTL
   0 11
*SCF INP
.THRESH
1.0D-7
!*ORBITAL INPUT
!.MOSTART
!NEWORB
*CC INP
!.RESTART
.CCSD
.THRLEQ
 1.0D-9
.THRENR
 1.0D-10
.FROIMP
4
0
.PRINT
 1
.MAX IT
 1200
.MAXRED
 1200
.MXLRV
1199
*CCSLV
.CCMM
.MXSLIT
200
.MXINIT
4 5
*CCEXCI
.NCCEXC
 1
.IONISATION
1
1
.CVSEPARA
1
1
*CCLRSD
.DIPOLE
**END OF DALTON INPUT


   Content of the .mol file
 ----------------------------

ATOMBASIS


Atomtypes=5 Charge=1 Nosymm Angstrom
   7.00000    1    Basis=6-311G**
N          0.000000        0.000000        0.000000
   1.00000    4    Basis=6-311G**
H         -0.773304       -0.068803        0.706407
H         -0.433045        0.108109       -0.948635
H          0.659424       -0.806131        0.095138
H          0.498488        0.948490        0.103574
   8.00000    4    Basis=6-311G**
O          1.591524        2.217041        0.490849
O         -0.600396        0.723487       -2.683272
O         -2.038130       -0.405629        2.035558
O          1.735539       -2.345883        0.281638
   1.00000    8    Basis=6-311G**
H          1.005860        2.883284        0.956151
H          2.142070        2.851684       -0.017406
H          0.186689        0.335744       -3.179627
H         -1.302105       -0.014838       -2.572446
H         -2.546874        0.440141        2.120790
H         -2.589419       -1.187722        1.724003
H          1.190749       -2.817221        0.939428
H          2.326559       -1.650137        0.669378
   0.00000    1    Basis=diffs
X          0.000000        0.000000        0.000000


       *******************************************************************
       *********** Output from DALTON general input processing ***********
       *******************************************************************

 --------------------------------------------------------------------------------
   Overall default print level:    0
   Print level for DALTON.STAT:    1

    HERMIT 1- and 2-electron integral sections will be executed
    "Old" integral transformation used (limited to max 255 basis functions)
    Wave function sections will be executed (SIRIUS module)
 --------------------------------------------------------------------------------


 Changes of defaults for *QMMM  :
 --------------------------------

 +------------------+
 |  WORD: | CHANGE: |
 +------------------+
 |   QMMM |       T |
 +------------------+
 


   ****************************************************************************
   *************** Output of molecule and basis set information ***************
   ****************************************************************************


    The two title cards from your ".mol" input:
    ------------------------------------------------------------------------
 1:                                                                         
 2:                                                                         
    ------------------------------------------------------------------------

  Coordinates are entered in Angstrom and converted to atomic units.
          - Conversion factor : 1 bohr = 0.52917721 A

  Atomic type no.    1
  --------------------
  Nuclear charge:   7.00000
  Number of symmetry independent centers:    1
  Number of basis sets to read;    2
  The basis set is "6-311G**" from the basis set library.
  Basis set file used for this atomic type with Z =   7 :
     "/zhome/9a/4/124800/source/dalton/build-mlcc/basis/6-311G**"

  Info about the basis set file: your basis has no documentation.
  Basis set: 6-311G**                                                                        

  Atomic type no.    2
  --------------------
  Nuclear charge:   1.00000
  Number of symmetry independent centers:    4
  Number of basis sets to read;    2
  The basis set is "6-311G**" from the basis set library.
  Basis set file used for this atomic type with Z =   1 :
     "/zhome/9a/4/124800/source/dalton/build-mlcc/basis/6-311G**"

  Info about the basis set file: your basis has no documentation.
  Basis set: 6-311G**                                                                        

  Atomic type no.    3
  --------------------
  Nuclear charge:   8.00000
  Number of symmetry independent centers:    4
  Number of basis sets to read;    2
  The basis set is "6-311G**" from the basis set library.
  Basis set file used for this atomic type with Z =   8 :
     "/zhome/9a/4/124800/source/dalton/build-mlcc/basis/6-311G**"

  Info about the basis set file: your basis has no documentation.
  Basis set: 6-311G**                                                                        

  Atomic type no.    4
  --------------------
  Nuclear charge:   1.00000
  Number of symmetry independent centers:    8
  Number of basis sets to read;    2
  The basis set is "6-311G**" from the basis set library.
  Basis set file used for this atomic type with Z =   1 :
     "/zhome/9a/4/124800/source/dalton/build-mlcc/basis/6-311G**"

  Info about the basis set file: your basis has no documentation.
  Basis set: 6-311G**                                                                        

  Atomic type no.    5
  --------------------
  Nuclear charge:   0.00000
  Number of symmetry independent centers:    1
  Number of basis sets to read;    2
  The basis set is "diffs" from the basis set library.
  Basis set file used for this atomic type with Z =   0 :
     "/zhome/9a/4/124800/source/dalton/build-mlcc/basis/diffs"

  Info about the basis set file: your basis has no documentation.
  Basis set: diffs                                                                           


                         SYMGRP: Point group information
                         -------------------------------

@    Point group: C1 


                                 Isotopic Masses
                                 ---------------

                           N          14.003074
                           H           1.007825
                           H           1.007825
                           H           1.007825
                           H           1.007825
                           O          15.994915
                           O          15.994915
                           O          15.994915
                           O          15.994915
                           H           1.007825
                           H           1.007825
                           H           1.007825
                           H           1.007825
                           H           1.007825
                           H           1.007825
                           H           1.007825
                           H           1.007825

                       Total mass:    90.076634 amu
                       Natural abundance:  98.500 %

 Center-of-mass coordinates (a.u.):    0.238764    0.085047    0.054486


  Atoms and basis sets
  --------------------

  Number of atom types :    5
  Total number of atoms:   18

  label    atoms   charge   prim   cont     basis
  ----------------------------------------------------------------------
  N           1    7.0000    31    18      [11s5p1d|4s3p1d]                                   
  H           4    1.0000     8     6      [5s1p|3s1p]                                        
  O           4    8.0000    31    18      [11s5p1d|4s3p1d]                                   
  H           8    1.0000     8     6      [5s1p|3s1p]                                        
  X           1    0.0000     1     1      [1s|1s]                                            
  ----------------------------------------------------------------------
  total:     18   51.0000   252   163
  ----------------------------------------------------------------------
  Spherical harmonic basis used.

  Threshold for neglecting AO integrals:  1.00D-12


  Cartesian Coordinates (a.u.)
  ----------------------------

  Total number of coordinates:   54
  N       :     1  x   0.0000000000    2  y   0.0000000000    3  z   0.0000000000
  H       :     4  x  -1.4613327714    5  y  -0.1300188266    6  z   1.3349157628
  H       :     7  x  -0.8183364498    8  y   0.2042964016    9  z  -1.7926603426
  H       :    10  x   1.2461307602   11  y  -1.5233668109   12  z   0.1797847641
  H       :    13  x   0.9420057966   14  y   1.7923863323   15  z   0.1957264937
  O       :    16  x   3.0075444814   17  y   4.1896002979   18  z   0.9275701787
  O       :    19  x  -1.1345840065   20  y   1.3671922850   21  z  -5.0706491989
  O       :    22  x  -3.8515075071   23  y  -0.7665277184   24  z   3.8466471315
  O       :    25  x   3.2796933892   26  y  -4.4330763913   27  z   0.5322186864
  H       :    28  x   1.9007999201   29  y   5.4486171006   30  z   1.8068635241
  H       :    31  x   4.0479256406   32  y   5.3889017550   33  z  -0.0328925729
  H       :    34  x   0.3527910805   35  y   0.6344642081   36  z  -6.0086242096
  H       :    37  x  -2.4606218360   38  y  -0.0280397562   39  z  -4.8612184113
  H       :    40  x  -4.8128943349   41  y   0.8317459464   42  z   4.0077122686
  H       :    43  x  -4.8932927329   44  y  -2.2444692926   45  z   3.2578935087
  H       :    46  x   2.2501894936   47  y  -5.3237761236   48  z   1.7752616342
  H       :    49  x   4.3965593236   50  y  -3.1183069987   51  z   1.2649410941
  X       :    52  x   0.0000000000   53  y   0.0000000000   54  z   0.0000000000

  Max    interatomic separation is    6.4604 Angstrom (   12.2083 Bohr)
  between atoms   15 and   11, "H     " and "H     ".

  Min HX interatomic separation is    0.9755 Angstrom (    1.8435 Bohr)

  Min YX interatomic separation is    2.7729 Angstrom (    5.2401 Bohr)


  Bond distances (Angstrom):
  --------------------------

                  atom 1     atom 2       distance
                  ------     ------       --------
  bond distance:  H          N            1.049640
  bond distance:  H          N            1.048391
  bond distance:  H          N            1.045820
  bond distance:  H          N            1.076499
  bond distance:  H          O            1.001693
  bond distance:  H          O            0.981935
  bond distance:  H          O            1.008075
  bond distance:  H          O            1.024598
  bond distance:  H          O            0.990662
  bond distance:  H          O            1.006308
  bond distance:  H          O            0.975522
  bond distance:  H          O            0.991821


  Bond angles (degrees):
  ----------------------

                  atom 1     atom 2     atom 3         angle
                  ------     ------     ------         -----
  bond angle:     H          N          H            108.144
  bond angle:     H          N          H            110.658
  bond angle:     H          N          H            109.521
  bond angle:     H          N          H            114.976
  bond angle:     H          N          H            100.805
  bond angle:     H          N          H            112.236
  bond angle:     H          O          H             97.954
  bond angle:     H          O          H            108.108
  bond angle:     H          O          H            114.131
  bond angle:     H          O          H            114.086




 Principal moments of inertia (u*A**2) and principal axes
 --------------------------------------------------------

   IA     353.726952         -0.267420   -0.617620    0.739616
   IB     417.694418          0.800888   -0.569262   -0.185791
   IC     450.906832          0.535784    0.542666    0.646877


 Rotational constants
 --------------------

               A                   B                   C

           1428.7263           1209.9252           1120.8058 MHz
            0.047657            0.040359            0.037386 cm-1


@  Nuclear repulsion energy :  198.792717418903 Hartree

  Number of floating/multiple basis set orbitals :    1


                     .---------------------------------------.
                     | Starting in Integral Section (HERMIT) |
                     `---------------------------------------'



 ***************************************************************************************
 ****************** Output from **INTEGRALS input processing (HERMIT) ******************
 ***************************************************************************************



    *************************************************************************
    ****************** Output from HERMIT input processing ******************
    *************************************************************************


 Default print level:        1

 * Nuclear model: Point charge

 Calculation of one- and two-electron Hamiltonian integrals.

 The following one-electron property integrals are calculated as requested:
          - overlap integrals
          - dipole length integrals

 Center of mass  (bohr):      0.238763894380      0.085047077797      0.054486023340
 Operator center (bohr):      0.000000000000      0.000000000000      0.000000000000
 Gauge origin    (bohr):      0.000000000000      0.000000000000      0.000000000000
 Dipole origin   (bohr):      0.000000000000      0.000000000000      0.000000000000
 
  *********************************** 
  QMMM electrostatic potential: 
  Multipole order                                    0
  Isotropic polarization  
  *********************************** 
 
  ---------------- 
  QMMM information 
  ---------------- 
 
  MM coordinates in au 
  -------------------- 
     1     -0.874456      6.808045     -3.363100
     2     -0.480771      5.074599     -2.847611
     3      0.512991      7.357231     -4.501307
     4      9.080988      7.904872     -9.983109
     5      7.315736      7.846428     -9.485722
     6      9.625180      6.114621     -9.796677
     7      4.398562      7.176267     -6.557979
     8      5.113693      8.117368     -5.102973
     9      4.401355      5.355896     -5.935828
    10     -5.571723     -1.573700     -3.008818
    11     -5.907376     -2.900257     -1.558024
    12     -7.183115     -0.607749     -2.906529
    13      6.678196     10.646844     -2.139642
    14      7.374737     10.465893     -0.417204
    15      8.154163     10.277591     -3.198794
    16     -7.749438     -8.847431     -5.013194
    17     -6.477259     -7.436337     -5.112457
    18     -7.617104     -9.285978     -6.752891
    19     11.095652     10.039278     -6.023111
    20     10.455864      9.230006     -7.707448
    21     11.386858     11.817839     -6.309964
    22     -3.627409     -8.775865      2.242795
    23     -2.830345     -9.558516      0.865260
    24     -4.895704     -9.864074      3.131420
    25      2.828038     -0.948251     -8.217107
    26      2.954334     -2.861697     -8.013178
    27      4.066243     -0.575786     -9.518775
    28      5.237930    -11.621088      3.562782
    29      6.214291    -10.030817      3.485932
    30      6.317455    -13.111562      3.888903
    31     -3.450562      4.177406     -9.137878
    32     -3.957994      2.706908    -10.276862
    33     -2.807046      3.452881     -7.473088
    34     -9.414512      1.893239     -2.778963
    35     -9.939553      1.931733     -0.930384
    36     -9.130730      3.686240     -3.143306
    37      9.208123     -7.731605     -6.578131
    38     10.599585     -6.593682     -7.107617
    39      8.292525     -6.953455     -5.092906
    40     10.730630     -0.473480     -6.334470
    41     11.493210     -2.121010     -6.973061
    42     12.064425      0.165897     -5.195689
    43      8.977983     -5.491310     -1.369116
    44      8.009338     -5.560239      0.189844
    45      9.542941     -3.751955     -1.472822
    46      8.642370      4.275500     -1.969087
    47      8.731470      5.982240     -1.237527
    48     10.469149      3.955493     -2.531286
    49      6.577874     -9.700688    -10.573345
    50      4.919256    -10.535716    -10.229964
    51      7.280841     -9.042466     -8.929769
    52     -5.112747      7.543341     -0.281203
    53     -3.913543      7.552682     -1.547878
    54     -6.623010      8.205692     -1.176235
    55    -11.629341      0.268356      2.120539
    56    -13.457985      0.586675      1.964130
    57    -11.225867      1.562182      3.443633
    58     -1.459267     11.430097     -6.654771
    59      0.009643     11.030834     -7.876864
    60     -3.006862     10.351748     -7.154497
    61     -9.673363      0.920782     10.473875
    62     -7.895147      0.426129     10.853139
    63    -10.114122     -0.902289     10.107382
    64      1.288105      0.168435      5.649763
    65      1.289655     -1.018553      7.229926
    66     -0.463427      0.364596      5.412623
    67    -10.463943     -9.052814     -0.626603
    68     -9.715917     -9.515119     -2.252909
    69    -11.801171     -7.744045     -0.949756
    70     -5.987741      8.495950     -8.340936
    71     -7.169007      8.178969     -6.856900
    72     -5.209529      6.886415     -8.809336
    73    -10.253658     -4.854939      9.153569
    74     -8.713259     -5.462439      9.800641
    75    -11.720223     -6.073697      9.238368
    76     -5.840726     -8.529145      9.961138
    77     -6.480196     -9.503300     11.389542
    78     -4.046085     -8.032935     10.130998
    79      0.842761      8.988537      2.245860
    80      2.504412      9.807875      2.442841
    81      0.436916      9.585356      0.589064
    82     -5.757780     -3.241640     -7.718116
    83     -4.444621     -4.658899     -8.108189
    84     -5.753838     -2.703280     -5.863015
    85      3.772436      4.386275      7.284271
    86      2.700882      2.953145      6.535300
    87      2.542874      5.248537      8.510506
    88      2.699504     -6.060427     -8.025334
    89      3.566025     -6.730025     -9.466003
    90      3.731960     -6.744053     -6.503029
    91     -0.877532     -2.664416     10.167770
    92     -0.525282     -4.542960      9.988238
    93      0.339461     -2.168582     11.470583
    94      0.390406      6.864415     10.736694
    95     -0.852083      7.494427      9.374546
    96     -0.557603      5.880006     11.924264
    97    -10.537270      8.785819      6.115794
    98    -11.407453      9.208316      7.704253
    99    -10.084142      6.982495      6.228312
   100    -11.055939     -4.778244      3.370259
   101    -10.837334     -4.863031      5.267818
   102    -10.981627     -2.919797      2.897321
   103     -8.129751    -10.696772     -9.936875
   104     -9.798810    -11.080810    -10.670187
   105     -7.386442    -12.381195     -9.778394
   106      8.847949     -7.485328      8.964967
   107      7.585024     -8.000808     10.267725
   108      8.182966     -6.833151      7.390581
   109     11.095623     11.193948     10.120988
   110      9.912377     10.458100     11.346023
   111     10.453500     12.849748      9.620964
   112     -6.273760     -4.501658      1.207166
   113     -5.074174     -5.963702      1.465148
   114     -8.042871     -5.092171      1.672746
   115      6.007959      1.130742     11.209434
   116      7.732090      1.879333     11.647153
   117      5.236690      2.675316     10.408237
   118      6.956983     -1.722476      7.357165
   119      8.611635     -2.430069      7.634337
   120      6.714841     -0.617434      8.949497
   121     -2.478620      8.182070      6.308123
   122     -1.486899      8.651635      4.862789
   123     -3.919970      9.450760      6.315385
   124      6.440472     -0.207337      2.414308
   125      6.227611     -0.219511      4.220240
   126      5.387330      1.124132      1.771469
   127     -9.961614      3.647370      5.831281
   128     -8.101331      3.427362      5.614223
   129    -10.187013      2.678520      7.516132
   130     10.213677      2.911089    -10.262500
   131      9.915758      1.773567     -8.841628
   132     11.739332      2.385458    -11.122877
   133      4.234547      2.726854     -4.438498
   134      4.474853      1.413186     -5.726921
   135      5.771834      2.839699     -3.268451
   136     -5.035733      4.299117      3.866281
   137     -5.359673      5.368574      2.268730
   138     -4.064200      5.443980      4.985207
   139     -5.114914     -0.226051    -11.433028
   140     -3.769212     -1.198016    -12.561329
   141     -5.666338     -1.357643    -10.086738
   142     -0.090524     -7.586311      9.779036
   143      0.184314     -7.393168      7.962093
   144      0.360121     -9.341338     10.044248
   145     -2.680803     -7.328934     -8.143656
   146     -2.549033     -9.093033     -7.460410
   147     -0.887117     -6.786469     -8.285582
   148    -10.483870     -4.539632     -8.643539
   149    -11.081643     -4.762643    -10.431007
   150     -8.621753     -4.534075     -8.603793
   151      2.553485     10.567216     -9.697453
   152      2.152971      9.334538    -11.080479
   153      2.687822      9.360656     -8.261830
   154      7.423602      7.004638      3.836354
   155      6.399756      6.042951      5.046822
   156      9.221085      7.121484      4.407792
   157      4.285389     -8.002476     -3.412407
   158      4.407323     -6.769864     -2.055871
   159      5.243446     -9.546709     -3.068205
   160      0.841697     -7.768880      4.532096
   161      1.800667     -9.369765      4.301601
   162     -0.813436     -8.531046      3.832816
   163      7.456326     -5.929207      3.468233
   164      6.350340     -4.791807      4.302018
   165      9.163291     -5.063412      3.413025
   166     -9.714916      7.693619     -2.491147
   167    -10.442700      8.881082     -3.903980
   168    -10.708003      8.442266     -1.104216
   169     -6.101020     11.415051      5.579535
   170     -7.793671     10.944564      5.010443
   171     -6.437707     12.525889      7.056721
   172     10.991382     10.366554      1.000629
   173     11.687967     12.074311      0.467613
   174     11.508956     10.245587      2.816971
   175     -0.081819    -10.542958     -1.529410
   176     -0.695954    -10.772713     -3.278087
   177      1.292248     -9.366855     -2.074392
 
  MM charges 
  ---------- 
     1     -0.674440
     2      0.337220
     3      0.337220
     4     -0.674440
     5      0.337220
     6      0.337220
     7     -0.674440
     8      0.337220
     9      0.337220
    10     -0.674440
    11      0.337220
    12      0.337220
    13     -0.674440
    14      0.337220
    15      0.337220
    16     -0.674440
    17      0.337220
    18      0.337220
    19     -0.674440
    20      0.337220
    21      0.337220
    22     -0.674440
    23      0.337220
    24      0.337220
    25     -0.674440
    26      0.337220
    27      0.337220
    28     -0.674440
    29      0.337220
    30      0.337220
    31     -0.674440
    32      0.337220
    33      0.337220
    34     -0.674440
    35      0.337220
    36      0.337220
    37     -0.674440
    38      0.337220
    39      0.337220
    40     -0.674440
    41      0.337220
    42      0.337220
    43     -0.674440
    44      0.337220
    45      0.337220
    46     -0.674440
    47      0.337220
    48      0.337220
    49     -0.674440
    50      0.337220
    51      0.337220
    52     -0.674440
    53      0.337220
    54      0.337220
    55     -0.674440
    56      0.337220
    57      0.337220
    58     -0.674440
    59      0.337220
    60      0.337220
    61     -0.674440
    62      0.337220
    63      0.337220
    64     -0.674440
    65      0.337220
    66      0.337220
    67     -0.674440
    68      0.337220
    69      0.337220
    70     -0.674440
    71      0.337220
    72      0.337220
    73     -0.674440
    74      0.337220
    75      0.337220
    76     -0.674440
    77      0.337220
    78      0.337220
    79     -0.674440
    80      0.337220
    81      0.337220
    82     -0.674440
    83      0.337220
    84      0.337220
    85     -0.674440
    86      0.337220
    87      0.337220
    88     -0.674440
    89      0.337220
    90      0.337220
    91     -0.674440
    92      0.337220
    93      0.337220
    94     -0.674440
    95      0.337220
    96      0.337220
    97     -0.674440
    98      0.337220
    99      0.337220
   100     -0.674440
   101      0.337220
   102      0.337220
   103     -0.674440
   104      0.337220
   105      0.337220
   106     -0.674440
   107      0.337220
   108      0.337220
   109     -0.674440
   110      0.337220
   111      0.337220
   112     -0.674440
   113      0.337220
   114      0.337220
   115     -0.674440
   116      0.337220
   117      0.337220
   118     -0.674440
   119      0.337220
   120      0.337220
   121     -0.674440
   122      0.337220
   123      0.337220
   124     -0.674440
   125      0.337220
   126      0.337220
   127     -0.674440
   128      0.337220
   129      0.337220
   130     -0.674440
   131      0.337220
   132      0.337220
   133     -0.674440
   134      0.337220
   135      0.337220
   136     -0.674440
   137      0.337220
   138      0.337220
   139     -0.674440
   140      0.337220
   141      0.337220
   142     -0.674440
   143      0.337220
   144      0.337220
   145     -0.674440
   146      0.337220
   147      0.337220
   148     -0.674440
   149      0.337220
   150      0.337220
   151     -0.674440
   152      0.337220
   153      0.337220
   154     -0.674440
   155      0.337220
   156      0.337220
   157     -0.674440
   158      0.337220
   159      0.337220
   160     -0.674440
   161      0.337220
   162      0.337220
   163     -0.674440
   164      0.337220
   165      0.337220
   166     -0.674440
   167      0.337220
   168      0.337220
   169     -0.674440
   170      0.337220
   171      0.337220
   172     -0.674440
   173      0.337220
   174      0.337220
   175     -0.674440
   176      0.337220
   177      0.337220
 
  MM isotropic polarizabilities in au 
  ----------------------------------- 
     1      5.739350
     2      2.308390
     3      2.308390
     4      5.739350
     5      2.308390
     6      2.308390
     7      5.739350
     8      2.308390
     9      2.308390
    10      5.739350
    11      2.308390
    12      2.308390
    13      5.739350
    14      2.308390
    15      2.308390
    16      5.739350
    17      2.308390
    18      2.308390
    19      5.739350
    20      2.308390
    21      2.308390
    22      5.739350
    23      2.308390
    24      2.308390
    25      5.739350
    26      2.308390
    27      2.308390
    28      5.739350
    29      2.308390
    30      2.308390
    31      5.739350
    32      2.308390
    33      2.308390
    34      5.739350
    35      2.308390
    36      2.308390
    37      5.739350
    38      2.308390
    39      2.308390
    40      5.739350
    41      2.308390
    42      2.308390
    43      5.739350
    44      2.308390
    45      2.308390
    46      5.739350
    47      2.308390
    48      2.308390
    49      5.739350
    50      2.308390
    51      2.308390
    52      5.739350
    53      2.308390
    54      2.308390
    55      5.739350
    56      2.308390
    57      2.308390
    58      5.739350
    59      2.308390
    60      2.308390
    61      5.739350
    62      2.308390
    63      2.308390
    64      5.739350
    65      2.308390
    66      2.308390
    67      5.739350
    68      2.308390
    69      2.308390
    70      5.739350
    71      2.308390
    72      2.308390
    73      5.739350
    74      2.308390
    75      2.308390
    76      5.739350
    77      2.308390
    78      2.308390
    79      5.739350
    80      2.308390
    81      2.308390
    82      5.739350
    83      2.308390
    84      2.308390
    85      5.739350
    86      2.308390
    87      2.308390
    88      5.739350
    89      2.308390
    90      2.308390
    91      5.739350
    92      2.308390
    93      2.308390
    94      5.739350
    95      2.308390
    96      2.308390
    97      5.739350
    98      2.308390
    99      2.308390
   100      5.739350
   101      2.308390
   102      2.308390
   103      5.739350
   104      2.308390
   105      2.308390
   106      5.739350
   107      2.308390
   108      2.308390
   109      5.739350
   110      2.308390
   111      2.308390
   112      5.739350
   113      2.308390
   114      2.308390
   115      5.739350
   116      2.308390
   117      2.308390
   118      5.739350
   119      2.308390
   120      2.308390
   121      5.739350
   122      2.308390
   123      2.308390
   124      5.739350
   125      2.308390
   126      2.308390
   127      5.739350
   128      2.308390
   129      2.308390
   130      5.739350
   131      2.308390
   132      2.308390
   133      5.739350
   134      2.308390
   135      2.308390
   136      5.739350
   137      2.308390
   138      2.308390
   139      5.739350
   140      2.308390
   141      2.308390
   142      5.739350
   143      2.308390
   144      2.308390
   145      5.739350
   146      2.308390
   147      2.308390
   148      5.739350
   149      2.308390
   150      2.308390
   151      5.739350
   152      2.308390
   153      2.308390
   154      5.739350
   155      2.308390
   156      2.308390
   157      5.739350
   158      2.308390
   159      2.308390
   160      5.739350
   161      2.308390
   162      2.308390
   163      5.739350
   164      2.308390
   165      2.308390
   166      5.739350
   167      2.308390
   168      2.308390
   169      5.739350
   170      2.308390
   171      2.308390
   172      5.739350
   173      2.308390
   174      2.308390
   175      5.739350
   176      2.308390
   177      2.308390


     ************************************************************************
     ************************** Output from HERINT **************************
     ************************************************************************



                      Nuclear contribution to dipole moments
                      --------------------------------------

                 au               Debye          C m (/(10**-30)

      x     11.09909475        28.21108309        94.10204405
      y      4.78994172        12.17481668        40.61081712
      z      3.01399790         7.66081802        25.55373833



 Threshold for neglecting two-electron integrals:  1.00D-12
 HERMIT - Number of two-electron integrals written:    38062878 ( 42.6% )
 HERMIT - Megabytes written:                            435.843

  Time used in TWOINT     is       8.09 seconds
  Total CPU  time used in HERMIT:   8.28 seconds
  Total wall time used in HERMIT:   9.13 seconds


                        .----------------------------------.
                        | End of Integral Section (HERMIT) |
                        `----------------------------------'



                   .--------------------------------------------.
                   | Starting in Wave Function Section (SIRIUS) |
                   `--------------------------------------------'

NCCEXCI for singlet:    1
 CCSD_INPUT: core-val requested
 Requested number of virtual orbs per sym
                     1
 Indices of requested virtual orbs
                     1
 CCSD_INPUT: core-val requested
 Requested number of core orbs per sym
                     1
 Indices of requested core orbs
                     1

 *** Output from Huckel module :

     Using EWMO model:          T
     Using EHT  model:          F
     Number of Huckel orbitals each symmetry:   37

 EWMO - Energy Weighted Maximum Overlap - is a Huckel type method,
        which normally is better than Extended Huckel Theory.
 Reference: Linderberg and Ohrn, Propagators in Quantum Chemistry (Wiley, 1973)

 Huckel EWMO eigenvalues for symmetry :  1
          -20.684644     -20.684567     -20.684419     -20.684192     -15.675062
           -1.813918      -1.614075      -1.603049      -1.595860      -1.458502
           -0.823110      -0.813493      -0.799964      -0.790774      -0.771822
           -0.743450      -0.736635      -0.685866      -0.673840      -0.665229
           -0.650204      -0.612296      -0.563370      -0.561637      -0.554414
           -0.265459      -0.249558      -0.244683      -0.240130      -0.186992
           -0.180499      -0.178829      -0.176609      -0.173191      -0.149365
           -0.145950      -0.140146

 **********************************************************************
 *SIRIUS* a direct, restricted step, second order MCSCF program       *
 **********************************************************************

 
     Date and time (Linux)  : Sun Dec  2 17:03:51 2018
     Host name              : n-62-23-21                              

 Title lines from ".mol" input file:
                                                                             
                                                                             

 Print level on unit LUPRI =   2 is   0
 Print level on unit LUW4  =   2 is  11

@    (Integral direct) CC calculation.

@    This is a combination run starting with
@              a restricted, closed shell Hartree-Fock calculation


 Initial molecular orbitals are obtained according to
 ".MOSTART EWMO  " input option

@    QM part is embedded in an environment :

@         Model: QMMM

     Wave function specification
     ============================

     For the specification of the Coupled Cluster: see later.

@    Wave function type        --- CC ---
@    Number of closed shell electrons          50
@    Number of electrons in active shells       0
@    Total charge of the molecule               1

@    Spin multiplicity and 2 M_S                1         0
@    Total number of symmetries                 1 (point group: C1 )
@    Reference state symmetry                   1 (irrep name : A  )

     Orbital specifications
     ======================
@    Abelian symmetry species          All |    1
@                                          |  A  
                                       --- |  ---
@    Occupied SCF orbitals              25 |   25
@    Secondary orbitals                138 |  138
@    Total number of orbitals          163 |  163
@    Number of basis functions         163 |  163

     Optimization information
     ========================
@    Number of configurations                 1
@    Number of orbital rotations           3450
     ------------------------------------------
@    Total number of variables             3451

     Maximum number of Fock   iterations      0
     Maximum number of DIIS   iterations     60
     Maximum number of QC-SCF iterations     60
     Threshold for SCF convergence     1.00D-07


 Changes of defaults for CC:
 ---------------------------


 -Implicit frozen core calculation
 -Excitation energies calculated
 -One-photon absorption strengths will be calculated
 -Oscillator strengths calculated
  
* Read MO coefficients from SIRIUS.RST with label "NEWORB  " and header info:  2Dec18  REORTHO 


 ***********************************************
 ***** DIIS acceleration of SCF iterations *****
 ***********************************************

 C1-DIIS algorithm; max error vectors =    8
 -----------------------------------------------------------------------------

 *** DIIS iteration number    1
 RDSUPM called. NFMAT, ISYMDM(1:NFMAT)                     1
                     1

Calculating AOSUPINT
     (Precalculated two-electron integrals are transformed to P-supermatrix elements.
      Threshold for discarding integrals :  1.00D-12 )
  CPU  time used in FORMSUP    is   5.41 seconds
  WALL time used in FORMSUP    is  18.55 seconds

 ITDIIS, energy, error norm, change in energy, scr.thr., difden:
@ DIIS iter.   1    -360.263765199        3.92224D+00   -3.60D+02  -20    F

 (DIIS_RED) Control Parameters C2DIIS =         F NEVC =    1


 (DIIS_RED) B matrix:

               Column   1
       1      15.38397767
    ==== End of matrix output ====

 DIIS C vector; C2DIIS = F, LAMBDA = -1.54D+01
    1.000000
* Read MO coefficients from SIRIUS.RST with label "NEWORB  " and header info:  2Dec18  DIIS   1
      Virial theorem: -V/T =      2.002993
@      MULPOP N       0.07; H       0.16; H       0.18; H       0.16; H       0.17; O      -0.57; O      -0.61; O      -0.59; O      -0.61; H       0.33; 
@             H       0.31; H       0.33; H       0.34; H       0.33; H       0.33; H       0.33; H       0.34; 
   1  Level shift: doubly occupied orbital energies shifted by -2.00D-01

 DIIS Fock eigenvalues in symmetry 1
      -20.84934      -20.83511      -20.79945      -20.79064      -16.42965
       -1.71335       -1.67063       -1.65374       -1.61297       -1.60743
       -1.20469       -1.18449       -1.17110       -1.06650       -1.01580
       -0.99971       -0.99272       -0.91012       -0.90910       -0.87850
       -0.86022       -0.85852       -0.85332       -0.83111       -0.82274
       -0.00827       -0.00005        0.04820        0.06074        0.07911
        0.12848        0.14206        0.15303        0.16643        0.18708
        0.19352        0.20469        0.20527        0.25425        0.27059
        0.28462        0.41870        0.43088        0.44726        0.45765
        0.47647        0.48854        0.49014        0.49869        0.51261
        0.70262        0.72530        0.73858        0.83524        0.85023
        0.88738        0.89817        0.93855        0.95267        0.96801
        0.98947        1.00595        1.01735        1.03242        1.04914
        1.05649        1.08069        1.10330        1.23026        1.23908
        1.26909        1.30790        1.31940        1.35742        1.37442
        1.37653        1.41692        1.43934        1.47343        1.49907
        1.51430        1.53050        1.55695        1.60000        1.62078
        1.66364        1.67523        1.72612        1.73679        1.73966
        1.82366        1.92434        1.99715        2.01723        2.03846
        2.07798        2.10964        2.12078        2.14255        2.15789
        2.16162        2.20774        2.21582        2.21986        2.23449
        2.40886        2.44491        2.47527        2.52134        2.53401
        2.55172        2.58995        2.61818        2.62535        2.65567
        2.69081        2.71565        2.74816        2.75978        3.00626
        3.04017        3.06010        3.09959        3.29757        3.31411
        3.33119        3.34147        3.38391        3.39048        3.42369
        3.44559        3.47233        3.49653        3.51297        3.52314
        3.82935        3.91701        3.94875        3.95889        4.00913
        4.04898        4.06736        4.12523        4.65333        4.77158
        4.82969        5.24083        5.30443        5.32753        5.36064
        5.59990        5.63568        5.69929        5.76985        5.91241
        5.95510        6.02175        6.02955       36.36947       51.43675
       51.45453       51.46733       51.47948
 Time used in FCKEIG, thr_jaco:   4.70D-02  5.00D-02  1.67D-04
 CPU and wall times used in FCKEIG, THR_FCKEIG:   4.70D-02  5.00D-02  3.92D-02
 -----------------------------------------------------------------------------

 *** DIIS iteration number    2
 RDSUPM called. NFMAT, ISYMDM(1:NFMAT)                     1
                     1

 ITDIIS, energy, error norm, change in energy, scr.thr., difden:
@ DIIS iter.   2    -361.132694094        1.10668D+00   -8.69D-01  -20    F

 (DIIS_RED) Control Parameters C2DIIS =         F NEVC =    2


 (DIIS_RED) B matrix:

               Column   1     Column   2
       1      15.38397767
       2       0.81200195     1.22474925
    ==== End of matrix output ====

 DIIS C vector; C2DIIS = F, LAMBDA = -1.21D+00
    0.027545    0.972455
* Read MO coefficients from SIRIUS.RST with label "NEWORB  " and header info:  2Dec18  DIIS   2
      Virial theorem: -V/T =      2.003328
@      MULPOP N      -0.54; H       0.32; H       0.31; H       0.30; H       0.34; O      -0.52; O      -0.56; O      -0.61; O      -0.58; H       0.31; 
@             H       0.28; H       0.32; H       0.31; H       0.33; H       0.34; H       0.32; H       0.32; 
   2  Level shift: doubly occupied orbital energies shifted by -1.00D-01

 DIIS Fock eigenvalues in symmetry 1
      -20.80305      -20.78889      -20.78587      -20.74716      -15.63885
       -1.56551       -1.54746       -1.52018       -1.50212       -1.37449
       -0.94679       -0.90142       -0.89144       -0.87930       -0.87497
       -0.86677       -0.85161       -0.80575       -0.78300       -0.76979
       -0.74910       -0.74144       -0.72255       -0.70682       -0.68882
       -0.00005        0.05148        0.08658        0.10450        0.11827
        0.15305        0.16710        0.19460        0.21033        0.21947
        0.27409        0.29523        0.30001        0.34709        0.35635
        0.37055        0.45461        0.46198        0.47905        0.49759
        0.51625        0.52496        0.53615        0.54608        0.59049
        0.81979        0.84626        0.86231        0.87584        0.90308
        0.93549        0.94573        0.97767        0.98737        1.00950
        1.01828        1.03709        1.04324        1.06759        1.09002
        1.15035        1.19066        1.20082        1.28198        1.28805
        1.33173        1.36635        1.37520        1.40425        1.42684
        1.43744        1.47806        1.50837        1.54458        1.56394
        1.60571        1.62390        1.63256        1.66962        1.69198
        1.72616        1.74071        1.78125        1.79505        1.81519
        1.89114        2.02444        2.06966        2.09930        2.11819
        2.12389        2.16078        2.19581        2.20529        2.22947
        2.25713        2.27590        2.30743        2.33117        2.35955
        2.50240        2.55129        2.55712        2.61115        2.62164
        2.64982        2.68424        2.70843        2.72513        2.73883
        2.77132        2.82532        2.91167        2.97305        3.18066
        3.22742        3.26834        3.30051        3.34140        3.36032
        3.37095        3.39178        3.41356        3.42805        3.44813
        3.49957        3.52102        3.52409        3.52872        3.54947
        3.84851        3.92415        3.97367        3.98268        4.03175
        4.07146        4.07377        4.14448        5.03196        5.14526
        5.20301        5.24014        5.30580        5.32459        5.33581
        5.59802        5.62067        5.70284        5.76999        5.92516
        5.94518        6.03719        6.04598       37.04473       51.37437
       51.38569       51.40443       51.43338
 Time used in FCKEIG, thr_jaco:   3.10D-02  3.50D-02  4.71D-05
 CPU and wall times used in FCKEIG, THR_FCKEIG:   3.10D-02  3.50D-02  1.11D-02
 -----------------------------------------------------------------------------

 *** DIIS iteration number    3
 RDSUPM called. NFMAT, ISYMDM(1:NFMAT)                     1
                     1

 ITDIIS, energy, error norm, change in energy, scr.thr., difden:
@ DIIS iter.   3    -361.205060700        3.76983D-01   -7.24D-02  -20    F

 (DIIS_RED) Control Parameters C2DIIS =         F NEVC =    3


 (DIIS_RED) B matrix:

               Column   1     Column   2     Column   3
       1      15.38397767
       2       0.81200195     1.22474925
       3       0.80455302    -0.00952085     0.14211641
    ==== End of matrix output ====

 DIIS C vector; C2DIIS = F, LAMBDA = -9.23D-02
   -0.048914    0.115028    0.933886
* Read MO coefficients from SIRIUS.RST with label "NEWORB  " and header info:  2Dec18  DIIS   3
      Virial theorem: -V/T =      2.003525
@      MULPOP N      -0.36; H       0.30; H       0.28; H       0.27; H       0.31; O      -0.58; O      -0.63; O      -0.67; O      -0.63; H       0.33; 
@             H       0.30; H       0.35; H       0.33; H       0.36; H       0.37; H       0.34; H       0.34; 
   3  Level shift: doubly occupied orbital energies shifted by -5.00D-02

 DIIS Fock eigenvalues in symmetry 1
      -20.71256      -20.69076      -20.67393      -20.65912      -15.79488
       -1.49759       -1.47630       -1.44577       -1.43581       -1.37673
       -0.88142       -0.86622       -0.84896       -0.84284       -0.81407
       -0.81208       -0.80173       -0.73378       -0.72323       -0.69262
       -0.67865       -0.67188       -0.64912       -0.63147       -0.61794
       -0.00005        0.05662        0.09294        0.11057        0.12371
        0.15825        0.17269        0.20072        0.21078        0.22409
        0.27434        0.29350        0.29953        0.34375        0.35545
        0.36602        0.46613        0.47370        0.49169        0.50718
        0.52630        0.53495        0.54535        0.55615        0.58852
        0.82077        0.83812        0.85695        0.88565        0.91163
        0.93582        0.95248        0.99165        1.00173        1.02102
        1.03039        1.05041        1.05814        1.08324        1.10390
        1.15266        1.18158        1.19723        1.29228        1.29917
        1.34301        1.37941        1.38451        1.41820        1.44001
        1.45075        1.48906        1.51732        1.55219        1.57368
        1.61258        1.62724        1.64111        1.67579        1.69994
        1.73854        1.74844        1.79429        1.80471        1.82245
        1.90152        2.02760        2.08279        2.10691        2.12766
        2.13760        2.17690        2.21002        2.21576        2.23988
        2.26899        2.29488        2.30281        2.33003        2.35509
        2.51062        2.55603        2.56491        2.62118        2.62915
        2.65655        2.69045        2.71457        2.73092        2.74619
        2.77984        2.82777        2.88292        2.94190        3.17695
        3.20821        3.24831        3.29496        3.36649        3.37489
        3.38972        3.39583        3.43460        3.44027        3.47243
        3.52094        3.53323        3.54874        3.55675        3.57737
        3.87658        3.95540        3.99837        4.00647        4.05887
        4.09909        4.10600        4.17448        4.94849        5.06389
        5.12478        5.27383        5.33491        5.35554        5.37693
        5.62952        5.65662        5.73084        5.80537        5.96038
        5.98736        6.06856        6.07533       36.84476       51.42613
       51.43597       51.45265       51.47177
 Time used in FCKEIG, thr_jaco:   2.80D-02  3.00D-02  1.60D-05
 CPU and wall times used in FCKEIG, THR_FCKEIG:   2.80D-02  3.00D-02  3.77D-03
 -----------------------------------------------------------------------------

 *** DIIS iteration number    4
 RDSUPM called. NFMAT, ISYMDM(1:NFMAT)                     1
                     1

 ITDIIS, energy, error norm, change in energy, scr.thr., difden:
@ DIIS iter.   4    -361.215036471        9.32584D-02   -9.98D-03  -20    F

 (DIIS_RED) Control Parameters C2DIIS =         F NEVC =    4


 (DIIS_RED) B matrix:

               Column   1     Column   2     Column   3     Column   4
       1      15.38397767
       2       0.81200195     1.22474925
       3       0.80455302    -0.00952085     0.14211641
       4       0.04410794     0.07647339     0.00200065     0.00869713
    ==== End of matrix output ====

 DIIS C vector; C2DIIS = F, LAMBDA = -4.42D-03
   -0.000148   -0.061671    0.013075    1.048744
* Read MO coefficients from SIRIUS.RST with label "NEWORB  " and header info:  2Dec18  DIIS   4
      Virial theorem: -V/T =      2.003661
@      MULPOP N      -0.44; H       0.31; H       0.29; H       0.28; H       0.33; O      -0.58; O      -0.63; O      -0.69; O      -0.64; H       0.34; 
@             H       0.30; H       0.36; H       0.33; H       0.37; H       0.37; H       0.34; H       0.35; 
   4  Level shift: doubly occupied orbital energies shifted by -1.25D-02

 DIIS Fock eigenvalues in symmetry 1
      -20.68713      -20.66917      -20.65656      -20.63475      -15.72705
       -1.46419       -1.44415       -1.41516       -1.40313       -1.32867
       -0.84575       -0.82138       -0.80509       -0.79833       -0.78000
       -0.77844       -0.76667       -0.69763       -0.68687       -0.65964
       -0.64292       -0.63427       -0.61283       -0.59628       -0.58104
       -0.00005        0.05702        0.09200        0.10944        0.12261
        0.15821        0.17207        0.20001        0.21224        0.22319
        0.27666        0.29622        0.30269        0.34904        0.35972
        0.37150        0.46546        0.47352        0.49030        0.50637
        0.52485        0.53374        0.54401        0.55440        0.59255
        0.82436        0.84294        0.86190        0.88587        0.91319
        0.93801        0.95342        0.99056        1.00058        1.02010
        1.02988        1.04894        1.05720        1.08076        1.10158
        1.15425        1.18614        1.20092        1.29282        1.29860
        1.34318        1.37838        1.38495        1.41708        1.43750
        1.44895        1.48839        1.51728        1.55265        1.57294
        1.61525        1.63008        1.64212        1.67615        1.70122
        1.73779        1.74879        1.79245        1.80368        1.82417
        1.90091        2.03043        2.08172        2.10819        2.12974
        2.13454        2.17499        2.20706        2.21625        2.24039
        2.26761        2.29114        2.30605        2.33290        2.35953
        2.51118        2.55892        2.56558        2.62236        2.63119
        2.65862        2.69301        2.71545        2.73187        2.74606
        2.77933        2.82960        2.89096        2.95135        3.18265
        3.21552        3.25559        3.29979        3.36261        3.37594
        3.38581        3.39575        3.43220        3.43687        3.46873
        3.51908        3.53256        3.54544        3.55114        3.57339
        3.87208        3.94939        3.99537        4.00246        4.05595
        4.09529        4.09989        4.17014        4.96475        5.08007
        5.14062        5.26608        5.32840        5.34978        5.36694
        5.62364        5.64810        5.72466        5.79765        5.95216
        5.97678        6.06251        6.06828       36.87472       51.41401
       51.41678       51.43707       51.45889
 Time used in FCKEIG, thr_jaco:   2.60D-02  2.90D-02  3.97D-06
 CPU and wall times used in FCKEIG, THR_FCKEIG:   2.60D-02  2.90D-02  9.33D-04
 -----------------------------------------------------------------------------

 *** DIIS iteration number    5
 RDSUPM called. NFMAT, ISYMDM(1:NFMAT)                     1
                     1

 ITDIIS, energy, error norm, change in energy, scr.thr., difden:
@ DIIS iter.   5    -361.215971577        2.94581D-02   -9.35D-04  -20    F

 (DIIS_RED) Control Parameters C2DIIS =         F NEVC =    5


 (DIIS_RED) B matrix:

               Column   1     Column   2     Column   3     Column   4     Column   5
       1      15.38397767
       2       0.81200195     1.22474925
       3       0.80455302    -0.00952085     0.14211641
       4       0.04410794     0.07647339     0.00200065     0.00869713
       5       0.02150737     0.00767813     0.00538921     0.00062857     0.00086778
    ==== End of matrix output ====

 DIIS C vector; C2DIIS = F, LAMBDA = -5.77D-04
    0.001297   -0.014743   -0.041114    0.132151    0.922409
* Read MO coefficients from SIRIUS.RST with label "NEWORB  " and header info:  2Dec18  DIIS   5
      Virial theorem: -V/T =      2.003245
@      MULPOP N      -0.43; H       0.31; H       0.29; H       0.28; H       0.33; O      -0.60; O      -0.64; O      -0.70; O      -0.66; H       0.34; 
@             H       0.31; H       0.36; H       0.34; H       0.38; H       0.38; H       0.35; H       0.36; 

 DIIS Fock eigenvalues in symmetry 1
      -20.66867      -20.64940      -20.63519      -20.61624      -15.70974
       -1.44954       -1.42906       -1.39955       -1.38861       -1.31432
       -0.83188       -0.80715       -0.79077       -0.78402       -0.76611
       -0.76415       -0.75211       -0.68313       -0.67242       -0.64447
       -0.62849       -0.61897       -0.59714       -0.58006       -0.56568
       -0.00005        0.05750        0.09231        0.10981        0.12287
        0.15851        0.17236        0.20044        0.21296        0.22336
        0.27744        0.29709        0.30360        0.35021        0.36080
        0.37262        0.46610        0.47415        0.49110        0.50697
        0.52539        0.53430        0.54443        0.55496        0.59358
        0.82579        0.84434        0.86332        0.88763        0.91486
        0.93965        0.95514        0.99182        1.00209        1.02123
        1.03154        1.05061        1.05874        1.08236        1.10290
        1.15575        1.18749        1.20228        1.29410        1.30016
        1.34421        1.37927        1.38632        1.41804        1.43771
        1.44958        1.48921        1.51824        1.55352        1.57350
        1.61606        1.63099        1.64291        1.67678        1.70192
        1.73810        1.74947        1.79273        1.80383        1.82514
        1.90129        2.03154        2.08271        2.10925        2.13084
        2.13561        2.17569        2.20752        2.21734        2.24137
        2.26835        2.29220        2.30704        2.33409        2.36063
        2.51182        2.55974        2.56619        2.62299        2.63186
        2.65913        2.69378        2.71604        2.73223        2.74635
        2.77958        2.83031        2.89245        2.95309        3.18405
        3.21761        3.25775        3.30220        3.36530        3.37827
        3.38851        3.39835        3.43448        3.43999        3.47084
        3.52133        3.53504        3.54759        3.55433        3.57601
        3.87477        3.95259        3.99754        4.00449        4.05835
        4.09758        4.10337        4.17299        4.96744        5.08272
        5.14335        5.27046        5.33201        5.35358        5.37213
        5.62739        5.65262        5.72801        5.80169        5.95597
        5.98148        6.06563        6.07131       36.87943       51.42016
       51.42523       51.44426       51.46486
 Time used in FCKEIG, thr_jaco:   2.30D-02  2.60D-02  1.25D-06
 CPU and wall times used in FCKEIG, THR_FCKEIG:   2.30D-02  2.60D-02  2.95D-04
 -----------------------------------------------------------------------------

 *** DIIS iteration number    6
 RDSUPM called. NFMAT, ISYMDM(1:NFMAT)                     1
                     1

 ITDIIS, energy, error norm, change in energy, scr.thr., difden:
@ DIIS iter.   6    -361.216052328        1.04351D-02   -8.08D-05  -20    F

 (DIIS_RED) Control Parameters C2DIIS =         F NEVC =    6


 (DIIS_RED) B matrix:

               Column   1     Column   2     Column   3     Column   4     Column   5     Column   6
       1      15.38397767
       2       0.81200195     1.22474925
       3       0.80455302    -0.00952085     0.14211641
       4       0.04410794     0.07647339     0.00200065     0.00869713
       5       0.02150737     0.00767813     0.00538921     0.00062857     0.00086778
       6      -0.00473337     0.00002078     0.00072975     0.00053317     0.00001641     0.00010889
    ==== End of matrix output ====

 DIIS C vector; C2DIIS = F, LAMBDA = -3.47D-05
    0.000761    0.006669   -0.011000   -0.126374    0.102538    1.027406
* Read MO coefficients from SIRIUS.RST with label "NEWORB  " and header info:  2Dec18  DIIS   6
      Virial theorem: -V/T =      2.003501
@      MULPOP N      -0.42; H       0.31; H       0.29; H       0.28; H       0.33; O      -0.60; O      -0.64; O      -0.70; O      -0.66; H       0.34; 
@             H       0.31; H       0.36; H       0.34; H       0.38; H       0.38; H       0.35; H       0.36; 

 DIIS Fock eigenvalues in symmetry 1
      -20.67015      -20.65130      -20.63764      -20.61796      -15.71185
       -1.44991       -1.42956       -1.40021       -1.38913       -1.31486
       -0.83241       -0.80765       -0.79129       -0.78451       -0.76679
       -0.76474       -0.75273       -0.68363       -0.67321       -0.64534
       -0.62910       -0.61910       -0.59743       -0.58041       -0.56590
       -0.00005        0.05740        0.09216        0.10964        0.12269
        0.15840        0.17224        0.20029        0.21282        0.22318
        0.27736        0.29700        0.30344        0.35004        0.36064
        0.37244        0.46591        0.47397        0.49087        0.50676
        0.52512        0.53405        0.54416        0.55468        0.59340
        0.82550        0.84398        0.86299        0.88734        0.91455
        0.93938        0.95483        0.99148        1.00173        1.02082
        1.03122        1.05020        1.05852        1.08205        1.10256
        1.15547        1.18718        1.20204        1.29384        1.29984
        1.34393        1.37897        1.38603        1.41773        1.43729
        1.44927        1.48892        1.51794        1.55324        1.57315
        1.61590        1.63079        1.64268        1.67647        1.70173
        1.73785        1.74921        1.79246        1.80350        1.82493
        1.90105        2.03134        2.08236        2.10900        2.13062
        2.13518        2.17527        2.20696        2.21706        2.24107
        2.26793        2.29178        2.30668        2.33375        2.36036
        2.51156        2.55957        2.56595        2.62274        2.63168
        2.65894        2.69364        2.71572        2.73187        2.74601
        2.77928        2.82996        2.89197        2.95259        3.18385
        3.21704        3.25714        3.30154        3.36462        3.37772
        3.38783        3.39767        3.43394        3.43919        3.47015
        3.52083        3.53441        3.54696        3.55354        3.57532
        3.87410        3.95173        3.99698        4.00377        4.05780
        4.09688        4.10248        4.17227        4.96645        5.08173
        5.14239        5.26945        5.33108        5.35278        5.37087
        5.62648        5.65145        5.72704        5.80063        5.95491
        5.98014        6.06479        6.07029       36.87736       51.41864
       51.42288       51.44237       51.46316
 Time used in FCKEIG, thr_jaco:   2.40D-02  2.70D-02  4.44D-07
 CPU and wall times used in FCKEIG, THR_FCKEIG:   2.40D-02  2.70D-02  1.04D-04
 -----------------------------------------------------------------------------

 *** DIIS iteration number    7
 RDSUPM called. NFMAT, ISYMDM(1:NFMAT)                     1
                     1

 ITDIIS, energy, error norm, change in energy, scr.thr., difden:
@ DIIS iter.   7    -361.216064578        2.23633D-03   -1.23D-05  -20    F

 (DIIS_RED) Control Parameters C2DIIS =         F NEVC =    7


 (DIIS_RED) B matrix:

               Column   1     Column   2     Column   3     Column   4     Column   5     Column   6
       1      15.38397767
       2       0.81200195     1.22474925
       3       0.80455302    -0.00952085     0.14211641
       4       0.04410794     0.07647339     0.00200065     0.00869713
       5       0.02150737     0.00767813     0.00538921     0.00062857     0.00086778
       6      -0.00473337     0.00002078     0.00072975     0.00053317     0.00001641     0.00010889
       7       0.00028905     0.00016644     0.00001502     0.00000491     0.00004628     0.00000220

               Column   7
       7       0.00000500
    ==== End of matrix output ====

 DIIS C vector; C2DIIS = F, LAMBDA = -1.21D-06
   -0.000245   -0.000822    0.005472    0.023780   -0.099164   -0.162442    1.233421
* Read MO coefficients from SIRIUS.RST with label "NEWORB  " and header info:  2Dec18  DIIS   7
      Virial theorem: -V/T =      2.003444
@      MULPOP N      -0.42; H       0.31; H       0.29; H       0.28; H       0.33; O      -0.60; O      -0.64; O      -0.70; O      -0.66; H       0.34; 
@             H       0.31; H       0.36; H       0.34; H       0.38; H       0.38; H       0.35; H       0.36; 

 DIIS Fock eigenvalues in symmetry 1
      -20.67000      -20.65108      -20.63720      -20.61778      -15.71142
       -1.44980       -1.42943       -1.40002       -1.38903       -1.31464
       -0.83237       -0.80749       -0.79115       -0.78436       -0.76675
       -0.76463       -0.75260       -0.68361       -0.67317       -0.64526
       -0.62907       -0.61895       -0.59726       -0.58016       -0.56573
       -0.00005        0.05745        0.09219        0.10967        0.12271
        0.15843        0.17227        0.20033        0.21289        0.22319
        0.27744        0.29709        0.30353        0.35017        0.36076
        0.37257        0.46596        0.47403        0.49093        0.50681
        0.52515        0.53408        0.54418        0.55471        0.59353
        0.82560        0.84410        0.86313        0.88743        0.91465
        0.93950        0.95493        0.99156        1.00182        1.02089
        1.03133        1.05031        1.05860        1.08212        1.10262
        1.15559        1.18733        1.20217        1.29394        1.29996
        1.34400        1.37902        1.38613        1.41778        1.43727
        1.44929        1.48897        1.51801        1.55331        1.57318
        1.61599        1.63088        1.64276        1.67651        1.70180
        1.73788        1.74926        1.79247        1.80351        1.82502
        1.90108        2.03145        2.08242        2.10909        2.13072
        2.13524        2.17531        2.20696        2.21714        2.24115
        2.26796        2.29181        2.30677        2.33386        2.36048
        2.51161        2.55965        2.56600        2.62281        2.63174
        2.65900        2.69372        2.71577        2.73191        2.74603
        2.77929        2.83003        2.89214        2.95278        3.18399
        3.21722        3.25732        3.30173        3.36475        3.37786
        3.38795        3.39783        3.43404        3.43939        3.47024
        3.52093        3.53455        3.54705        3.55372        3.57546
        3.87421        3.95191        3.99707        4.00385        4.05790
        4.09698        4.10269        4.17241        4.96673        5.08200
        5.14266        5.26962        5.33121        5.35291        5.37114
        5.62663        5.65167        5.72715        5.80079        5.95505
        5.98039        6.06489        6.07039       36.87777       51.41880
       51.42329       51.44259       51.46333
 Time used in FCKEIG, thr_jaco:   2.30D-02  2.80D-02  9.52D-08
 CPU and wall times used in FCKEIG, THR_FCKEIG:   2.30D-02  2.80D-02  2.24D-05
 -----------------------------------------------------------------------------

 *** DIIS iteration number    8
 RDSUPM called. NFMAT, ISYMDM(1:NFMAT)                     1
                     1

 ITDIIS, energy, error norm, change in energy, scr.thr., difden:
@ DIIS iter.   8    -361.216065181        3.81789D-04   -6.02D-07  -20    F

 (DIIS_RED) Control Parameters C2DIIS =         F NEVC =    8


 (DIIS_RED) B matrix:

               Column   1     Column   2     Column   3     Column   4     Column   5     Column   6
       1      15.38397767
       2       0.81200195     1.22474925
       3       0.80455302    -0.00952085     0.14211641
       4       0.04410794     0.07647339     0.00200065     0.00869713
       5       0.02150737     0.00767813     0.00538921     0.00062857     0.00086778
       6      -0.00473337     0.00002078     0.00072975     0.00053317     0.00001641     0.00010889
       7       0.00028905     0.00016644     0.00001502     0.00000491     0.00004628     0.00000220
       8       0.00007689    -0.00002762     0.00000570     0.00000224     0.00000029     0.00000157

               Column   7     Column   8
       7       0.00000500
       8       0.00000037     0.00000015
    ==== End of matrix output ====

 DIIS C vector; C2DIIS = F, LAMBDA = -9.04D-08
    0.000004   -0.000018   -0.000484   -0.000278    0.012891   -0.009668   -0.182149    1.179702
* Read MO coefficients from SIRIUS.RST with label "NEWORB  " and header info:  2Dec18  DIIS   8
      Virial theorem: -V/T =      2.003459
@      MULPOP N      -0.42; H       0.31; H       0.29; H       0.28; H       0.33; O      -0.60; O      -0.64; O      -0.70; O      -0.66; H       0.34; 
@             H       0.31; H       0.36; H       0.34; H       0.38; H       0.38; H       0.35; H       0.36; 

 DIIS Fock eigenvalues in symmetry 1
      -20.66993      -20.65105      -20.63730      -20.61776      -15.71144
       -1.44977       -1.42941       -1.40004       -1.38902       -1.31464
       -0.83234       -0.80749       -0.79115       -0.78436       -0.76675
       -0.76463       -0.75261       -0.68361       -0.67318       -0.64531
       -0.62908       -0.61892       -0.59725       -0.58018       -0.56572
       -0.00005        0.05745        0.09219        0.10966        0.12271
        0.15843        0.17227        0.20033        0.21289        0.22319
        0.27744        0.29708        0.30353        0.35017        0.36076
        0.37257        0.46597        0.47403        0.49093        0.50681
        0.52515        0.53408        0.54418        0.55471        0.59353
        0.82560        0.84410        0.86313        0.88743        0.91464
        0.93949        0.95492        0.99157        1.00183        1.02089
        1.03133        1.05031        1.05860        1.08212        1.10262
        1.15558        1.18732        1.20217        1.29394        1.29995
        1.34400        1.37902        1.38613        1.41778        1.43726
        1.44929        1.48897        1.51800        1.55331        1.57318
        1.61599        1.63088        1.64275        1.67651        1.70180
        1.73788        1.74926        1.79247        1.80351        1.82502
        1.90108        2.03145        2.08242        2.10909        2.13071
        2.13523        2.17531        2.20696        2.21713        2.24115
        2.26796        2.29181        2.30677        2.33385        2.36048
        2.51161        2.55965        2.56600        2.62280        2.63174
        2.65899        2.69371        2.71577        2.73190        2.74602
        2.77929        2.83002        2.89213        2.95278        3.18399
        3.21722        3.25732        3.30172        3.36474        3.37787
        3.38796        3.39782        3.43406        3.43936        3.47024
        3.52095        3.53456        3.54705        3.55369        3.57547
        3.87421        3.95187        3.99709        4.00385        4.05793
        4.09698        4.10265        4.17242        4.96672        5.08199
[...]
 | 1 1 1 1 |  13   1  10   1 |     1255        1 |       786886 |    0.074579  |
 | 1 1 1 1 |  14   1  10   1 |     1256        1 |       788141 |    0.074481  |
 | 1 1 1 1 |  27   1  10   1 |     1269        1 |       804547 |    0.112214  |
 | 1 1 1 1 |  28   1  10   1 |     1270        1 |       805816 |    0.065748  |
 | 1 1 1 1 |  12   1  13   1 |     1668        1 |      1390279 |   -0.083111  |
 | 1 1 1 1 |  28   1  13   1 |     1684        1 |      1417087 |   -0.083409  |
 | 1 1 1 1 |  28   1  15   1 |     1960        1 |      1919821 |    0.077876  |
 | 1 1 1 1 |  12   1  20   1 |     2634        1 |      3467662 |    0.071209  |
 +=============================================================================+


          Norm of Printed Amplitude Vector :             0.8454

          Printed all single excitations greater than 0.380303

          Printed all double excitations greater than 0.064921



+======================================================================+
| contributions of excitation levels to right eigenvectors as computed |
| from the (RE|RE) self overlap                                        |
+----------------------------------------------------------------------+
| sym | multi | state |    E / eV  | % singles | % doubles | % triples |
+======================================================================+
|    1|   1   |   1   |  411.28891 |  88.0240  |  11.9760  |   0.0000  |
+======================================================================+





+======================================================================+
| contributions of excitation levels to excited states as computed     |
| from the (LE|RE) overlap                                             |
+----------------------------------------------------------------------+
| sym | multi | state |    E / eV  | % singles | % doubles | % triples |
+======================================================================+
|    1|   1   |   1   |  411.28891 |  78.8654  |  21.1346  |   0.0000  |
+======================================================================+



 --------------------------
 Symmetry class Nr.:     1
 Multiplicity      :     3
 --------------------------

 Length of Excitation vectors in this class is:   8404200
 No Excitation Energies calculated in this symmetry class
     

   *******************************************************************
   *                                                                 *
   *--------   OUTPUT FROM PROPERTY AND SYMMETRY ANALYSIS   ---------*
   *                                                                 *
   *******************************************************************



                         +-------------------------------+
                         ! REQUESTED PROPERTY OPERATORS: !
                         +-------------------------------+

             Index   Oper. Label  Symmetry  Transp.  PDBS  Atom
             --------------------------------------------------
                1     HAM0            1        1      T      0
                2     XDIPLEN         1        1      F      0
                3     YDIPLEN         1        1      F      0
                4     ZDIPLEN         1        1      F      0
             --------------------------------------------------




                         +-------------------------------+
                         ! REQUESTED EXPECTATION VALUES: !
                         +-------------------------------+

                       Index   Oper. Label  Symmetry
                       -----------------------------
                       -----------------------------




                       +------------------------------------+
                       ! REQUESTED EFFECTIVE FOCK MATRICES: !
                       +------------------------------------+

                       Index   Oper. Label  Symmetry
                       -----------------------------
                       -----------------------------




                        +----------------------------------+
                        ! REQUESTED FIRST ORDER M-VECTORS: !
                        +----------------------------------+

               Index   State Symmetry  Frequency
               --------------------------------------------------
                  1             1    1     1.511459D+01
               --------------------------------------------------


      

    *******************************************************************
    *          SOLVING COUPLED CLUSTER RESPONSE EQUATIONS             *
    *******************************************************************



 
 +======================================================================+
 !                     RHS & ETA VECTORS TO COMPUTE:                    !
 +======================================================================+
 | TYPE | # VEC. |  NEEDED FOR:                                         |
 +----------------------------------------------------------------------+
 +======================================================================+



 +======================================================================+
 !                       LINEAR EQUATIONS TO SOLVE:                     !
 +======================================================================+
 | TYPE | # VEC. |  EQUATION:                                           |
 +----------------------------------------------------------------------+
 |  M1  |    1   |  first-order ground - excited state multipliers      |
 +======================================================================+



 +======================================================================+
 !                F MATRIX TRANSFORMATIONS TO COMPUTE:                  !
 +======================================================================+
 | TYPE | # VEC. |  TRANSFORMED:                                        |
 +----------------------------------------------------------------------+
 |  FR  |    1   |  right eigenvectors (RE)                             |
 +======================================================================+





 Testing R1 list: 

 List nr.  Label     Symmetry      Frequency      T1-norm        T2-norm


 Testing L1 list: 

 List nr.  Label     Symmetry      Frequency      T1-norm        T2-norm
  Solvent 1-order response equations converged in                     0 
  solvent iterations
 SONIAPRI                     0
 CCEQ_STR: CVSEPARATION =  T
 CCEQ_STR: IONIZATION =  T
 CCEQ_STR: REMOVE_CORE =  F
 could not find required file CCM1_1___1
 IOPTSV is    33 ... program continues nevertheless.
 Vector nr.  1 of type M1  and symmetry  1 was not found on file.
     M1  start vector nr.  1 of symmetry  1 generated from gradient
 CCEQ_STR: freeze VALENCE OR VIRT
 CCEQ_SOL: CVSEPARA=     T
 CCEQ_SOL: LIONISAT=     T
 CCEQ_SOL: REMOVE_CORE =  F



 ----- COUPLED CLUSTER RESPONSE SOLVER -----

    Iter  #Vectors  time (min)   residual
    --------------------------------------
 CCRED CVS/IONIS sigma_                     1 
 project out valence occupied or virtual
      1       1         1.85     0.20E+01
 CCRED CVS/IONIS sigma_                     2 
 project out valence occupied or virtual
      2       1         1.86     0.36E+00
 CCRED CVS/IONIS sigma_                     3 
 project out valence occupied or virtual
      3       1         1.87     0.47E-01
 CCRED CVS/IONIS sigma_                     4 
 project out valence occupied or virtual
                    -1  vectors with norm le:  1.000000000000000E-035  REMOVED

 CCORT,**WARNING**  number vectors added is zero after check for vector norm , NBADD :    0

 CCORT, number vectors added is zero , NBADD :    0

 CCORT, number vectors added is zero , NBADD :    0

 CCORT, number vectors added is zero , NBADD :    0

 CCORT, number vectors added is zero , NBADD :    0

 *** MICROITERATIONS STOPPED DUE TO LINEAR DEPENDENCE BETWEEN ALL NEW TRIAL VECTORS
                     0  trial vectors converged
  LINEAR DEPENDENCE BETWEEN                     1  NON CONVERGED TRIAL VECTORS
      4       1         1.79     0.48E-02

 ***  CCEQ_SOL -MICROITERATIONS STOPPED  
     LINEAR DEPENDENCE BETWEEN ALL NEW TRIAL VECTORS
    --------------------------------------
    converged in  4 iterations
    threshold:    0.10E-08


         Routine          Time (min)
         ---------------------------
         CC_TRDRV            7.38
         CCRED               0.03
         CCNEX               0.05
         ---------------------------
         Total time          7.46


  Total CPU  time used in CCEQ_SOLV:  7 minutes 27 seconds
  Total wall time used in CCEQ_SOLV:  7 minutes 41 seconds


 xxxxxxxxxxxxxxxxxxxxxxxxxxxxxxxxxxxxx

 
 Solution of CC response equations completed.
 

 *******************************************************************
 *                                                                 *
 *--------  OUTPUT FROM COUPLED CLUSTER LINEAR RESPONSE   ---------*
 *                                                                 *
 *--------      CALCULATION OF SECOND ORDER RESIDUES      ---------*
 *                                                                 *
 *******************************************************************



                  +---------------------------------------------+
                  ! CC_SOPR: Calculation of CCSD       Residues !
                  +---------------------------------------------+

 Doing the Mf*CsiA
 Doing the Mf*CsiA
 Doing the Mf*CsiA


 CCSD  Right transition moments in atomic units:
 -----------------------------------------------

  1      15.114590  <XDIPLEN |f> =       0.00000002
  1      15.114590  <YDIPLEN |f> =      -0.00000001
  1      15.114590  <ZDIPLEN |f> =       0.00000001


 CCSD  Left  transition moments in atomic units:
 -----------------------------------------------

  1      15.114590  <f|XDIPLEN > =       0.00000001
  1      15.114590  <f|YDIPLEN > =      -0.00000001
  1      15.114590  <f|ZDIPLEN > =       0.00000000


 CCSD  linear response residue property in atomic units:
 -------------------------------------------------------

 RES{<<XDIPLEN ,XDIPLEN >>(15.114590)} =     0.00000000 (   0.00000001)
 RES{<<XDIPLEN ,YDIPLEN >>(15.114590)} =    -0.00000000 (  -0.00000001)
 RES{<<XDIPLEN ,ZDIPLEN >>(15.114590)} =     0.00000000 (   0.00000001)
 RES{<<YDIPLEN ,XDIPLEN >>(15.114590)} =    -0.00000000 (  -0.00000001)
 RES{<<YDIPLEN ,YDIPLEN >>(15.114590)} =     0.00000000 (   0.00000001)
 RES{<<YDIPLEN ,ZDIPLEN >>(15.114590)} =    -0.00000000 (  -0.00000001)
 RES{<<ZDIPLEN ,XDIPLEN >>(15.114590)} =     0.00000000 (   0.00000001)
 RES{<<ZDIPLEN ,YDIPLEN >>(15.114590)} =    -0.00000000 (  -0.00000001)
 RES{<<ZDIPLEN ,ZDIPLEN >>(15.114590)} =     0.00000000 (   0.00000000)


 CCSD  Transition strength matrix for state nr.  1 of symmetry 1
 CCSD  excitation energy:15.11458983

 Gauge: length

               Column   1     Column   2     Column   3
       1     2.130989D-16  -1.437184D-16   4.938351D-17
       2    -1.437184D-16   9.692121D-17  -3.330341D-17
       3     4.938351D-17  -3.330341D-17   1.144349D-17
    ==== End of matrix output ====

 Principal values of diagonalized transition strength matrix:

             a.u.               
 1       0.00000000
 2       0.00000000
 3       0.00000000

 Principal axis of diagonalized transition strength matrix:


               Column   1     Column   2     Column   3
       1       1.00000000     0.00000000     0.00000000
       2       0.00000000     1.00000000     0.00000000
       3       0.00000000     0.00000000     1.00000000
    ==== End of matrix output ====


 CCSD   oscillator strength matrix for state nr.  1 of symmetry 1
 CCSD  excitation energy:15.11458983


               Column   1     Column   2     Column   3
       1     2.147269D-15  -1.448164D-15   4.976077D-16
       2    -1.448164D-15   9.766162D-16  -3.355783D-16
       3     4.976077D-16  -3.355783D-16   1.153091D-16
    ==== End of matrix output ====

 Principal values of diagonalized oscillator strength matrix:

             a.u.               
 1       0.00000000
 2       0.00000000
 3       0.00000000

 Principal axis of diagonalized oscillator strength matrix:


               Column   1     Column   2     Column   3
       1       1.00000000     0.00000000     0.00000000
       2       0.00000000     1.00000000     0.00000000
       3       0.00000000     0.00000000     1.00000000
    ==== End of matrix output ====

  Total time for      9 linear response residues:       3.39 seconds.
  

 *******************************************************************************
 *******************************************************************************
 *                                                                             *
 *                                                                             *
 *                   SUMMARY OF COUPLED CLUSTER CALCULATION                    *
 *                                                                             *
 *                                                                             *
 *******************************************************************************
 *******************************************************************************

                                                                                
                                                                                
            Total SCF   energy:                  -361.2160652011                
            Total MP2   energy:                  -362.3281437956                
            Total CCSD  energy:                  -362.3684519520                
                                                                                
                                                                                
            Total SCF   energy:                  -361.2160652011                
            Total RSTAR energy:                  -362.3684519520                
            Total CCSD  energy:                  -362.3685829433                
                                                                                
                                                                                
            Total SCF   energy:                  -361.2160652011                
            Total RSTAR energy:                  -362.3685829433                
            Total CCSD  energy:                  -362.3685827248                
                                                                                
                                                                                
            Total SCF   energy:                  -361.2160652011                
            Total RSTAR energy:                  -362.3685827248                
            Total CCSD  energy:                  -362.3685828081                
                                                                                
                                                                                
            Total SCF   energy:                  -361.2160652011                
            Total RSTAR energy:                  -362.3685828081                
            Total CCSD  energy:                  -362.3685828078                
                                                                                
                                                                                
            Total SCF   energy:                  -361.2160652011                
            Total RSTAR energy:                  -362.3685828078                
            Total CCSD  energy:                  -362.3685828077                
            CCSD Total  energy:                  -362.8096896934                
            CCSD E(QM/MM)     :                    -0.4372106753                
                                                                                
                                                                                
                                                                                
 +=============================================================================+
 |  sym. | Exci.  |        CCSD       Excitation energies            | ||T1||  |
 |(spin, |        +------------------------------------------------------------+
 | spat) |        |     Hartree    |       eV.      |     cm-1       |    %    |
 +=============================================================================+
 | ^1A   |    1   |    15.1145898  |     411.28891  |   3317269.000  |  88.02  |
 +=============================================================================+
                                                                                
                                                                                
     Total energies in Hartree:                                                 
             1 ^1A       -347.2578891904                                        
                                                                                
                                                                                
 +=============================================================================+
 |  sym. | Exci.  |        CCSD       Length   Gauge Oscillator Strength       |
 |(spin, |        +------------------------------------------------------------+
 | spat) |        | Dipole Strength(a.u.) | Oscillator strength  | Direction   |
 +=============================================================================+
 | ^1A   |    1   |        0.0000000      |      0.0000000       |    -        |
 +=============================================================================+

  1 a.u. =        27.21138 eV.  
  1 a.u. =    219474.62934 cm-1.
  

 *******************************************************************************
 *******************************************************************************
 *                                                                             *
 *                                                                             *
 *                      END OF COUPLED CLUSTER CALCULATION                     *
 *                                                                             *
 *                                                                             *
 *******************************************************************************
 *******************************************************************************


 CPU and wall time for CC :    7779.173   11033.582

 
     Date and time (Linux)  : Sun Dec  2 20:11:03 2018
     Host name              : n-62-23-21                              


                      .-------------------------------------.
                      | End of Coupled Cluster Section (CC) |
                      `-------------------------------------'

  Total CPU  time used in DALTON:   2 hours 11 minutes 58 seconds
  Total wall time used in DALTON:   3 hours  7 minutes 22 seconds

 
     Date and time (Linux)  : Sun Dec  2 20:11:03 2018
     Host name              : n-62-23-21                              
  

 +---------------------------------------------------------+ 
 | List of selected calculated molecular properties (a.u.) | 
 +---------------------------------------------------------+ 

  Properties are read from unit number                      4

 CCSD       properties :
 #  1 1 CCSD/MM  Ground state Energy =    -362.8096896934
 #  2 1 E_QM/MM  Ground state Energy =      -0.4372106753
 #  3 1 Sy: 1 Sp: 1 Exc:  1 E_tot:   -347.2578891904 w:     15.1145898277 E_grs:   -362.3724790181
 #  4 1 Exctot   Excited state Energy =    -347.2578891904
 #  5 1 |<O|XDIPLEN |i(15.114590)>| =     0.00000001
 #  7 1 |<O|YDIPLEN |i(15.114590)>| =     0.00000001
 #  9 1 |<O|ZDIPLEN |i(15.114590)>| =     0.00000000

 THE_END   
