

     ************************************************************************
     *************** Dalton - An Electronic Structure Program ***************
     ************************************************************************

    This is output from DALTON release Dalton2017.alpha (2016)
         ( Web site: http://daltonprogram.org )

   ----------------------------------------------------------------------------

    NOTE:
     
    Dalton is an experimental code for the evaluation of molecular
    properties using (MC)SCF, DFT, CI, and CC wave functions.
    The authors accept no responsibility for the performance of
    the code or for the correctness of the results.
     
    The code (in whole or part) is provided under a licence and
    is not to be reproduced for further distribution without
    the written permission of the authors or their representatives.
     
    See the home page "http://daltonprogram.org" for further information.
     
    If results obtained with this code are published,
    the appropriate citations would be both of:
     
       K. Aidas, C. Angeli, K. L. Bak, V. Bakken, R. Bast,
       L. Boman, O. Christiansen, R. Cimiraglia, S. Coriani,
       P. Dahle, E. K. Dalskov, U. Ekstroem,
       T. Enevoldsen, J. J. Eriksen, P. Ettenhuber, B. Fernandez,
       L. Ferrighi, H. Fliegl, L. Frediani, K. Hald, A. Halkier,
       C. Haettig, H. Heiberg, T. Helgaker, A. C. Hennum,
       H. Hettema, E. Hjertenaes, S. Hoest, I.-M. Hoeyvik,
       M. F. Iozzi, B. Jansik, H. J. Aa. Jensen, D. Jonsson,
       P. Joergensen, J. Kauczor, S. Kirpekar,
       T. Kjaergaard, W. Klopper, S. Knecht, R. Kobayashi, H. Koch,
       J. Kongsted, A. Krapp, K. Kristensen, A. Ligabue,
       O. B. Lutnaes, J. I. Melo, K. V. Mikkelsen, R. H. Myhre,
       C. Neiss, C. B. Nielsen, P. Norman, J. Olsen,
       J. M. H. Olsen, A. Osted, M. J. Packer, F. Pawlowski,
       T. B. Pedersen, P. F. Provasi, S. Reine, Z. Rinkevicius,
       T. A. Ruden, K. Ruud, V. Rybkin, P. Salek, C. C. M. Samson,
       A. Sanchez de Meras, T. Saue, S. P. A. Sauer,
       B. Schimmelpfennig, K. Sneskov, A. H. Steindal,
       K. O. Sylvester-Hvid, P. R. Taylor, A. M. Teale,
       E. I. Tellgren, D. P. Tew, A. J. Thorvaldsen, L. Thoegersen,
       O. Vahtras, M. A. Watson, D. J. D. Wilson, M. Ziolkowski
       and H. Agren,
       "The Dalton quantum chemistry program system",
       WIREs Comput. Mol. Sci. 2014, 4:269–284 (doi: 10.1002/wcms.1172)
     
    and
     
       Dalton, a Molecular Electronic Structure Program,
       Release Dalton2017.alpha (2016), see http://daltonprogram.org
   ----------------------------------------------------------------------------

    Authors in alphabetical order (major contribution(s) in parenthesis):

  Kestutis Aidas,           Vilnius University,           Lithuania   (QM/MM)
  Celestino Angeli,         University of Ferrara,        Italy       (NEVPT2)
  Keld L. Bak,              UNI-C,                        Denmark     (AOSOPPA, non-adiabatic coupling, magnetic properties)
  Vebjoern Bakken,          University of Oslo,           Norway      (DALTON; geometry optimizer, symmetry detection)
  Radovan Bast,             UiT The Arctic U. of Norway,  Norway      (DALTON installation and execution frameworks)
  Pablo Baudin,             University of Valencia,       Spain       (Cholesky excitation energies)
  Linus Boman,              NTNU,                         Norway      (Cholesky decomposition and subsystems)
  Ove Christiansen,         Aarhus University,            Denmark     (CC module)
  Renzo Cimiraglia,         University of Ferrara,        Italy       (NEVPT2)
  Sonia Coriani,            University of Trieste,        Italy       (CC module, MCD in RESPONS)
  Janusz Cukras,            University of Trieste,        Italy       (MChD in RESPONS)
  Paal Dahle,               University of Oslo,           Norway      (Parallelization)
  Erik K. Dalskov,          UNI-C,                        Denmark     (SOPPA)
  Thomas Enevoldsen,        Univ. of Southern Denmark,    Denmark     (SOPPA)
  Janus J. Eriksen,         Aarhus University,            Denmark     (Polarizable embedding model, TDA)
  Rasmus Faber,             University of Copenhagen,     Denmark     (Vib.avg. NMR with SOPPA, parallel AO-SOPPA)
  Berta Fernandez,          U. of Santiago de Compostela, Spain       (doublet spin, ESR in RESPONS)
  Lara Ferrighi,            Aarhus University,            Denmark     (PCM Cubic response)
  Heike Fliegl,             University of Oslo,           Norway      (CCSD(R12))
  Luca Frediani,            UiT The Arctic U. of Norway,  Norway      (PCM)
  Bin Gao,                  UiT The Arctic U. of Norway,  Norway      (Gen1Int library)
  Christof Haettig,         Ruhr-University Bochum,       Germany     (CC module)
  Kasper Hald,              Aarhus University,            Denmark     (CC module)
  Asger Halkier,            Aarhus University,            Denmark     (CC module)
  Frederik Beyer Hansen,    University of Copenhagen,     Denmark     (Parallel AO-SOPPA)
  Erik D. Hedegaard,        Univ. of Southern Denmark,    Denmark     (Polarizable embedding model, QM/MM)
  Hanne Heiberg,            University of Oslo,           Norway      (geometry analysis, selected one-electron integrals)
  Trygve Helgaker,          University of Oslo,           Norway      (DALTON; ABACUS, ERI, DFT modules, London, and much more)
  Alf Christian Hennum,     University of Oslo,           Norway      (Parity violation)
  Hinne Hettema,            University of Auckland,       New Zealand (quadratic response in RESPONS; SIRIUS supersymmetry)
  Eirik Hjertenaes,         NTNU,                         Norway      (Cholesky decomposition)
  Pi A. B. Haase,           University of Copenhagen,     Denmark     (Triplet AO-SOPPA)
  Maria Francesca Iozzi,    University of Oslo,           Norway      (RPA)
  Brano Jansik              Technical Univ. of Ostrava    Czech Rep.  (DFT cubic response)
  Hans Joergen Aa. Jensen,  Univ. of Southern Denmark,    Denmark     (DALTON; SIRIUS, RESPONS, ABACUS modules, London, and much more)
  Dan Jonsson,              UiT The Arctic U. of Norway,  Norway      (cubic response in RESPONS module)
  Poul Joergensen,          Aarhus University,            Denmark     (RESPONS, ABACUS, and CC modules)
  Maciej Kaminski,          University of Warsaw,         Poland      (CPPh in RESPONS)
  Joanna Kauczor,           Linkoeping University,        Sweden      (Complex polarization propagator (CPP) module)
  Sheela Kirpekar,          Univ. of Southern Denmark,    Denmark     (Mass-velocity & Darwin integrals)
  Wim Klopper,              KIT Karlsruhe,                Germany     (R12 code in CC, SIRIUS, and ABACUS modules)
  Stefan Knecht,            ETH Zurich,                   Switzerland (Parallel CI and MCSCF)
  Rika Kobayashi,           Australian National Univ.,    Australia   (DIIS in CC, London in MCSCF)
  Henrik Koch,              NTNU,                         Norway      (CC module, Cholesky decomposition)
  Jacob Kongsted,           Univ. of Southern Denmark,    Denmark     (Polarizable embedding model, QM/MM)
  Andrea Ligabue,           University of Modena,         Italy       (CTOCD, AOSOPPA)
  Nanna H. List             Univ. of Southern Denmark,    Denmark     (Polarizable embedding model)
  Ola B. Lutnaes,           University of Oslo,           Norway      (DFT Hessian)
  Juan I. Melo,             University of Buenos Aires,   Argentina   (LRESC, Relativistic Effects on NMR Shieldings)
  Kurt V. Mikkelsen,        University of Copenhagen,     Denmark     (MC-SCRF and QM/MM)
  Rolf H. Myhre,            NTNU,                         Norway      (Cholesky, subsystems and ECC2)
  Christian Neiss,          Univ. Erlangen-Nuernberg,     Germany     (CCSD(R12))
  Christian B. Nielsen,     University of Copenhagen,     Denmark     (QM/MM)
  Patrick Norman,           Linkoeping University,        Sweden      (Cubic response and complex frequency response in RESPONS)
  Jeppe Olsen,              Aarhus University,            Denmark     (SIRIUS CI/density modules)
  Jogvan Magnus H. Olsen,   Univ. of Southern Denmark,    Denmark     (Polarizable embedding model, QM/MM)
  Anders Osted,             Copenhagen University,        Denmark     (QM/MM)
  Martin J. Packer,         University of Sheffield,      UK          (SOPPA)
  Filip Pawlowski,          Kazimierz Wielki University,  Poland      (CC3)
  Morten N. Pedersen,       Univ. of Southern Denmark,    Denmark     (Polarizable embedding model)
  Thomas B. Pedersen,       University of Oslo,           Norway      (Cholesky decomposition)
  Patricio F. Provasi,      University of Northeastern,   Argentina   (Analysis of coupling constants in localized orbitals)
  Zilvinas Rinkevicius,     KTH Stockholm,                Sweden      (open-shell DFT, ESR)
  Elias Rudberg,            KTH Stockholm,                Sweden      (DFT grid and basis info)
  Torgeir A. Ruden,         University of Oslo,           Norway      (Numerical derivatives in ABACUS)
  Kenneth Ruud,             UiT The Arctic U. of Norway,  Norway      (DALTON; ABACUS magnetic properties and much more)
  Pawel Salek,              KTH Stockholm,                Sweden      (DALTON; DFT code)
  Claire C. M. Samson       University of Karlsruhe       Germany     (Boys localization, r12 integrals in ERI)
  Alfredo Sanchez de Meras, University of Valencia,       Spain       (CC module, Cholesky decomposition)
  Trond Saue,               Paul Sabatier University,     France      (direct Fock matrix construction)
  Stephan P. A. Sauer,      University of Copenhagen,     Denmark     (SOPPA(CCSD), SOPPA prop., AOSOPPA, vibrational g-factors)
  Bernd Schimmelpfennig,    Forschungszentrum Karlsruhe,  Germany     (AMFI module)
  Kristian Sneskov,         Aarhus University,            Denmark     (Polarizable embedding model, QM/MM)
  Arnfinn H. Steindal,      UiT The Arctic U. of Norway,  Norway      (parallel QM/MM, Polarizable embedding model)
  Casper Steinmann,         Univ. of Southern Denmark,    Denmark     (QFIT, Polarizable embedding model)
  K. O. Sylvester-Hvid,     University of Copenhagen,     Denmark     (MC-SCRF)
  Peter R. Taylor,          VLSCI/Univ. of Melbourne,     Australia   (Symmetry handling ABACUS, integral transformation)
  Andrew M. Teale,          University of Nottingham,     England     (DFT-AC, DFT-D)
  David P. Tew,             University of Bristol,        England     (CCSD(R12))
  Olav Vahtras,             KTH Stockholm,                Sweden      (triplet response, spin-orbit, ESR, TDDFT, open-shell DFT)
  David J. Wilson,          La Trobe University,          Australia   (DFT Hessian and DFT magnetizabilities)
  Hans Agren,               KTH Stockholm,                Sweden      (SIRIUS module, RESPONS, MC-SCRF solvation model)
 --------------------------------------------------------------------------------

     Date and time (Linux)  : Wed Nov 28 16:57:12 2018
     Host name              : n-62-29-5                               

 * Work memory size             :  1280000000 =  9.537 gigabytes.

 * Directories for basis set searches:
   1) /zhome/d7/7/119775/My_Codes/dalton-private/build2016/basis/diffs
   2) /zhome/37/3/129401/NH3NH4/CCSD/AIMD_SAMPLING/nh4_4h2o_nd
   3) /zhome/9a/4/124800/source/dalton/build-mlcc/basis


Compilation information
-----------------------

 Who compiled             | rfaber
 Host                     | hpclogin1
 System                   | Linux-2.6.32-696.1.1.el6.x86_64
 CMake generator          | Unix Makefiles
 Processor                | x86_64
 64-bit integers          | ON
 MPI                      | OFF
 Fortran compiler         | /opt/intel/2016update2/compilers_and_libraries_201
                          | 6.2.181/linux/bin/intel64/ifort
 Fortran compiler version | ifort (IFORT) 16.0.2 20160204
 C compiler               | /opt/intel/2016update2/compilers_and_libraries_201
                          | 6.2.181/linux/bin/intel64/icc
 C compiler version       | icc (ICC) 16.0.2 20160204
 C++ compiler             | /opt/intel/2016update2/compilers_and_libraries_201
                          | 6.2.181/linux/bin/intel64/icpc
 C++ compiler version     | icpc (ICC) 16.0.2 20160204
 Static linking           | OFF
 Last Git revision        | bb4d1599ca5680a9f3980451fc8bbefdba436d59
 Git branch               | mlcc
 Configuration time       | 2017-06-13 16:11:03.928841


   Content of the .dal input file
 ----------------------------------

**DALTON
.RUN WAVE FUNCTIONS
*QMMM
.QMMM
**INTEGRALS
.DIPLEN
**WAVE FUNCTIONS
.CC
*PRINT
!To check the origin of excit
.PRINTL
   0 11
*SCF INP
.THRESH
1.0D-7
!*ORBITAL INPUT
!.MOSTART
!NEWORB
*CC INP
!.RESTART
.CCSD
.THRLEQ
 1.0D-9
.THRENR
 1.0D-10
.FROIMP
4
0
.PRINT
 1
.MAX IT
 1200
.MAXRED
 1200
.MXLRV
1199
*CCSLV
.CCMM
.MXSLIT
200
.MXINIT
4 5
*CCEXCI
.NCCEXC
 1
.IONISATION
1
1
.CVSEPARA
1
1
*CCLRSD
.DIPOLE
**END OF DALTON INPUT


   Content of the .mol file
 ----------------------------

ATOMBASIS


Atomtypes=5 Charge=1 Nosymm Angstrom
   7.00000    1    Basis=6-311G**
N          0.000000        0.000000        0.000000
   1.00000    4    Basis=6-311G**
H         -0.308221        0.875207       -0.457672
H          0.598627       -0.578701       -0.632041
H         -0.824847       -0.550082        0.263910
H          0.589890        0.413237        0.749175
   8.00000    4    Basis=6-311G**
O         -0.463503        2.729800       -1.315854
O         -2.707476       -0.865100       -0.091771
O          1.353082        1.019441        2.102373
O          1.914265       -1.164315       -2.243620
   1.00000    8    Basis=6-311G**
H         -0.895615        2.539745       -2.161926
H          0.456562        3.055442       -1.521630
H         -3.214946       -1.679857       -0.275874
H         -3.355197       -0.328247        0.358265
H          1.725807        1.883044        1.845368
H          0.768858        1.190887        2.879737
H          2.314014       -2.086067       -2.190997
H          2.684427       -0.522621       -2.166441
   0.00000    1    Basis=diffs
X          0.000000        0.000000        0.000000


       *******************************************************************
       *********** Output from DALTON general input processing ***********
       *******************************************************************

 --------------------------------------------------------------------------------
   Overall default print level:    0
   Print level for DALTON.STAT:    1

    HERMIT 1- and 2-electron integral sections will be executed
    "Old" integral transformation used (limited to max 255 basis functions)
    Wave function sections will be executed (SIRIUS module)
 --------------------------------------------------------------------------------


 Changes of defaults for *QMMM  :
 --------------------------------

 +------------------+
 |  WORD: | CHANGE: |
 +------------------+
 |   QMMM |       T |
 +------------------+
 


   ****************************************************************************
   *************** Output of molecule and basis set information ***************
   ****************************************************************************


    The two title cards from your ".mol" input:
    ------------------------------------------------------------------------
 1:                                                                         
 2:                                                                         
    ------------------------------------------------------------------------

  Coordinates are entered in Angstrom and converted to atomic units.
          - Conversion factor : 1 bohr = 0.52917721 A

  Atomic type no.    1
  --------------------
  Nuclear charge:   7.00000
  Number of symmetry independent centers:    1
  Number of basis sets to read;    2
  The basis set is "6-311G**" from the basis set library.
  Basis set file used for this atomic type with Z =   7 :
     "/zhome/9a/4/124800/source/dalton/build-mlcc/basis/6-311G**"

  Info about the basis set file: your basis has no documentation.
  Basis set: 6-311G**                                                                        

  Atomic type no.    2
  --------------------
  Nuclear charge:   1.00000
  Number of symmetry independent centers:    4
  Number of basis sets to read;    2
  The basis set is "6-311G**" from the basis set library.
  Basis set file used for this atomic type with Z =   1 :
     "/zhome/9a/4/124800/source/dalton/build-mlcc/basis/6-311G**"

  Info about the basis set file: your basis has no documentation.
  Basis set: 6-311G**                                                                        

  Atomic type no.    3
  --------------------
  Nuclear charge:   8.00000
  Number of symmetry independent centers:    4
  Number of basis sets to read;    2
  The basis set is "6-311G**" from the basis set library.
  Basis set file used for this atomic type with Z =   8 :
     "/zhome/9a/4/124800/source/dalton/build-mlcc/basis/6-311G**"

  Info about the basis set file: your basis has no documentation.
  Basis set: 6-311G**                                                                        

  Atomic type no.    4
  --------------------
  Nuclear charge:   1.00000
  Number of symmetry independent centers:    8
  Number of basis sets to read;    2
  The basis set is "6-311G**" from the basis set library.
  Basis set file used for this atomic type with Z =   1 :
     "/zhome/9a/4/124800/source/dalton/build-mlcc/basis/6-311G**"

  Info about the basis set file: your basis has no documentation.
  Basis set: 6-311G**                                                                        

  Atomic type no.    5
  --------------------
  Nuclear charge:   0.00000
  Number of symmetry independent centers:    1
  Number of basis sets to read;    2
  The basis set is "diffs" from the basis set library.
  Basis set file used for this atomic type with Z =   0 :
     "/zhome/9a/4/124800/source/dalton/build-mlcc/basis/diffs"

  Info about the basis set file: your basis has no documentation.
  Basis set: diffs                                                                           


                         SYMGRP: Point group information
                         -------------------------------

@    Point group: C1 


                                 Isotopic Masses
                                 ---------------

                           N          14.003074
                           H           1.007825
                           H           1.007825
                           H           1.007825
                           H           1.007825
                           O          15.994915
                           O          15.994915
                           O          15.994915
                           O          15.994915
                           H           1.007825
                           H           1.007825
                           H           1.007825
                           H           1.007825
                           H           1.007825
                           H           1.007825
                           H           1.007825
                           H           1.007825

                       Total mass:    90.076634 amu
                       Natural abundance:  98.500 %

 Center-of-mass coordinates (a.u.):    0.043741    0.666158   -0.589724


  Atoms and basis sets
  --------------------

  Number of atom types :    5
  Total number of atoms:   18

  label    atoms   charge   prim   cont     basis
  ----------------------------------------------------------------------
  N           1    7.0000    31    18      [11s5p1d|4s3p1d]                                   
  H           4    1.0000     8     6      [5s1p|3s1p]                                        
  O           4    8.0000    31    18      [11s5p1d|4s3p1d]                                   
  H           8    1.0000     8     6      [5s1p|3s1p]                                        
  X           1    0.0000     1     1      [1s|1s]                                            
  ----------------------------------------------------------------------
  total:     18   51.0000   252   163
  ----------------------------------------------------------------------
  Spherical harmonic basis used.

  Threshold for neglecting AO integrals:  1.00D-12


  Cartesian Coordinates (a.u.)
  ----------------------------

  Total number of coordinates:   54
  N       :     1  x   0.0000000000    2  y   0.0000000000    3  z   0.0000000000
  H       :     4  x  -0.5824532760    5  y   1.6539015327    6  z  -0.8648747351
  H       :     7  x   1.1312410810    8  y  -1.0935863983    9  z  -1.1943843898
  H       :    10  x  -1.5587349250   11  y  -1.0395043263   12  z   0.4987176216
  H       :    13  x   1.1147305439   14  y   0.7809047547   15  z   1.4157355697
  O       :    16  x  -0.8758937281   17  y   5.1585743760   18  z  -2.4866036805
  O       :    19  x  -5.1163881300   20  y  -1.6348020707   21  z  -0.1734220562
  O       :    22  x   2.5569544047   23  y   1.9264642906   24  z   3.9729091826
  O       :    25  x   3.6174365807   26  y  -2.2002364732   27  z  -4.2398273286
  H       :    28  x  -1.6924670634   29  y   4.7994224773   30  z  -4.0854480425
  H       :    31  x   0.8627771391   32  y   5.7739485708   33  z  -2.8754639636
  H       :    34  x  -6.0753674466   35  y  -3.1744696592   36  z  -0.5213263050
  H       :    37  x  -6.3404034254   38  y  -0.6202969314   39  z   0.6770227302
  H       :    40  x   3.2613025746   41  y   3.5584374413   42  z   3.4872401198
  H       :    43  x   1.4529310490   44  y   2.2504502758   45  z   5.4419142420
  H       :    46  x   4.3728527094   47  y  -3.9420953084   48  z  -4.1403842707
  H       :    49  x   5.0728318325   50  y  -0.9876105572   51  z  -4.0939801560
  X       :    52  x   0.0000000000   53  y   0.0000000000   54  z   0.0000000000

  Max    interatomic separation is    6.5490 Angstrom (   12.3758 Bohr)
  between atoms   17 and   13, "H     " and "H     ".

  Min HX interatomic separation is    0.9541 Angstrom (    1.8030 Bohr)

  Min YX interatomic separation is    2.7000 Angstrom (    5.1023 Bohr)


  Bond distances (Angstrom):
  --------------------------

                  atom 1     atom 2       distance
                  ------     ------       --------
  bond distance:  H          N            1.034626
  bond distance:  H          N            1.045335
  bond distance:  H          N            1.025968
  bond distance:  H          N            1.039230
  bond distance:  H          O            0.968855
  bond distance:  H          O            0.997450
  bond distance:  H          O            0.977368
  bond distance:  H          O            0.954089
  bond distance:  H          O            0.975082
  bond distance:  H          O            0.987424
  bond distance:  H          O            1.006079
  bond distance:  H          O            1.005424


  Bond angles (degrees):
  ----------------------

                  atom 1     atom 2     atom 3         angle
                  ------     ------     ------         -----
  bond angle:     H          N          H            111.805
  bond angle:     H          N          H            109.137
  bond angle:     H          N          H             98.721
  bond angle:     H          N          H            108.609
  bond angle:     H          N          H            109.326
  bond angle:     H          N          H            118.954
  bond angle:     H          O          H            107.175
  bond angle:     H          O          H            101.854
  bond angle:     H          O          H            106.253
  bond angle:     H          O          H            106.043




 Principal moments of inertia (u*A**2) and principal axes
 --------------------------------------------------------

   IA     385.002862          0.961737   -0.039851   -0.271059
   IB     411.475200          0.228864    0.660725    0.714887
   IC     478.678467         -0.150607    0.749569   -0.644565


 Rotational constants
 --------------------

               A                   B                   C

           1312.6630           1228.2126           1055.7797 MHz
            0.043786            0.040969            0.035217 cm-1


@  Nuclear repulsion energy :  195.588836100968 Hartree

  Number of floating/multiple basis set orbitals :    1


                     .---------------------------------------.
                     | Starting in Integral Section (HERMIT) |
                     `---------------------------------------'



 ***************************************************************************************
 ****************** Output from **INTEGRALS input processing (HERMIT) ******************
 ***************************************************************************************



    *************************************************************************
    ****************** Output from HERMIT input processing ******************
    *************************************************************************


 Default print level:        1

 * Nuclear model: Point charge

 Calculation of one- and two-electron Hamiltonian integrals.

 The following one-electron property integrals are calculated as requested:
          - overlap integrals
          - dipole length integrals

 Center of mass  (bohr):      0.043740936887      0.666157892688     -0.589724493695
 Operator center (bohr):      0.000000000000      0.000000000000      0.000000000000
 Gauge origin    (bohr):      0.000000000000      0.000000000000      0.000000000000
 Dipole origin   (bohr):      0.000000000000      0.000000000000      0.000000000000
 
  *********************************** 
  QMMM electrostatic potential: 
  Multipole order                                    0
  Isotropic polarization  
  *********************************** 
 
  ---------------- 
  QMMM information 
  ---------------- 
 
  MM coordinates in au 
  -------------------- 
     1     11.550333      4.560924     -7.347841
     2     13.001454      5.009806     -8.566922
     3     12.308017      3.748829     -5.832194
     4      4.354606      5.907248     -3.198581
     5      5.264730      6.990841     -4.371798
     6      5.455753      4.535908     -2.635947
     7      3.321925    -10.993514     -1.583120
     8      3.681453    -10.071711     -0.050172
     9      5.028520    -11.611131     -2.074538
    10     11.223682     -8.095475     11.240730
    11     10.880786     -6.400797     10.653401
    12     10.823471     -9.053066      9.691882
    13      4.813348      6.817805      2.238142
    14      6.723946      7.089984      2.295180
    15      4.475716      6.908727      0.381573
    16      8.815159      8.961694     -5.564762
    17      9.762221      7.528242     -6.412976
    18      9.032640     10.343064     -6.691923
    19     -4.735072     -7.742180      6.767550
    20     -3.848569     -9.276354      6.388539
    21     -4.913394     -7.841424      8.735204
    22      4.691512     -0.829316     11.511883
    23      3.342621     -1.901010     12.395239
    24      5.683930     -2.075346     10.546580
    25      9.018495     -9.088530      5.043159
    26     10.845987     -8.800422      4.278578
    27      9.302336    -10.701300      5.854504
    28     -1.062737      7.224338    -11.106306
    29      0.062941      8.421234    -12.100720
    30     -0.021841      5.931739    -10.303520
    31     -8.006603      2.642816      1.551167
    32     -9.807592      2.972035      2.075125
    33     -7.079158      4.049685      2.482441
    34      7.498084     -9.602915     -8.777555
    35      9.043196     -8.796216     -9.547482
    36      6.871396     -8.499151     -7.352654
    37      0.660412     -2.078651     -8.080439
    38     -0.293718     -3.691595     -7.892694
    39      1.697651     -2.114488     -6.441464
    40    -10.939044      1.343119     -2.940960
    41     -9.589353      0.752759     -4.023911
    42     -9.939583      2.082616     -1.527494
    43     10.580915     -3.112403     -9.071386
    44      9.405647     -1.880861     -8.285786
    45     11.460250     -2.098720    -10.362901
    46      9.837030      7.867094      3.231872
    47     10.602921      8.899705      1.840223
    48      9.724502      8.796749      4.913541
    49      6.160802     10.175383    -11.476447
    50      6.424602      8.593405    -10.670002
    51      6.792020     11.527448    -10.351529
    52     -2.189622      9.413440      0.047646
    53     -0.830134      9.791533      1.282313
    54     -1.642784      7.807392     -0.761452
    55     10.322565      3.058459      2.684615
    56     10.378926      2.031136      4.148820
    57     10.408865      4.913587      3.177306
    58     -0.943950    -10.244827     -4.905461
    59      0.499897    -10.875022     -3.906671
    60     -1.783329    -11.851860     -5.508650
    61    -10.953276     -1.368664      6.227736
    62    -11.556459     -2.482501      4.845774
    63     -9.078361     -1.070526      6.166713
    64     -1.807119     -2.607019      4.858297
    65     -1.010822     -1.673829      6.275246
    66     -2.612384     -4.216863      5.544462
    67     -4.926688      4.854689      8.285453
    68     -4.805449      3.074781      7.789719
    69     -3.109845      5.010987      8.855869
    70    -10.694023     -6.757288     -5.510479
    71     -9.802486     -8.093342     -6.417336
    72    -11.297028     -5.496342     -6.765603
    73     -3.905153      9.967748     -7.154186
    74     -4.842125      8.862190     -6.182345
    75     -3.194839      8.989372     -8.678490
    76     10.785194     -3.129303      1.209204
    77      9.283391     -2.109403      1.873692
    78     11.049240     -2.308221     -0.385387
    79     -5.149651     -7.175747    -11.402834
    80     -6.480313     -7.933431    -10.283786
    81     -3.458804     -7.334157    -10.498266
    82      3.949153     -8.487414      3.464764
    83      5.780370     -8.434828      3.792257
    84      3.602990     -6.709645      3.503084
    85     -6.215579      0.116481     -5.183398
    86     -6.055346     -1.196565     -6.584813
    87     -5.379905     -0.739404     -3.667756
    88      3.716623     -8.346862     11.230368
    89      2.775456     -9.757246     10.634400
    90      5.107161     -8.935870     12.272087
    91     -2.004021      1.088146    -10.712398
    92     -3.658377      0.259365    -10.840242
    93     -0.928147     -0.017348     -9.706232
    94      0.269212      1.350045      8.405203
    95     -1.079287      1.515959      9.891418
    96      1.784283      0.898871      9.280779
    97     -5.394522      6.809454      3.246965
    98     -4.688201      6.449579      4.857193
    99     -4.089305      7.651201      2.158568
   100     -9.593159     -7.655827      3.930596
   101     -9.242235     -6.517323      2.561061
   102     -8.111821     -7.562380      4.997681
   103     -7.904626    -10.095217     -8.435747
   104     -8.286759    -10.628050    -10.230070
   105     -6.597597    -11.456771     -8.035310
   106      6.983413     -5.122089      8.609859
   107      8.021978     -6.099664      7.288194
   108      5.437545     -6.092900      9.011089
   109     -9.161664      9.870949     10.808576
   110     -8.642823      8.208099     11.662375
   111     -8.265707     10.170884      9.228574
   112     -7.940933     -5.703154     -1.056036
   113     -6.814730     -7.366791     -1.261188
   114     -8.670663     -5.523218     -2.758012
   115      8.626993      4.390242      8.878621
   116      7.728337      4.463947     10.509421
   117      9.009551      6.115717      8.278975
   118      6.746897     -1.091767      4.616746
   119      6.937886     -2.071900      6.125589
   120      5.606551      0.394775      4.891095
   121      1.883099     10.264104      9.459485
   122      1.672064      9.989640      7.655681
   123      3.663060      9.884864      9.706452
   124      7.465605      2.150743     -1.286337
   125      8.490020      2.154507      0.285358
   126      8.872835      1.932506     -2.477954
   127     -7.983397      5.137659    -10.926230
   128     -6.827580      4.906103    -12.509573
   129     -6.654963      4.859117     -9.619541
   130    -10.352878      0.347541     10.995428
   131    -10.579137      2.116939     11.379269
   132    -10.826753      0.125342      9.220297
   133      7.376924      0.813697     -7.079324
   134      6.646116      0.259493     -8.582514
   135      8.896770      1.771550     -7.562452
   136      1.383393     10.423276      4.506025
   137      2.066952     12.205522      4.262493
   138      2.815584      9.363181      3.773806
   139     -4.065619      4.459277     -7.186638
   140     -3.141439      3.467162     -8.404049
   141     -5.137436      3.132191     -6.259431
   142     -5.968974     -0.081993      5.722796
   143     -4.581881     -1.128726      5.068363
   144     -6.742824      0.912343      4.343556
   145     -0.523123     -7.244556     -8.617212
   146     -0.355204     -8.590257     -7.239671
   147      0.623702     -7.791860     -9.967478
   148     -6.217326     -1.602068    -10.553973
   149     -5.631308     -3.392030    -11.196682
   150     -7.678946     -1.097534    -11.810359
   151      4.444001      4.411018     -9.291016
   152      4.907241      4.118771     -7.406751
   153      3.886517      2.702223     -9.876089
   154     10.144993      9.811781      8.197324
   155     11.790447      9.890689      9.171223
   156      8.702531     10.050573      9.417004
   157      5.238315     -7.056018     -4.167224
   158      3.913347     -8.207332     -3.300994
   159      6.506395     -7.063124     -2.794576
   160      3.074482     -3.867154      2.322300
   161      4.213275     -2.641191      2.995445
   162      1.606466     -3.593208      3.382922
   163      9.605886     -8.133457     -1.560555
   164     10.618426     -7.767615     -3.152384
   165     10.184373     -6.972241     -0.289079
   166     -7.738026      6.779799     -3.554556
   167     -7.093643      6.951987     -1.815792
   168     -9.167698      7.999099     -3.556712
   169     -7.717400     11.024562      5.721883
   170     -6.948750      9.760921      4.733452
   171     -9.076205     11.902646      4.840944
   172     11.014023     10.515099     -0.983053
   173     10.163886     10.094392     -2.611704
   174     11.052379     12.300122     -1.033928
   175     -5.353993    -10.129839     -2.013930
   176     -4.332137    -11.199103     -0.741861
   177     -3.898787     -9.807329     -3.158507
 
  MM charges 
  ---------- 
     1     -0.674440
     2      0.337220
     3      0.337220
     4     -0.674440
     5      0.337220
     6      0.337220
     7     -0.674440
     8      0.337220
     9      0.337220
    10     -0.674440
    11      0.337220
    12      0.337220
    13     -0.674440
    14      0.337220
    15      0.337220
    16     -0.674440
    17      0.337220
    18      0.337220
    19     -0.674440
    20      0.337220
    21      0.337220
    22     -0.674440
    23      0.337220
    24      0.337220
    25     -0.674440
    26      0.337220
    27      0.337220
    28     -0.674440
    29      0.337220
    30      0.337220
    31     -0.674440
    32      0.337220
    33      0.337220
    34     -0.674440
    35      0.337220
    36      0.337220
    37     -0.674440
    38      0.337220
    39      0.337220
    40     -0.674440
    41      0.337220
    42      0.337220
    43     -0.674440
    44      0.337220
    45      0.337220
    46     -0.674440
    47      0.337220
    48      0.337220
    49     -0.674440
    50      0.337220
    51      0.337220
    52     -0.674440
    53      0.337220
    54      0.337220
    55     -0.674440
    56      0.337220
    57      0.337220
    58     -0.674440
    59      0.337220
    60      0.337220
    61     -0.674440
    62      0.337220
    63      0.337220
    64     -0.674440
    65      0.337220
    66      0.337220
    67     -0.674440
    68      0.337220
    69      0.337220
    70     -0.674440
    71      0.337220
    72      0.337220
    73     -0.674440
    74      0.337220
    75      0.337220
    76     -0.674440
    77      0.337220
    78      0.337220
    79     -0.674440
    80      0.337220
    81      0.337220
    82     -0.674440
    83      0.337220
    84      0.337220
    85     -0.674440
    86      0.337220
    87      0.337220
    88     -0.674440
    89      0.337220
    90      0.337220
    91     -0.674440
    92      0.337220
    93      0.337220
    94     -0.674440
    95      0.337220
    96      0.337220
    97     -0.674440
    98      0.337220
    99      0.337220
   100     -0.674440
   101      0.337220
   102      0.337220
   103     -0.674440
   104      0.337220
   105      0.337220
   106     -0.674440
   107      0.337220
   108      0.337220
   109     -0.674440
   110      0.337220
   111      0.337220
   112     -0.674440
   113      0.337220
   114      0.337220
   115     -0.674440
   116      0.337220
   117      0.337220
   118     -0.674440
   119      0.337220
   120      0.337220
   121     -0.674440
   122      0.337220
   123      0.337220
   124     -0.674440
   125      0.337220
   126      0.337220
   127     -0.674440
   128      0.337220
   129      0.337220
   130     -0.674440
   131      0.337220
   132      0.337220
   133     -0.674440
   134      0.337220
   135      0.337220
   136     -0.674440
   137      0.337220
   138      0.337220
   139     -0.674440
   140      0.337220
   141      0.337220
   142     -0.674440
   143      0.337220
   144      0.337220
   145     -0.674440
   146      0.337220
   147      0.337220
   148     -0.674440
   149      0.337220
   150      0.337220
   151     -0.674440
   152      0.337220
   153      0.337220
   154     -0.674440
   155      0.337220
   156      0.337220
   157     -0.674440
   158      0.337220
   159      0.337220
   160     -0.674440
   161      0.337220
   162      0.337220
   163     -0.674440
   164      0.337220
   165      0.337220
   166     -0.674440
   167      0.337220
   168      0.337220
   169     -0.674440
   170      0.337220
   171      0.337220
   172     -0.674440
   173      0.337220
   174      0.337220
   175     -0.674440
   176      0.337220
   177      0.337220
 
  MM isotropic polarizabilities in au 
  ----------------------------------- 
     1      5.739350
     2      2.308390
     3      2.308390
     4      5.739350
     5      2.308390
     6      2.308390
     7      5.739350
     8      2.308390
     9      2.308390
    10      5.739350
    11      2.308390
    12      2.308390
    13      5.739350
    14      2.308390
    15      2.308390
    16      5.739350
    17      2.308390
    18      2.308390
    19      5.739350
    20      2.308390
    21      2.308390
    22      5.739350
    23      2.308390
    24      2.308390
    25      5.739350
    26      2.308390
    27      2.308390
    28      5.739350
    29      2.308390
    30      2.308390
    31      5.739350
    32      2.308390
    33      2.308390
    34      5.739350
    35      2.308390
    36      2.308390
    37      5.739350
    38      2.308390
    39      2.308390
    40      5.739350
    41      2.308390
    42      2.308390
    43      5.739350
    44      2.308390
    45      2.308390
    46      5.739350
    47      2.308390
    48      2.308390
    49      5.739350
    50      2.308390
    51      2.308390
    52      5.739350
    53      2.308390
    54      2.308390
    55      5.739350
    56      2.308390
    57      2.308390
    58      5.739350
    59      2.308390
    60      2.308390
    61      5.739350
    62      2.308390
    63      2.308390
    64      5.739350
    65      2.308390
    66      2.308390
    67      5.739350
    68      2.308390
    69      2.308390
    70      5.739350
    71      2.308390
    72      2.308390
    73      5.739350
    74      2.308390
    75      2.308390
    76      5.739350
    77      2.308390
    78      2.308390
    79      5.739350
    80      2.308390
    81      2.308390
    82      5.739350
    83      2.308390
    84      2.308390
    85      5.739350
    86      2.308390
    87      2.308390
    88      5.739350
    89      2.308390
    90      2.308390
    91      5.739350
    92      2.308390
    93      2.308390
    94      5.739350
    95      2.308390
    96      2.308390
    97      5.739350
    98      2.308390
    99      2.308390
   100      5.739350
   101      2.308390
   102      2.308390
   103      5.739350
   104      2.308390
   105      2.308390
   106      5.739350
   107      2.308390
   108      2.308390
   109      5.739350
   110      2.308390
   111      2.308390
   112      5.739350
   113      2.308390
   114      2.308390
   115      5.739350
   116      2.308390
   117      2.308390
   118      5.739350
   119      2.308390
   120      2.308390
   121      5.739350
   122      2.308390
   123      2.308390
   124      5.739350
   125      2.308390
   126      2.308390
   127      5.739350
   128      2.308390
   129      2.308390
   130      5.739350
   131      2.308390
   132      2.308390
   133      5.739350
   134      2.308390
   135      2.308390
   136      5.739350
   137      2.308390
   138      2.308390
   139      5.739350
   140      2.308390
   141      2.308390
   142      5.739350
   143      2.308390
   144      2.308390
   145      5.739350
   146      2.308390
   147      2.308390
   148      5.739350
   149      2.308390
   150      2.308390
   151      5.739350
   152      2.308390
   153      2.308390
   154      5.739350
   155      2.308390
   156      2.308390
   157      5.739350
   158      2.308390
   159      2.308390
   160      5.739350
   161      2.308390
   162      2.308390
   163      5.739350
   164      2.308390
   165      2.308390
   166      5.739350
   167      2.308390
   168      2.308390
   169      5.739350
   170      2.308390
   171      2.308390
   172      5.739350
   173      2.308390
   174      2.308390
   175      5.739350
   176      2.308390
   177      2.308390


     ************************************************************************
     ************************** Output from HERINT **************************
     ************************************************************************



                      Nuclear contribution to dipole moments
                      --------------------------------------

                 au               Debye          C m (/(10**-30)

      x      2.47611381         6.29365314        20.99336714
      y     33.95950285        86.31644099       287.92065539
      z    -29.67078264       -75.41560222      -251.55937120



 Threshold for neglecting two-electron integrals:  1.00D-12
 HERMIT - Number of two-electron integrals written:    35686601 ( 39.9% )
 HERMIT - Megabytes written:                            408.630

  Time used in TWOINT     is       6.78 seconds
  Total CPU  time used in HERMIT:   6.97 seconds
  Total wall time used in HERMIT:   9.75 seconds


                        .----------------------------------.
                        | End of Integral Section (HERMIT) |
                        `----------------------------------'



                   .--------------------------------------------.
                   | Starting in Wave Function Section (SIRIUS) |
                   `--------------------------------------------'

NCCEXCI for singlet:    1
 CCSD_INPUT: core-val requested
 Requested number of virtual orbs per sym
                     1
 Indices of requested virtual orbs
                     1
 CCSD_INPUT: core-val requested
 Requested number of core orbs per sym
                     1
 Indices of requested core orbs
                     1

 *** Output from Huckel module :

     Using EWMO model:          T
     Using EHT  model:          F
     Number of Huckel orbitals each symmetry:   37

 EWMO - Energy Weighted Maximum Overlap - is a Huckel type method,
        which normally is better than Extended Huckel Theory.
 Reference: Linderberg and Ohrn, Propagators in Quantum Chemistry (Wiley, 1973)

 Huckel EWMO eigenvalues for symmetry :  1
          -20.684899     -20.684758     -20.684600     -20.684277     -15.675712
           -1.797378      -1.623100      -1.602827      -1.588747      -1.504090
           -0.824579      -0.789700      -0.783303      -0.778877      -0.778070
           -0.752798      -0.747599      -0.684172      -0.675292      -0.663237
           -0.643881      -0.614589      -0.587552      -0.580590      -0.551142
           -0.257495      -0.244961      -0.238059      -0.233413      -0.183366
           -0.179671      -0.175649      -0.175161      -0.170986      -0.149342
           -0.147106      -0.134820

 **********************************************************************
 *SIRIUS* a direct, restricted step, second order MCSCF program       *
 **********************************************************************

 
     Date and time (Linux)  : Wed Nov 28 16:57:23 2018
     Host name              : n-62-29-5                               

 Title lines from ".mol" input file:
                                                                             
                                                                             

 Print level on unit LUPRI =   2 is   0
 Print level on unit LUW4  =   2 is  11

@    (Integral direct) CC calculation.

@    This is a combination run starting with
@              a restricted, closed shell Hartree-Fock calculation


 Initial molecular orbitals are obtained according to
 ".MOSTART EWMO  " input option

@    QM part is embedded in an environment :

@         Model: QMMM

     Wave function specification
     ============================

     For the specification of the Coupled Cluster: see later.

@    Wave function type        --- CC ---
@    Number of closed shell electrons          50
@    Number of electrons in active shells       0
@    Total charge of the molecule               1

@    Spin multiplicity and 2 M_S                1         0
@    Total number of symmetries                 1 (point group: C1 )
@    Reference state symmetry                   1 (irrep name : A  )

     Orbital specifications
     ======================
@    Abelian symmetry species          All |    1
@                                          |  A  
                                       --- |  ---
@    Occupied SCF orbitals              25 |   25
@    Secondary orbitals                138 |  138
@    Total number of orbitals          163 |  163
@    Number of basis functions         163 |  163

     Optimization information
     ========================
@    Number of configurations                 1
@    Number of orbital rotations           3450
     ------------------------------------------
@    Total number of variables             3451

     Maximum number of Fock   iterations      0
     Maximum number of DIIS   iterations     60
     Maximum number of QC-SCF iterations     60
     Threshold for SCF convergence     1.00D-07


 Changes of defaults for CC:
 ---------------------------


 -Implicit frozen core calculation
 -Excitation energies calculated
 -One-photon absorption strengths will be calculated
 -Oscillator strengths calculated
  
* Read MO coefficients from SIRIUS.RST with label "NEWORB  " and header info: 28Nov18  REORTHO 


 ***********************************************
 ***** DIIS acceleration of SCF iterations *****
 ***********************************************

 C1-DIIS algorithm; max error vectors =    8
 -----------------------------------------------------------------------------

 *** DIIS iteration number    1
 RDSUPM called. NFMAT, ISYMDM(1:NFMAT)                     1
                     1

Calculating AOSUPINT
     (Precalculated two-electron integrals are transformed to P-supermatrix elements.
      Threshold for discarding integrals :  1.00D-12 )
  CPU  time used in FORMSUP    is   4.72 seconds
  WALL time used in FORMSUP    is  12.78 seconds

 ITDIIS, energy, error norm, change in energy, scr.thr., difden:
@ DIIS iter.   1    -360.176050416        4.04993D+00   -3.60D+02  -20    F

 (DIIS_RED) Control Parameters C2DIIS =         F NEVC =    1


 (DIIS_RED) B matrix:

               Column   1
       1      16.40190343
    ==== End of matrix output ====

 DIIS C vector; C2DIIS = F, LAMBDA = -1.64D+01
    1.000000
* Read MO coefficients from SIRIUS.RST with label "NEWORB  " and header info: 28Nov18  DIIS   1
      Virial theorem: -V/T =      2.003192
@      MULPOP N       0.13; H       0.16; H       0.15; H       0.16; H       0.19; O      -0.61; O      -0.58; O      -0.57; O      -0.61; H       0.33; 
@             H       0.33; H       0.31; H       0.32; H       0.32; H       0.32; H       0.32; H       0.33; 
   1  Level shift: doubly occupied orbital energies shifted by -2.00D-01

 DIIS Fock eigenvalues in symmetry 1
      -20.88732      -20.84008      -20.81787      -20.81397      -16.50033
       -1.75557       -1.70007       -1.64941       -1.63857       -1.63536
       -1.24699       -1.22173       -1.20792       -1.07335       -1.02710
       -1.01689       -1.00692       -0.94556       -0.91368       -0.91082
       -0.88406       -0.88087       -0.86494       -0.84659       -0.83884
       -0.02155       -0.00005        0.03677        0.05912        0.07023
        0.10521        0.13309        0.14872        0.15765        0.16488
        0.18488        0.19750        0.21198        0.23871        0.25243
        0.26737        0.40526        0.43089        0.43858        0.46687
        0.47440        0.48132        0.48961        0.51478        0.53679
        0.64931        0.68674        0.70335        0.81290        0.82181
        0.85072        0.87710        0.89430        0.92359        0.94271
        0.96942        0.97736        0.98746        1.00397        1.02668
        1.03312        1.07459        1.08997        1.23054        1.25790
        1.28277        1.32334        1.32879        1.35201        1.37259
        1.37839        1.38939        1.40062        1.41008        1.42291
        1.49801        1.52104        1.53656        1.54691        1.55835
        1.61878        1.67989        1.72970        1.75212        1.77094
        1.84085        1.84546        1.89734        2.00217        2.05250
        2.06192        2.09082        2.11785        2.13269        2.14352
        2.17337        2.17991        2.20350        2.23348        2.28903
        2.34229        2.38345        2.48017        2.49147        2.50177
        2.53755        2.57657        2.58070        2.63047        2.65503
        2.66406        2.68928        2.70136        2.74709        2.92781
        2.99303        3.00639        3.07940        3.28852        3.32871
        3.33786        3.35058        3.38066        3.38570        3.40187
        3.41103        3.48871        3.49214        3.54524        3.59734
        3.82469        3.83817        3.89380        3.89457        4.04476
        4.04933        4.09244        4.15760        4.62205        4.71111
        4.83962        5.22579        5.23785        5.24445        5.29246
        5.65031        5.70168        5.71978        5.76681        5.91912
        5.94916        6.01307        6.03284       36.33112       51.41345
       51.41967       51.46313       51.48264
 Time used in FCKEIG, thr_jaco:   4.90D-02  5.80D-02  1.72D-04
 CPU and wall times used in FCKEIG, THR_FCKEIG:   4.90D-02  5.80D-02  4.05D-02
 -----------------------------------------------------------------------------

 *** DIIS iteration number    2
 RDSUPM called. NFMAT, ISYMDM(1:NFMAT)                     1
                     1

 ITDIIS, energy, error norm, change in energy, scr.thr., difden:
@ DIIS iter.   2    -361.101603259        1.17261D+00   -9.26D-01  -20    F

 (DIIS_RED) Control Parameters C2DIIS =         F NEVC =    2


 (DIIS_RED) B matrix:

               Column   1     Column   2
       1      16.40190343
       2       0.74379357     1.37500288
    ==== End of matrix output ====

 DIIS C vector; C2DIIS = F, LAMBDA = -1.35D+00
    0.038750    0.961250
* Read MO coefficients from SIRIUS.RST with label "NEWORB  " and header info: 28Nov18  DIIS   2
      Virial theorem: -V/T =      2.001570
@      MULPOP N      -0.54; H       0.32; H       0.33; H       0.35; H       0.34; O      -0.59; O      -0.59; O      -0.59; O      -0.60; H       0.33; 
@             H       0.31; H       0.34; H       0.30; H       0.32; H       0.34; H       0.34; H       0.30; 
   2  Level shift: doubly occupied orbital energies shifted by -1.00D-01

 DIIS Fock eigenvalues in symmetry 1
      -20.80959      -20.79193      -20.75914      -20.73742      -15.64923
       -1.58238       -1.54363       -1.52513       -1.52149       -1.40451
       -0.94223       -0.92149       -0.90476       -0.89112       -0.88457
       -0.87473       -0.87255       -0.81480       -0.80560       -0.77329
       -0.76785       -0.74907       -0.73882       -0.71332       -0.70517
       -0.00005        0.04156        0.07757        0.10787        0.11360
        0.15874        0.16775        0.18071        0.20629        0.21924
        0.25143        0.25499        0.26950        0.32032        0.34189
        0.37419        0.44153        0.47198        0.48142        0.50429
        0.51922        0.52465        0.55611        0.57039        0.59539
        0.77775        0.82653        0.83795        0.85105        0.88883
        0.90409        0.92947        0.96328        0.97455        0.98957
        1.01302        1.02324        1.02629        1.03930        1.07594
        1.11732        1.17033        1.18897        1.26776        1.30538
        1.33432        1.38214        1.39176        1.40565        1.43258
        1.43631        1.43798        1.45473        1.47026        1.48763
        1.59610        1.61149        1.61758        1.63167        1.65626
        1.72788        1.75492        1.78481        1.81341        1.84177
        1.90563        1.95987        1.99661        2.09504        2.10654
        2.11322        2.16550        2.18374        2.22769        2.23619
        2.25570        2.28069        2.29976        2.33587        2.36366
        2.45378        2.49478        2.55335        2.56661        2.58930
        2.64080        2.66880        2.68871        2.70122        2.72363
        2.73757        2.78834        2.92311        2.96502        3.10479
        3.21273        3.29031        3.32213        3.33420        3.35771
        3.37228        3.38389        3.42072        3.42799        3.44233
        3.51249        3.52375        3.53699        3.57481        3.63367
        3.85623        3.86523        3.92143        3.92674        4.06606
        4.08453        4.11834        4.18975        5.00968        5.10041
        5.17514        5.24641        5.25974        5.30400        5.31620
        5.65506        5.72186        5.73348        5.78230        5.93284
        5.98209        6.03477        6.06474       37.06465       51.36649
       51.39691       51.42421       51.46135
 Time used in FCKEIG, thr_jaco:   3.90D-02  8.10D-02  4.99D-05
 CPU and wall times used in FCKEIG, THR_FCKEIG:   3.90D-02  8.10D-02  1.17D-02
 -----------------------------------------------------------------------------

 *** DIIS iteration number    3
 RDSUPM called. NFMAT, ISYMDM(1:NFMAT)                     1
                     1

 ITDIIS, energy, error norm, change in energy, scr.thr., difden:
@ DIIS iter.   3    -361.181103355        3.78108D-01   -7.95D-02  -20    F

 (DIIS_RED) Control Parameters C2DIIS =         F NEVC =    3


 (DIIS_RED) B matrix:

               Column   1     Column   2     Column   3
       1      16.40190343
       2       0.74379357     1.37500288
       3       0.83496576     0.00351543     0.14296546
    ==== End of matrix output ====

 DIIS C vector; C2DIIS = F, LAMBDA = -9.75D-02
   -0.046826    0.093790    0.953036
* Read MO coefficients from SIRIUS.RST with label "NEWORB  " and header info: 28Nov18  DIIS   3
      Virial theorem: -V/T =      2.002996
@      MULPOP N      -0.34; H       0.27; H       0.28; H       0.31; H       0.31; O      -0.64; O      -0.65; O      -0.66; O      -0.66; H       0.35; 
@             H       0.34; H       0.37; H       0.32; H       0.34; H       0.36; H       0.37; H       0.33; 
   3  Level shift: doubly occupied orbital energies shifted by -5.00D-02

 DIIS Fock eigenvalues in symmetry 1
      -20.72120      -20.70751      -20.67573      -20.66050      -15.81305
       -1.51374       -1.47814       -1.45961       -1.45812       -1.40672
       -0.90172       -0.87200       -0.86797       -0.85109       -0.83729
       -0.82395       -0.80994       -0.74991       -0.73843       -0.70519
       -0.70358       -0.68420       -0.66677       -0.64076       -0.63224
       -0.00005        0.04667        0.08364        0.11256        0.11863
        0.16263        0.17238        0.18382        0.21022        0.22357
        0.25073        0.25677        0.27157        0.32087        0.34056
        0.37362        0.45267        0.48339        0.48941        0.51435
        0.52923        0.53486        0.56539        0.57553        0.59736
        0.77158        0.81794        0.83748        0.85560        0.89250
        0.90838        0.93960        0.97378        0.98553        1.00291
        1.01993        1.03602        1.03850        1.04953        1.08605
        1.11509        1.16927        1.19118        1.27828        1.31439
        1.34293        1.39670        1.40510        1.41931        1.44560
        1.44631        1.45216        1.46532        1.48364        1.49442
        1.60323        1.61746        1.62428        1.63849        1.66129
        1.73282        1.76379        1.79584        1.82557        1.85145
        1.91629        1.95768        1.99813        2.10491        2.11540
        2.12997        2.18109        2.19784        2.23303        2.24859
        2.26129        2.28395        2.31140        2.33549        2.37392
        2.46002        2.50067        2.56582        2.57624        2.59517
        2.64789        2.67670        2.69399        2.71241        2.73466
        2.74738        2.79810        2.89062        2.93100        3.09685
        3.19086        3.24996        3.30556        3.33691        3.38051
        3.39557        3.40467        3.43794        3.45156        3.46356
        3.51439        3.53929        3.55779        3.59857        3.65534
        3.87916        3.88996        3.94411        3.94704        4.09050
        4.11227        4.14320        4.21219        4.93288        5.02475
        5.13248        5.27087        5.28018        5.30463        5.32848
        5.67991        5.74820        5.76074        5.80574        5.96040
        6.01328        6.06244        6.08874       36.85729       51.40117
       51.43541       51.45787       51.48863
 Time used in FCKEIG, thr_jaco:   3.00D-02  3.10D-02  1.61D-05
 CPU and wall times used in FCKEIG, THR_FCKEIG:   3.00D-02  3.10D-02  3.78D-03
 -----------------------------------------------------------------------------

 *** DIIS iteration number    4
 RDSUPM called. NFMAT, ISYMDM(1:NFMAT)                     1
                     1

 ITDIIS, energy, error norm, change in energy, scr.thr., difden:
@ DIIS iter.   4    -361.191840471        9.40373D-02   -1.07D-02  -20    F

 (DIIS_RED) Control Parameters C2DIIS =         F NEVC =    4


 (DIIS_RED) B matrix:

               Column   1     Column   2     Column   3     Column   4
       1      16.40190343
       2       0.74379357     1.37500288
       3       0.83496576     0.00351543     0.14296546
       4       0.06373118     0.08088611     0.00724848     0.00884302
    ==== End of matrix output ====

 DIIS C vector; C2DIIS = F, LAMBDA = -4.53D-03
   -0.000135   -0.060176   -0.020837    1.081148
* Read MO coefficients from SIRIUS.RST with label "NEWORB  " and header info: 28Nov18  DIIS   4
      Virial theorem: -V/T =      2.002714
@      MULPOP N      -0.42; H       0.29; H       0.30; H       0.33; H       0.32; O      -0.66; O      -0.67; O      -0.67; O      -0.68; H       0.36; 
@             H       0.34; H       0.38; H       0.33; H       0.35; H       0.37; H       0.38; H       0.33; 
   4  Level shift: doubly occupied orbital energies shifted by -1.25D-02

 DIIS Fock eigenvalues in symmetry 1
      -20.69907      -20.68071      -20.64956      -20.63216      -15.73981
       -1.48125       -1.44477       -1.42638       -1.42397       -1.35587
       -0.85341       -0.83783       -0.81861       -0.80449       -0.80086
       -0.79024       -0.77522       -0.71351       -0.70264       -0.66915
       -0.66689       -0.64641       -0.62915       -0.60306       -0.59357
       -0.00005        0.04749        0.08265        0.11293        0.11832
        0.16302        0.17246        0.18416        0.21103        0.22363
        0.25524        0.25940        0.27439        0.32702        0.34717
        0.38008        0.45230        0.48265        0.49022        0.51264
        0.52856        0.53440        0.56448        0.57701        0.60066
        0.77796        0.82490        0.84472        0.85630        0.89580
        0.91111        0.94175        0.97381        0.98596        1.00212
        1.02127        1.03529        1.03675        1.04979        1.08611
        1.11878        1.17213        1.19444        1.27923        1.31636
        1.34496        1.39509        1.40445        1.41700        1.44428
        1.44594        1.45006        1.46503        1.48127        1.49508
        1.60538        1.62064        1.62599        1.63966        1.66650
        1.73757        1.76553        1.79418        1.82421        1.85262
        1.91513        1.96375        2.00372        2.10636        2.11707
        2.12698        2.17808        2.19500        2.23705        2.24693
        2.26246        2.28861        2.30986        2.34130        2.37280
        2.46307        2.50737        2.56352        2.57539        2.59982
        2.64953        2.67930        2.69676        2.71307        2.73369
        2.74780        2.79697        2.90298        2.94361        3.10568
        3.20050        3.26425        3.31677        3.33500        3.37783
        3.39282        3.40158        3.43695        3.44855        3.46163
        3.51883        3.53703        3.55429        3.59576        3.65358
        3.87601        3.88596        3.94090        3.94478        4.08777
        4.10816        4.14020        4.21041        4.95111        5.04325
        5.14553        5.26615        5.27633        5.30451        5.32363
        5.67544        5.74271        5.75474        5.80192        5.95465
        6.00541        6.05635        6.08391       36.89259       51.39073
       51.42049       51.44686       51.47975
 Time used in FCKEIG, thr_jaco:   2.80D-02  2.90D-02  4.00D-06
 CPU and wall times used in FCKEIG, THR_FCKEIG:   2.80D-02  2.90D-02  9.40D-04
 -----------------------------------------------------------------------------

 *** DIIS iteration number    5
 RDSUPM called. NFMAT, ISYMDM(1:NFMAT)                     1
                     1

 ITDIIS, energy, error norm, change in energy, scr.thr., difden:
@ DIIS iter.   5    -361.192900926        2.87932D-02   -1.06D-03  -20    F

 (DIIS_RED) Control Parameters C2DIIS =         F NEVC =    5


 (DIIS_RED) B matrix:

               Column   1     Column   2     Column   3     Column   4     Column   5
       1      16.40190343
       2       0.74379357     1.37500288
       3       0.83496576     0.00351543     0.14296546
       4       0.06373118     0.08088611     0.00724848     0.00884302
       5       0.02145052     0.00712727     0.00574636     0.00097859     0.00082905
    ==== End of matrix output ====

 DIIS C vector; C2DIIS = F, LAMBDA = -5.79D-04
    0.001250   -0.009485   -0.046156    0.072383    0.982008
* Read MO coefficients from SIRIUS.RST with label "NEWORB  " and header info: 28Nov18  DIIS   5
      Virial theorem: -V/T =      2.002436
@      MULPOP N      -0.40; H       0.29; H       0.29; H       0.33; H       0.32; O      -0.67; O      -0.68; O      -0.68; O      -0.69; H       0.37; 
@             H       0.35; H       0.39; H       0.33; H       0.36; H       0.38; H       0.39; H       0.34; 

 DIIS Fock eigenvalues in symmetry 1
      -20.67718      -20.66228      -20.63073      -20.61440      -15.72515
       -1.46541       -1.43017       -1.41165       -1.40959       -1.34225
       -0.83972       -0.82299       -0.80496       -0.79063       -0.78699
       -0.77631       -0.76147       -0.69834       -0.68845       -0.65488
       -0.65289       -0.63041       -0.61383       -0.58758       -0.57838
       -0.00005        0.04797        0.08294        0.11326        0.11860
        0.16332        0.17286        0.18447        0.21142        0.22389
        0.25596        0.26005        0.27508        0.32791        0.34807
        0.38112        0.45297        0.48332        0.49098        0.51301
        0.52914        0.53499        0.56492        0.57751        0.60144
        0.77914        0.82622        0.84584        0.85797        0.89759
        0.91267        0.94341        0.97531        0.98728        1.00362
        1.02246        1.03646        1.03816        1.05085        1.08729
        1.11985        1.17317        1.19557        1.28059        1.31777
        1.34645        1.39589        1.40531        1.41725        1.44489
        1.44650        1.45049        1.46591        1.48155        1.49594
        1.60588        1.62142        1.62664        1.64021        1.66737
        1.73864        1.76618        1.79415        1.82439        1.85311
        1.91521        1.96463        2.00459        2.10700        2.11800
        2.12814        2.17872        2.19548        2.23802        2.24777
        2.26365        2.28955        2.31056        2.34209        2.37350
        2.46382        2.50835        2.56371        2.57556        2.60056
        2.65002        2.67997        2.69725        2.71339        2.73364
        2.74806        2.79695        2.90405        2.94465        3.10680
        3.20223        3.26555        3.31842        3.33719        3.38021
        3.39500        3.40484        3.43886        3.45082        3.46347
        3.52138        3.53921        3.55759        3.59802        3.65536
        3.87829        3.88916        3.94312        3.94662        4.09009
        4.11180        4.14266        4.21241        4.95275        5.04483
        5.14798        5.26986        5.27972        5.30866        5.32739
        5.67871        5.74681        5.75919        5.80478        5.95769
        6.01028        6.05957        6.08653       36.89470       51.39661
       51.42972       51.45310       51.48495
 Time used in FCKEIG, thr_jaco:   2.90D-02  6.60D-02  1.23D-06
 CPU and wall times used in FCKEIG, THR_FCKEIG:   3.00D-02  6.60D-02  2.88D-04
 -----------------------------------------------------------------------------

 *** DIIS iteration number    6
 RDSUPM called. NFMAT, ISYMDM(1:NFMAT)                     1
                     1

 ITDIIS, energy, error norm, change in energy, scr.thr., difden:
@ DIIS iter.   6    -361.192985468        1.06294D-02   -8.45D-05  -20    F

 (DIIS_RED) Control Parameters C2DIIS =         F NEVC =    6


 (DIIS_RED) B matrix:

               Column   1     Column   2     Column   3     Column   4     Column   5     Column   6
       1      16.40190343
       2       0.74379357     1.37500288
       3       0.83496576     0.00351543     0.14296546
       4       0.06373118     0.08088611     0.00724848     0.00884302
       5       0.02145052     0.00712727     0.00574636     0.00097859     0.00082905
       6      -0.00540871    -0.00019476     0.00067040     0.00052140     0.00001765     0.00011298
    ==== End of matrix output ====

 DIIS C vector; C2DIIS = F, LAMBDA = -3.40D-05
    0.000767    0.006567   -0.008726   -0.129397    0.157249    0.973540
* Read MO coefficients from SIRIUS.RST with label "NEWORB  " and header info: 28Nov18  DIIS   6
      Virial theorem: -V/T =      2.002671
@      MULPOP N      -0.40; H       0.28; H       0.29; H       0.33; H       0.32; O      -0.67; O      -0.68; O      -0.68; O      -0.69; H       0.37; 
@             H       0.35; H       0.39; H       0.33; H       0.36; H       0.38; H       0.39; H       0.34; 

 DIIS Fock eigenvalues in symmetry 1
      -20.68029      -20.66422      -20.63284      -20.61609      -15.72684
       -1.46630       -1.43070       -1.41225       -1.41006       -1.34268
       -0.84028       -0.82385       -0.80536       -0.79118       -0.78748
       -0.77700       -0.76204       -0.69932       -0.68918       -0.65567
       -0.65365       -0.63110       -0.61413       -0.58792       -0.57857
       -0.00005        0.04786        0.08277        0.11313        0.11847
        0.16319        0.17272        0.18431        0.21130        0.22378
        0.25585        0.25994        0.27496        0.32779        0.34794
        0.38089        0.45273        0.48304        0.49074        0.51274
        0.52888        0.53475        0.56466        0.57728        0.60127
        0.77878        0.82590        0.84553        0.85769        0.89726
        0.91236        0.94319        0.97483        0.98692        1.00317
        1.02209        1.03605        1.03771        1.05047        1.08691
        1.11953        1.17288        1.19528        1.28027        1.31740
        1.34605        1.39548        1.40496        1.41689        1.44453
        1.44619        1.45013        1.46553        1.48120        1.49559
        1.60561        1.62117        1.62637        1.63992        1.66724
        1.73843        1.76594        1.79386        1.82409        1.85287
        1.91493        1.96444        2.00441        2.10660        2.11777
        2.12753        2.17819        2.19500        2.23765        2.24733
        2.26325        2.28928        2.31014        2.34182        2.37312
        2.46354        2.50830        2.56335        2.57520        2.60039
        2.64973        2.67972        2.69699        2.71313        2.73333
        2.74780        2.79662        2.90362        2.94420        3.10659
        3.20158        3.26499        3.31777        3.33654        3.37948
        3.39429        3.40377        3.43825        3.45003        3.46282
        3.52054        3.53853        3.55655        3.59728        3.65473
        3.87753        3.88809        3.94233        3.94597        4.08937
        4.11063        4.14184        4.21173        4.95190        5.04400
        5.14696        5.26879        5.27875        5.30730        5.32626
        5.67766        5.74546        5.75771        5.80381        5.95660
        6.00860        6.05838        6.08556       36.89304       51.39468
       51.42665       51.45102       51.48328
 Time used in FCKEIG, thr_jaco:   2.40D-02  3.10D-02  4.52D-07
 CPU and wall times used in FCKEIG, THR_FCKEIG:   2.40D-02  3.10D-02  1.06D-04
 -----------------------------------------------------------------------------

 *** DIIS iteration number    7
 RDSUPM called. NFMAT, ISYMDM(1:NFMAT)                     1
                     1

 ITDIIS, energy, error norm, change in energy, scr.thr., difden:
@ DIIS iter.   7    -361.192996379        2.21693D-03   -1.09D-05  -20    F

 (DIIS_RED) Control Parameters C2DIIS =         F NEVC =    7


 (DIIS_RED) B matrix:

               Column   1     Column   2     Column   3     Column   4     Column   5     Column   6
       1      16.40190343
       2       0.74379357     1.37500288
       3       0.83496576     0.00351543     0.14296546
       4       0.06373118     0.08088611     0.00724848     0.00884302
       5       0.02145052     0.00712727     0.00574636     0.00097859     0.00082905
       6      -0.00540871    -0.00019476     0.00067040     0.00052140     0.00001765     0.00011298
       7       0.00029775     0.00024487    -0.00002715     0.00001049     0.00004367    -0.00000152

               Column   7
       7       0.00000491
    ==== End of matrix output ====

 DIIS C vector; C2DIIS = F, LAMBDA = -1.06D-06
   -0.000229   -0.000783    0.005320    0.020874   -0.107667   -0.098147    1.180633
* Read MO coefficients from SIRIUS.RST with label "NEWORB  " and header info: 28Nov18  DIIS   7
      Virial theorem: -V/T =      2.002607
@      MULPOP N      -0.40; H       0.28; H       0.29; H       0.33; H       0.32; O      -0.67; O      -0.68; O      -0.68; O      -0.69; H       0.37; 
@             H       0.35; H       0.39; H       0.33; H       0.36; H       0.38; H       0.39; H       0.34; 

 DIIS Fock eigenvalues in symmetry 1
      -20.67984      -20.66394      -20.63255      -20.61593      -15.72644
       -1.46610       -1.43055       -1.41211       -1.40996       -1.34248
       -0.84012       -0.82370       -0.80521       -0.79107       -0.78734
       -0.77692       -0.76198       -0.69921       -0.68914       -0.65563
       -0.65362       -0.63089       -0.61396       -0.58774       -0.57842
       -0.00005        0.04792        0.08281        0.11317        0.11851
        0.16322        0.17276        0.18435        0.21134        0.22381
        0.25592        0.26000        0.27503        0.32789        0.34805
        0.38101        0.45280        0.48309        0.49082        0.51277
        0.52893        0.53480        0.56470        0.57733        0.60136
        0.77891        0.82605        0.84565        0.85779        0.89740
        0.91247        0.94330        0.97495        0.98702        1.00326
        1.02219        1.03613        1.03778        1.05053        1.08699
        1.11964        1.17298        1.19538        1.28038        1.31752
        1.34618        1.39553        1.40502        1.41691        1.44456
        1.44623        1.45015        1.46560        1.48120        1.49566
        1.60568        1.62125        1.62644        1.63998        1.66733
        1.73854        1.76600        1.79387        1.82411        1.85293
        1.91494        1.96455        2.00452        2.10666        2.11786
        2.12761        2.17822        2.19502        2.23774        2.24739
        2.26335        2.28937        2.31019        2.34193        2.37316
        2.46361        2.50840        2.56336        2.57523        2.60047
        2.64979        2.67979        2.69705        2.71317        2.73334
        2.74783        2.79663        2.90380        2.94438        3.10673
        3.20178        3.26519        3.31798        3.33667        3.37961
        3.39442        3.40397        3.43836        3.45016        3.46292
        3.52075        3.53867        3.55674        3.59741        3.65483
        3.87766        3.88828        3.94245        3.94606        4.08952
        4.11085        4.14198        4.21184        4.95216        5.04425
        5.14722        5.26898        5.27892        5.30757        5.32645
        5.67784        5.74567        5.75794        5.80393        5.95677
        6.00886        6.05855        6.08566       36.89343       51.39496
       51.42709       51.45130       51.48343
 Time used in FCKEIG, thr_jaco:   3.10D-02  7.70D-02  9.44D-08
 CPU and wall times used in FCKEIG, THR_FCKEIG:   3.10D-02  7.70D-02  2.22D-05
 -----------------------------------------------------------------------------

 *** DIIS iteration number    8
 RDSUPM called. NFMAT, ISYMDM(1:NFMAT)                     1
                     1

 ITDIIS, energy, error norm, change in energy, scr.thr., difden:
@ DIIS iter.   8    -361.192996852        3.27197D-04   -4.73D-07  -20    F

 (DIIS_RED) Control Parameters C2DIIS =         F NEVC =    8


 (DIIS_RED) B matrix:

               Column   1     Column   2     Column   3     Column   4     Column   5     Column   6
       1      16.40190343
       2       0.74379357     1.37500288
       3       0.83496576     0.00351543     0.14296546
       4       0.06373118     0.08088611     0.00724848     0.00884302
       5       0.02145052     0.00712727     0.00574636     0.00097859     0.00082905
       6      -0.00540871    -0.00019476     0.00067040     0.00052140     0.00001765     0.00011298
       7       0.00029775     0.00024487    -0.00002715     0.00001049     0.00004367    -0.00000152
       8       0.00009958    -0.00004964     0.00000945     0.00000094     0.00000032     0.00000144

               Column   7     Column   8
       7       0.00000491
       8       0.00000028     0.00000011
    ==== End of matrix output ====

 DIIS C vector; C2DIIS = F, LAMBDA = -4.89D-08
    0.000016    0.000062   -0.000862   -0.001366    0.018779   -0.008951   -0.234433    1.226756
* Read MO coefficients from SIRIUS.RST with label "NEWORB  " and header info: 28Nov18  DIIS   8
      Virial theorem: -V/T =      2.002624
@      MULPOP N      -0.40; H       0.28; H       0.29; H       0.33; H       0.32; O      -0.67; O      -0.68; O      -0.68; O      -0.69; H       0.37; 
@             H       0.35; H       0.39; H       0.33; H       0.36; H       0.38; H       0.39; H       0.34; 

 DIIS Fock eigenvalues in symmetry 1
      -20.67986      -20.66397      -20.63257      -20.61588      -15.72647
       -1.46610       -1.43056       -1.41211       -1.40994       -1.34250
       -0.84013       -0.82370       -0.80522       -0.79107       -0.78735
       -0.77692       -0.76196       -0.69923       -0.68917       -0.65565
       -0.65363       -0.63090       -0.61396       -0.58774       -0.57840
       -0.00005        0.04792        0.08280        0.11317        0.11850
        0.16322        0.17276        0.18435        0.21134        0.22381
        0.25591        0.25999        0.27502        0.32789        0.34804
        0.38100        0.45280        0.48309        0.49082        0.51276
        0.52893        0.53481        0.56470        0.57733        0.60136
        0.77890        0.82604        0.84564        0.85778        0.89739
        0.91246        0.94331        0.97495        0.98702        1.00325
        1.02219        1.03612        1.03778        1.05053        1.08699
        1.11963        1.17298        1.19538        1.28038        1.31752
        1.34618        1.39553        1.40502        1.41690        1.44456
        1.44623        1.45015        1.46559        1.48121        1.49566
        1.60567        1.62125        1.62643        1.63997        1.66733
        1.73853        1.76600        1.79387        1.82411        1.85293
        1.91494        1.96454        2.00451        2.10665        2.11785
        2.12760        2.17822        2.19502        2.23773        2.24738
        2.26334        2.28936        2.31018        2.34192        2.37316
        2.46361        2.50839        2.56336        2.57522        2.60046
        2.64978        2.67979        2.69704        2.71317        2.73333
        2.74783        2.79663        2.90378        2.94437        3.10671
        3.20176        3.26517        3.31796        3.33666        3.37960
        3.39441        3.40396        3.43837        3.45015        3.46293
        3.52074        3.53866        3.55674        3.59740        3.65484
        3.87765        3.88827        3.94244        3.94607        4.08950
        4.11084        4.14197        4.21186        4.95213        5.04423
[...]
 | 1 1 1 1 |  28   1   9   1 |     1132        1 |       640147 |   -0.149769  |
 | 1 1 1 1 |  97   1   9   1 |     1201        1 |       720601 |    0.065517  |
 | 1 1 1 1 | 120   1   9   1 |     1224        1 |       748477 |   -0.066419  |
 | 1 1 1 1 |  11   1  11   1 |     1391        1 |       966746 |    0.082037  |
 | 1 1 1 1 |  27   1  11   1 |     1407        1 |       989122 |    0.121247  |
 | 1 1 1 1 |  13   1  18   1 |     2359        1 |      2781262 |   -0.066129  |
 | 1 1 1 1 |  16   1  18   1 |     2362        1 |      2788342 |   -0.068418  |
 | 1 1 1 1 |  26   1  18   1 |     2372        1 |      2812007 |    0.073859  |
 +=============================================================================+


          Norm of Printed Amplitude Vector :             0.8469

          Printed all single excitations greater than 0.382387

          Printed all double excitations greater than 0.064430



+======================================================================+
| contributions of excitation levels to right eigenvectors as computed |
| from the (RE|RE) self overlap                                        |
+----------------------------------------------------------------------+
| sym | multi | state |    E / eV  | % singles | % doubles | % triples |
+======================================================================+
|    1|   1   |   1   |  411.89029 |  88.2753  |  11.7247  |   0.0000  |
+======================================================================+





+======================================================================+
| contributions of excitation levels to excited states as computed     |
| from the (LE|RE) overlap                                             |
+----------------------------------------------------------------------+
| sym | multi | state |    E / eV  | % singles | % doubles | % triples |
+======================================================================+
|    1|   1   |   1   |  411.89029 |  79.2796  |  20.7204  |   0.0000  |
+======================================================================+



 --------------------------
 Symmetry class Nr.:     1
 Multiplicity      :     3
 --------------------------

 Length of Excitation vectors in this class is:   8404200
 No Excitation Energies calculated in this symmetry class
     

   *******************************************************************
   *                                                                 *
   *--------   OUTPUT FROM PROPERTY AND SYMMETRY ANALYSIS   ---------*
   *                                                                 *
   *******************************************************************



                         +-------------------------------+
                         ! REQUESTED PROPERTY OPERATORS: !
                         +-------------------------------+

             Index   Oper. Label  Symmetry  Transp.  PDBS  Atom
             --------------------------------------------------
                1     HAM0            1        1      T      0
                2     XDIPLEN         1        1      F      0
                3     YDIPLEN         1        1      F      0
                4     ZDIPLEN         1        1      F      0
             --------------------------------------------------




                         +-------------------------------+
                         ! REQUESTED EXPECTATION VALUES: !
                         +-------------------------------+

                       Index   Oper. Label  Symmetry
                       -----------------------------
                       -----------------------------




                       +------------------------------------+
                       ! REQUESTED EFFECTIVE FOCK MATRICES: !
                       +------------------------------------+

                       Index   Oper. Label  Symmetry
                       -----------------------------
                       -----------------------------




                        +----------------------------------+
                        ! REQUESTED FIRST ORDER M-VECTORS: !
                        +----------------------------------+

               Index   State Symmetry  Frequency
               --------------------------------------------------
                  1             1    1     1.513669D+01
               --------------------------------------------------


      

    *******************************************************************
    *          SOLVING COUPLED CLUSTER RESPONSE EQUATIONS             *
    *******************************************************************



 
 +======================================================================+
 !                     RHS & ETA VECTORS TO COMPUTE:                    !
 +======================================================================+
 | TYPE | # VEC. |  NEEDED FOR:                                         |
 +----------------------------------------------------------------------+
 +======================================================================+



 +======================================================================+
 !                       LINEAR EQUATIONS TO SOLVE:                     !
 +======================================================================+
 | TYPE | # VEC. |  EQUATION:                                           |
 +----------------------------------------------------------------------+
 |  M1  |    1   |  first-order ground - excited state multipliers      |
 +======================================================================+



 +======================================================================+
 !                F MATRIX TRANSFORMATIONS TO COMPUTE:                  !
 +======================================================================+
 | TYPE | # VEC. |  TRANSFORMED:                                        |
 +----------------------------------------------------------------------+
 |  FR  |    1   |  right eigenvectors (RE)                             |
 +======================================================================+





 Testing R1 list: 

 List nr.  Label     Symmetry      Frequency      T1-norm        T2-norm


 Testing L1 list: 

 List nr.  Label     Symmetry      Frequency      T1-norm        T2-norm
  Solvent 1-order response equations converged in                     0 
  solvent iterations
 SONIAPRI                     0
 CCEQ_STR: CVSEPARATION =  T
 CCEQ_STR: IONIZATION =  T
 CCEQ_STR: REMOVE_CORE =  F
 could not find required file CCM1_1___1
 IOPTSV is    33 ... program continues nevertheless.
 Vector nr.  1 of type M1  and symmetry  1 was not found on file.
     M1  start vector nr.  1 of symmetry  1 generated from gradient
 CCEQ_STR: freeze VALENCE OR VIRT
 CCEQ_SOL: CVSEPARA=     T
 CCEQ_SOL: LIONISAT=     T
 CCEQ_SOL: REMOVE_CORE =  F



 ----- COUPLED CLUSTER RESPONSE SOLVER -----

    Iter  #Vectors  time (min)   residual
    --------------------------------------
 CCRED CVS/IONIS sigma_                     1 
 project out valence occupied or virtual
      1       1         1.36     0.22E+01
 CCRED CVS/IONIS sigma_                     2 
 project out valence occupied or virtual
      2       1         1.35     0.40E+00
 CCRED CVS/IONIS sigma_                     3 
 project out valence occupied or virtual
      3       1         1.38     0.50E-01
 CCRED CVS/IONIS sigma_                     4 
 project out valence occupied or virtual
                    -1  vectors with norm le:  1.000000000000000E-035  REMOVED

 CCORT,**WARNING**  number vectors added is zero after check for vector norm , NBADD :    0

 CCORT, number vectors added is zero , NBADD :    0

 CCORT, number vectors added is zero , NBADD :    0

 CCORT, number vectors added is zero , NBADD :    0

 CCORT, number vectors added is zero , NBADD :    0

 *** MICROITERATIONS STOPPED DUE TO LINEAR DEPENDENCE BETWEEN ALL NEW TRIAL VECTORS
                     0  trial vectors converged
  LINEAR DEPENDENCE BETWEEN                     1  NON CONVERGED TRIAL VECTORS
      4       1         1.35     0.53E-02

 ***  CCEQ_SOL -MICROITERATIONS STOPPED  
     LINEAR DEPENDENCE BETWEEN ALL NEW TRIAL VECTORS
    --------------------------------------
    converged in  4 iterations
    threshold:    0.10E-08


         Routine          Time (min)
         ---------------------------
         CC_TRDRV            5.44
         CCRED               0.04
         CCNEX               0.06
         ---------------------------
         Total time          5.54


  Total CPU  time used in CCEQ_SOLV:  5 minutes 32 seconds
  Total wall time used in CCEQ_SOLV:  7 minutes 16 seconds


 xxxxxxxxxxxxxxxxxxxxxxxxxxxxxxxxxxxxx

 
 Solution of CC response equations completed.
 

 *******************************************************************
 *                                                                 *
 *--------  OUTPUT FROM COUPLED CLUSTER LINEAR RESPONSE   ---------*
 *                                                                 *
 *--------      CALCULATION OF SECOND ORDER RESIDUES      ---------*
 *                                                                 *
 *******************************************************************



                  +---------------------------------------------+
                  ! CC_SOPR: Calculation of CCSD       Residues !
                  +---------------------------------------------+

 Doing the Mf*CsiA
 Doing the Mf*CsiA
 Doing the Mf*CsiA


 CCSD  Right transition moments in atomic units:
 -----------------------------------------------

  1      15.136690  <XDIPLEN |f> =       0.00000004
  1      15.136690  <YDIPLEN |f> =       0.00000000
  1      15.136690  <ZDIPLEN |f> =      -0.00000002


 CCSD  Left  transition moments in atomic units:
 -----------------------------------------------

  1      15.136690  <f|XDIPLEN > =       0.00000002
  1      15.136690  <f|YDIPLEN > =       0.00000000
  1      15.136690  <f|ZDIPLEN > =      -0.00000001


 CCSD  linear response residue property in atomic units:
 -------------------------------------------------------

 RES{<<XDIPLEN ,XDIPLEN >>(15.136690)} =     0.00000000 (   0.00000003)
 RES{<<XDIPLEN ,YDIPLEN >>(15.136690)} =     0.00000000 (   0.00000001)
 RES{<<XDIPLEN ,ZDIPLEN >>(15.136690)} =    -0.00000000 (  -0.00000002)
 RES{<<YDIPLEN ,XDIPLEN >>(15.136690)} =     0.00000000 (   0.00000001)
 RES{<<YDIPLEN ,YDIPLEN >>(15.136690)} =     0.00000000 (   0.00000000)
 RES{<<YDIPLEN ,ZDIPLEN >>(15.136690)} =    -0.00000000 (  -0.00000000)
 RES{<<ZDIPLEN ,XDIPLEN >>(15.136690)} =    -0.00000000 (  -0.00000002)
 RES{<<ZDIPLEN ,YDIPLEN >>(15.136690)} =    -0.00000000 (  -0.00000000)
 RES{<<ZDIPLEN ,ZDIPLEN >>(15.136690)} =     0.00000000 (   0.00000001)


 CCSD  Transition strength matrix for state nr.  1 of symmetry 1
 CCSD  excitation energy:15.13669020

 Gauge: length

               Column   1     Column   2     Column   3
       1     8.313046D-16   5.875556D-17  -3.112490D-16
       2     5.875556D-17   4.149794D-18  -2.199794D-17
       3    -3.112490D-16  -2.199794D-17   1.165347D-16
    ==== End of matrix output ====

 Principal values of diagonalized transition strength matrix:

             a.u.               
 1       0.00000000
 2       0.00000000
 3       0.00000000

 Principal axis of diagonalized transition strength matrix:


               Column   1     Column   2     Column   3
       1       1.00000000     0.00000000     0.00000000
       2       0.00000000     1.00000000     0.00000000
       3       0.00000000     0.00000000     1.00000000
    ==== End of matrix output ====


 CCSD   oscillator strength matrix for state nr.  1 of symmetry 1
 CCSD  excitation energy:15.13669020


               Column   1     Column   2     Column   3
       1     8.388800D-15   5.929098D-16  -3.140854D-15
       2     5.929098D-16   4.187609D-17  -2.219840D-16
       3    -3.140854D-15  -2.219840D-16   1.175966D-15
    ==== End of matrix output ====

 Principal values of diagonalized oscillator strength matrix:

             a.u.               
 1       0.00000000
 2       0.00000000
 3       0.00000000

 Principal axis of diagonalized oscillator strength matrix:


               Column   1     Column   2     Column   3
       1       1.00000000     0.00000000     0.00000000
       2       0.00000000     1.00000000     0.00000000
       3       0.00000000     0.00000000     1.00000000
    ==== End of matrix output ====

  Total time for      9 linear response residues:       3.16 seconds.
  

 *******************************************************************************
 *******************************************************************************
 *                                                                             *
 *                                                                             *
 *                   SUMMARY OF COUPLED CLUSTER CALCULATION                    *
 *                                                                             *
 *                                                                             *
 *******************************************************************************
 *******************************************************************************

                                                                                
                                                                                
            Total SCF   energy:                  -361.1929968665                
            Total MP2   energy:                  -362.2945405554                
            Total CCSD  energy:                  -362.3357830615                
                                                                                
                                                                                
            Total SCF   energy:                  -361.1929968665                
            Total RSTAR energy:                  -362.3357830615                
            Total CCSD  energy:                  -362.3359201392                
                                                                                
                                                                                
            Total SCF   energy:                  -361.1929968665                
            Total RSTAR energy:                  -362.3359201392                
            Total CCSD  energy:                  -362.3359214011                
                                                                                
                                                                                
            Total SCF   energy:                  -361.1929968665                
            Total RSTAR energy:                  -362.3359214011                
            Total CCSD  energy:                  -362.3359215203                
                                                                                
                                                                                
            Total SCF   energy:                  -361.1929968665                
            Total RSTAR energy:                  -362.3359215203                
            Total CCSD  energy:                  -362.3359215253                
                                                                                
                                                                                
            Total SCF   energy:                  -361.1929968665                
            Total RSTAR energy:                  -362.3359215253                
            Total CCSD  energy:                  -362.3359215255                
            CCSD Total  energy:                  -362.7249616819                
            CCSD E(QM/MM)     :                    -0.3843451635                
                                                                                
                                                                                
                                                                                
 +=============================================================================+
 |  sym. | Exci.  |        CCSD       Excitation energies            | ||T1||  |
 |(spin, |        +------------------------------------------------------------+
 | spat) |        |     Hartree    |       eV.      |     cm-1       |    %    |
 +=============================================================================+
 | ^1A   |    1   |    15.1366902  |     411.89029  |   3322119.472  |  88.28  |
 +=============================================================================+
                                                                                
                                                                                
     Total energies in Hartree:                                                 
             1 ^1A       -347.2039263144                                        
                                                                                
                                                                                
 +=============================================================================+
 |  sym. | Exci.  |        CCSD       Length   Gauge Oscillator Strength       |
 |(spin, |        +------------------------------------------------------------+
 | spat) |        | Dipole Strength(a.u.) | Oscillator strength  | Direction   |
 +=============================================================================+
 | ^1A   |    1   |        0.0000000      |      0.0000000       |    -        |
 +=============================================================================+

  1 a.u. =        27.21138 eV.  
  1 a.u. =    219474.62934 cm-1.
  

 *******************************************************************************
 *******************************************************************************
 *                                                                             *
 *                                                                             *
 *                      END OF COUPLED CLUSTER CALCULATION                     *
 *                                                                             *
 *                                                                             *
 *******************************************************************************
 *******************************************************************************


 CPU and wall time for CC :    6330.178    9700.254

 
     Date and time (Linux)  : Wed Nov 28 19:41:59 2018
     Host name              : n-62-29-5                               


                      .-------------------------------------.
                      | End of Coupled Cluster Section (CC) |
                      `-------------------------------------'

  Total CPU  time used in DALTON:   1 hour  47 minutes 32 seconds
  Total wall time used in DALTON:   2 hours 44 minutes 47 seconds

 
     Date and time (Linux)  : Wed Nov 28 19:41:59 2018
     Host name              : n-62-29-5                               
  

 +---------------------------------------------------------+ 
 | List of selected calculated molecular properties (a.u.) | 
 +---------------------------------------------------------+ 

  Properties are read from unit number                      4

 CCSD       properties :
 #  1 1 CCSD/MM  Ground state Energy =    -362.7249616819
 #  2 1 E_QM/MM  Ground state Energy =      -0.3843451635
 #  3 1 Sy: 1 Sp: 1 Exc:  1 E_tot:   -347.2039263144 w:     15.1366902040 E_grs:   -362.3406165184
 #  4 1 Exctot   Excited state Energy =    -347.2039263144
 #  5 1 |<O|XDIPLEN |i(15.136690)>| =     0.00000003
 #  7 1 |<O|YDIPLEN |i(15.136690)>| =     0.00000000
 #  9 1 |<O|ZDIPLEN |i(15.136690)>| =     0.00000001

 THE_END   
