

     ************************************************************************
     *************** Dalton - An Electronic Structure Program ***************
     ************************************************************************

    This is output from DALTON release Dalton2017.alpha (2016)
         ( Web site: http://daltonprogram.org )

   ----------------------------------------------------------------------------

    NOTE:
     
    Dalton is an experimental code for the evaluation of molecular
    properties using (MC)SCF, DFT, CI, and CC wave functions.
    The authors accept no responsibility for the performance of
    the code or for the correctness of the results.
     
    The code (in whole or part) is provided under a licence and
    is not to be reproduced for further distribution without
    the written permission of the authors or their representatives.
     
    See the home page "http://daltonprogram.org" for further information.
     
    If results obtained with this code are published,
    the appropriate citations would be both of:
     
       K. Aidas, C. Angeli, K. L. Bak, V. Bakken, R. Bast,
       L. Boman, O. Christiansen, R. Cimiraglia, S. Coriani,
       P. Dahle, E. K. Dalskov, U. Ekstroem,
       T. Enevoldsen, J. J. Eriksen, P. Ettenhuber, B. Fernandez,
       L. Ferrighi, H. Fliegl, L. Frediani, K. Hald, A. Halkier,
       C. Haettig, H. Heiberg, T. Helgaker, A. C. Hennum,
       H. Hettema, E. Hjertenaes, S. Hoest, I.-M. Hoeyvik,
       M. F. Iozzi, B. Jansik, H. J. Aa. Jensen, D. Jonsson,
       P. Joergensen, J. Kauczor, S. Kirpekar,
       T. Kjaergaard, W. Klopper, S. Knecht, R. Kobayashi, H. Koch,
       J. Kongsted, A. Krapp, K. Kristensen, A. Ligabue,
       O. B. Lutnaes, J. I. Melo, K. V. Mikkelsen, R. H. Myhre,
       C. Neiss, C. B. Nielsen, P. Norman, J. Olsen,
       J. M. H. Olsen, A. Osted, M. J. Packer, F. Pawlowski,
       T. B. Pedersen, P. F. Provasi, S. Reine, Z. Rinkevicius,
       T. A. Ruden, K. Ruud, V. Rybkin, P. Salek, C. C. M. Samson,
       A. Sanchez de Meras, T. Saue, S. P. A. Sauer,
       B. Schimmelpfennig, K. Sneskov, A. H. Steindal,
       K. O. Sylvester-Hvid, P. R. Taylor, A. M. Teale,
       E. I. Tellgren, D. P. Tew, A. J. Thorvaldsen, L. Thoegersen,
       O. Vahtras, M. A. Watson, D. J. D. Wilson, M. Ziolkowski
       and H. Agren,
       "The Dalton quantum chemistry program system",
       WIREs Comput. Mol. Sci. 2014, 4:269–284 (doi: 10.1002/wcms.1172)
     
    and
     
       Dalton, a Molecular Electronic Structure Program,
       Release Dalton2017.alpha (2016), see http://daltonprogram.org
   ----------------------------------------------------------------------------

    Authors in alphabetical order (major contribution(s) in parenthesis):

  Kestutis Aidas,           Vilnius University,           Lithuania   (QM/MM)
  Celestino Angeli,         University of Ferrara,        Italy       (NEVPT2)
  Keld L. Bak,              UNI-C,                        Denmark     (AOSOPPA, non-adiabatic coupling, magnetic properties)
  Vebjoern Bakken,          University of Oslo,           Norway      (DALTON; geometry optimizer, symmetry detection)
  Radovan Bast,             UiT The Arctic U. of Norway,  Norway      (DALTON installation and execution frameworks)
  Pablo Baudin,             University of Valencia,       Spain       (Cholesky excitation energies)
  Linus Boman,              NTNU,                         Norway      (Cholesky decomposition and subsystems)
  Ove Christiansen,         Aarhus University,            Denmark     (CC module)
  Renzo Cimiraglia,         University of Ferrara,        Italy       (NEVPT2)
  Sonia Coriani,            University of Trieste,        Italy       (CC module, MCD in RESPONS)
  Janusz Cukras,            University of Trieste,        Italy       (MChD in RESPONS)
  Paal Dahle,               University of Oslo,           Norway      (Parallelization)
  Erik K. Dalskov,          UNI-C,                        Denmark     (SOPPA)
  Thomas Enevoldsen,        Univ. of Southern Denmark,    Denmark     (SOPPA)
  Janus J. Eriksen,         Aarhus University,            Denmark     (Polarizable embedding model, TDA)
  Rasmus Faber,             University of Copenhagen,     Denmark     (Vib.avg. NMR with SOPPA, parallel AO-SOPPA)
  Berta Fernandez,          U. of Santiago de Compostela, Spain       (doublet spin, ESR in RESPONS)
  Lara Ferrighi,            Aarhus University,            Denmark     (PCM Cubic response)
  Heike Fliegl,             University of Oslo,           Norway      (CCSD(R12))
  Luca Frediani,            UiT The Arctic U. of Norway,  Norway      (PCM)
  Bin Gao,                  UiT The Arctic U. of Norway,  Norway      (Gen1Int library)
  Christof Haettig,         Ruhr-University Bochum,       Germany     (CC module)
  Kasper Hald,              Aarhus University,            Denmark     (CC module)
  Asger Halkier,            Aarhus University,            Denmark     (CC module)
  Frederik Beyer Hansen,    University of Copenhagen,     Denmark     (Parallel AO-SOPPA)
  Erik D. Hedegaard,        Univ. of Southern Denmark,    Denmark     (Polarizable embedding model, QM/MM)
  Hanne Heiberg,            University of Oslo,           Norway      (geometry analysis, selected one-electron integrals)
  Trygve Helgaker,          University of Oslo,           Norway      (DALTON; ABACUS, ERI, DFT modules, London, and much more)
  Alf Christian Hennum,     University of Oslo,           Norway      (Parity violation)
  Hinne Hettema,            University of Auckland,       New Zealand (quadratic response in RESPONS; SIRIUS supersymmetry)
  Eirik Hjertenaes,         NTNU,                         Norway      (Cholesky decomposition)
  Pi A. B. Haase,           University of Copenhagen,     Denmark     (Triplet AO-SOPPA)
  Maria Francesca Iozzi,    University of Oslo,           Norway      (RPA)
  Brano Jansik              Technical Univ. of Ostrava    Czech Rep.  (DFT cubic response)
  Hans Joergen Aa. Jensen,  Univ. of Southern Denmark,    Denmark     (DALTON; SIRIUS, RESPONS, ABACUS modules, London, and much more)
  Dan Jonsson,              UiT The Arctic U. of Norway,  Norway      (cubic response in RESPONS module)
  Poul Joergensen,          Aarhus University,            Denmark     (RESPONS, ABACUS, and CC modules)
  Maciej Kaminski,          University of Warsaw,         Poland      (CPPh in RESPONS)
  Joanna Kauczor,           Linkoeping University,        Sweden      (Complex polarization propagator (CPP) module)
  Sheela Kirpekar,          Univ. of Southern Denmark,    Denmark     (Mass-velocity & Darwin integrals)
  Wim Klopper,              KIT Karlsruhe,                Germany     (R12 code in CC, SIRIUS, and ABACUS modules)
  Stefan Knecht,            ETH Zurich,                   Switzerland (Parallel CI and MCSCF)
  Rika Kobayashi,           Australian National Univ.,    Australia   (DIIS in CC, London in MCSCF)
  Henrik Koch,              NTNU,                         Norway      (CC module, Cholesky decomposition)
  Jacob Kongsted,           Univ. of Southern Denmark,    Denmark     (Polarizable embedding model, QM/MM)
  Andrea Ligabue,           University of Modena,         Italy       (CTOCD, AOSOPPA)
  Nanna H. List             Univ. of Southern Denmark,    Denmark     (Polarizable embedding model)
  Ola B. Lutnaes,           University of Oslo,           Norway      (DFT Hessian)
  Juan I. Melo,             University of Buenos Aires,   Argentina   (LRESC, Relativistic Effects on NMR Shieldings)
  Kurt V. Mikkelsen,        University of Copenhagen,     Denmark     (MC-SCRF and QM/MM)
  Rolf H. Myhre,            NTNU,                         Norway      (Cholesky, subsystems and ECC2)
  Christian Neiss,          Univ. Erlangen-Nuernberg,     Germany     (CCSD(R12))
  Christian B. Nielsen,     University of Copenhagen,     Denmark     (QM/MM)
  Patrick Norman,           Linkoeping University,        Sweden      (Cubic response and complex frequency response in RESPONS)
  Jeppe Olsen,              Aarhus University,            Denmark     (SIRIUS CI/density modules)
  Jogvan Magnus H. Olsen,   Univ. of Southern Denmark,    Denmark     (Polarizable embedding model, QM/MM)
  Anders Osted,             Copenhagen University,        Denmark     (QM/MM)
  Martin J. Packer,         University of Sheffield,      UK          (SOPPA)
  Filip Pawlowski,          Kazimierz Wielki University,  Poland      (CC3)
  Morten N. Pedersen,       Univ. of Southern Denmark,    Denmark     (Polarizable embedding model)
  Thomas B. Pedersen,       University of Oslo,           Norway      (Cholesky decomposition)
  Patricio F. Provasi,      University of Northeastern,   Argentina   (Analysis of coupling constants in localized orbitals)
  Zilvinas Rinkevicius,     KTH Stockholm,                Sweden      (open-shell DFT, ESR)
  Elias Rudberg,            KTH Stockholm,                Sweden      (DFT grid and basis info)
  Torgeir A. Ruden,         University of Oslo,           Norway      (Numerical derivatives in ABACUS)
  Kenneth Ruud,             UiT The Arctic U. of Norway,  Norway      (DALTON; ABACUS magnetic properties and much more)
  Pawel Salek,              KTH Stockholm,                Sweden      (DALTON; DFT code)
  Claire C. M. Samson       University of Karlsruhe       Germany     (Boys localization, r12 integrals in ERI)
  Alfredo Sanchez de Meras, University of Valencia,       Spain       (CC module, Cholesky decomposition)
  Trond Saue,               Paul Sabatier University,     France      (direct Fock matrix construction)
  Stephan P. A. Sauer,      University of Copenhagen,     Denmark     (SOPPA(CCSD), SOPPA prop., AOSOPPA, vibrational g-factors)
  Bernd Schimmelpfennig,    Forschungszentrum Karlsruhe,  Germany     (AMFI module)
  Kristian Sneskov,         Aarhus University,            Denmark     (Polarizable embedding model, QM/MM)
  Arnfinn H. Steindal,      UiT The Arctic U. of Norway,  Norway      (parallel QM/MM, Polarizable embedding model)
  Casper Steinmann,         Univ. of Southern Denmark,    Denmark     (QFIT, Polarizable embedding model)
  K. O. Sylvester-Hvid,     University of Copenhagen,     Denmark     (MC-SCRF)
  Peter R. Taylor,          VLSCI/Univ. of Melbourne,     Australia   (Symmetry handling ABACUS, integral transformation)
  Andrew M. Teale,          University of Nottingham,     England     (DFT-AC, DFT-D)
  David P. Tew,             University of Bristol,        England     (CCSD(R12))
  Olav Vahtras,             KTH Stockholm,                Sweden      (triplet response, spin-orbit, ESR, TDDFT, open-shell DFT)
  David J. Wilson,          La Trobe University,          Australia   (DFT Hessian and DFT magnetizabilities)
  Hans Agren,               KTH Stockholm,                Sweden      (SIRIUS module, RESPONS, MC-SCRF solvation model)
 --------------------------------------------------------------------------------

     Date and time (Linux)  : Mon Dec  3 16:08:44 2018
     Host name              : n-62-24-6                               

 * Work memory size             :  1280000000 =  9.537 gigabytes.

 * Directories for basis set searches:
   1) /zhome/d7/7/119775/My_Codes/dalton-private/build2016/basis/diffs
   2) /zhome/37/3/129401/NH3NH4/CCSD/AIMD_SAMPLING/nh4_4h2o_nd
   3) /zhome/9a/4/124800/source/dalton/build-mlcc/basis


Compilation information
-----------------------

 Who compiled             | rfaber
 Host                     | hpclogin1
 System                   | Linux-2.6.32-696.1.1.el6.x86_64
 CMake generator          | Unix Makefiles
 Processor                | x86_64
 64-bit integers          | ON
 MPI                      | OFF
 Fortran compiler         | /opt/intel/2016update2/compilers_and_libraries_201
                          | 6.2.181/linux/bin/intel64/ifort
 Fortran compiler version | ifort (IFORT) 16.0.2 20160204
 C compiler               | /opt/intel/2016update2/compilers_and_libraries_201
                          | 6.2.181/linux/bin/intel64/icc
 C compiler version       | icc (ICC) 16.0.2 20160204
 C++ compiler             | /opt/intel/2016update2/compilers_and_libraries_201
                          | 6.2.181/linux/bin/intel64/icpc
 C++ compiler version     | icpc (ICC) 16.0.2 20160204
 Static linking           | OFF
 Last Git revision        | bb4d1599ca5680a9f3980451fc8bbefdba436d59
 Git branch               | mlcc
 Configuration time       | 2017-06-13 16:11:03.928841


   Content of the .dal input file
 ----------------------------------

**DALTON
.RUN WAVE FUNCTIONS
*QMMM
.QMMM
**INTEGRALS
.DIPLEN
**WAVE FUNCTIONS
.CC
*PRINT
!To check the origin of excit
.PRINTL
   0 11
*SCF INP
.THRESH
1.0D-7
!*ORBITAL INPUT
!.MOSTART
!NEWORB
*CC INP
!.RESTART
.CCSD
.THRLEQ
 1.0D-9
.THRENR
 1.0D-10
.FROIMP
4
0
.PRINT
 1
.MAX IT
 1200
.MAXRED
 1200
.MXLRV
1199
*CCSLV
.CCMM
.MXSLIT
200
.MXINIT
4 5
*CCEXCI
.NCCEXC
 1
.IONISATION
1
1
.CVSEPARA
1
1
*CCLRSD
.DIPOLE
**END OF DALTON INPUT


   Content of the .mol file
 ----------------------------

ATOMBASIS


Atomtypes=5 Charge=1 Nosymm Angstrom
   7.00000    1    Basis=6-311G**
N          0.000000        0.000000        0.000000
   1.00000    4    Basis=6-311G**
H          0.120138        1.008292       -0.064993
H          0.862946       -0.424039       -0.312173
H         -0.801135       -0.460564       -0.601698
H         -0.162085       -0.243566        0.974796
   8.00000    4    Basis=6-311G**
O         -1.991383       -1.117363       -1.477124
O          2.189351        2.097262        0.302998
O         -0.934077       -0.616043        2.739223
O          2.275593       -1.405749       -1.018168
   1.00000    8    Basis=6-311G**
H         -2.095912       -1.923917       -0.870404
H         -2.863031       -0.634864       -1.467929
H          2.272181        3.028218        0.327664
H          2.726147        1.804872       -0.517570
H         -0.222257       -1.185579        3.136595
H         -0.584278        0.280181        2.989852
H          2.283609       -2.186323       -0.395351
H          2.925431       -0.705875       -0.775119
   0.00000    1    Basis=diffs
X          0.000000        0.000000        0.000000


       *******************************************************************
       *********** Output from DALTON general input processing ***********
       *******************************************************************

 --------------------------------------------------------------------------------
   Overall default print level:    0
   Print level for DALTON.STAT:    1

    HERMIT 1- and 2-electron integral sections will be executed
    "Old" integral transformation used (limited to max 255 basis functions)
    Wave function sections will be executed (SIRIUS module)
 --------------------------------------------------------------------------------


 Changes of defaults for *QMMM  :
 --------------------------------

 +------------------+
 |  WORD: | CHANGE: |
 +------------------+
 |   QMMM |       T |
 +------------------+
 


   ****************************************************************************
   *************** Output of molecule and basis set information ***************
   ****************************************************************************


    The two title cards from your ".mol" input:
    ------------------------------------------------------------------------
 1:                                                                         
 2:                                                                         
    ------------------------------------------------------------------------

  Coordinates are entered in Angstrom and converted to atomic units.
          - Conversion factor : 1 bohr = 0.52917721 A

  Atomic type no.    1
  --------------------
  Nuclear charge:   7.00000
  Number of symmetry independent centers:    1
  Number of basis sets to read;    2
  The basis set is "6-311G**" from the basis set library.
  Basis set file used for this atomic type with Z =   7 :
     "/zhome/9a/4/124800/source/dalton/build-mlcc/basis/6-311G**"

  Info about the basis set file: your basis has no documentation.
  Basis set: 6-311G**                                                                        

  Atomic type no.    2
  --------------------
  Nuclear charge:   1.00000
  Number of symmetry independent centers:    4
  Number of basis sets to read;    2
  The basis set is "6-311G**" from the basis set library.
  Basis set file used for this atomic type with Z =   1 :
     "/zhome/9a/4/124800/source/dalton/build-mlcc/basis/6-311G**"

  Info about the basis set file: your basis has no documentation.
  Basis set: 6-311G**                                                                        

  Atomic type no.    3
  --------------------
  Nuclear charge:   8.00000
  Number of symmetry independent centers:    4
  Number of basis sets to read;    2
  The basis set is "6-311G**" from the basis set library.
  Basis set file used for this atomic type with Z =   8 :
     "/zhome/9a/4/124800/source/dalton/build-mlcc/basis/6-311G**"

  Info about the basis set file: your basis has no documentation.
  Basis set: 6-311G**                                                                        

  Atomic type no.    4
  --------------------
  Nuclear charge:   1.00000
  Number of symmetry independent centers:    8
  Number of basis sets to read;    2
  The basis set is "6-311G**" from the basis set library.
  Basis set file used for this atomic type with Z =   1 :
     "/zhome/9a/4/124800/source/dalton/build-mlcc/basis/6-311G**"

  Info about the basis set file: your basis has no documentation.
  Basis set: 6-311G**                                                                        

  Atomic type no.    5
  --------------------
  Nuclear charge:   0.00000
  Number of symmetry independent centers:    1
  Number of basis sets to read;    2
  The basis set is "diffs" from the basis set library.
  Basis set file used for this atomic type with Z =   0 :
     "/zhome/9a/4/124800/source/dalton/build-mlcc/basis/diffs"

  Info about the basis set file: your basis has no documentation.
  Basis set: diffs                                                                           


                         SYMGRP: Point group information
                         -------------------------------

@    Point group: C1 


                                 Isotopic Masses
                                 ---------------

                           N          14.003074
                           H           1.007825
                           H           1.007825
                           H           1.007825
                           H           1.007825
                           O          15.994915
                           O          15.994915
                           O          15.994915
                           O          15.994915
                           H           1.007825
                           H           1.007825
                           H           1.007825
                           H           1.007825
                           H           1.007825
                           H           1.007825
                           H           1.007825
                           H           1.007825

                       Total mass:    90.076634 amu
                       Natural abundance:  98.500 %

 Center-of-mass coordinates (a.u.):    0.610923   -0.384358    0.234771


  Atoms and basis sets
  --------------------

  Number of atom types :    5
  Total number of atoms:   18

  label    atoms   charge   prim   cont     basis
  ----------------------------------------------------------------------
  N           1    7.0000    31    18      [11s5p1d|4s3p1d]                                   
  H           4    1.0000     8     6      [5s1p|3s1p]                                        
  O           4    8.0000    31    18      [11s5p1d|4s3p1d]                                   
  H           8    1.0000     8     6      [5s1p|3s1p]                                        
  X           1    0.0000     1     1      [1s|1s]                                            
  ----------------------------------------------------------------------
  total:     18   51.0000   252   163
  ----------------------------------------------------------------------
  Spherical harmonic basis used.

  Threshold for neglecting AO integrals:  1.00D-12


  Cartesian Coordinates (a.u.)
  ----------------------------

  Total number of coordinates:   54
  N       :     1  x   0.0000000000    2  y   0.0000000000    3  z   0.0000000000
  H       :     4  x   0.2270279172    5  y   1.9053957340    6  z  -0.1228189700
  H       :     7  x   1.6307316007    8  y  -0.8013175763    9  z  -0.5899214736
  H       :    10  x  -1.5139257391   11  y  -0.8703398230   12  z  -1.1370444300
  H       :    13  x  -0.3062962590   14  y  -0.4602730334   15  z   1.8420974677
  O       :    16  x  -3.7631684800   17  y  -2.1115100522   18  z  -2.7913598127
  O       :    19  x   4.1372737815   20  y   3.9632507924   21  z   0.5725832364
  O       :    22  x  -1.7651497097   23  y  -1.1641525512   24  z   5.1763812653
  O       :    25  x   4.3002475420   26  y  -2.6564806105   27  z  -1.9240586692
  H       :    28  x  -3.9606996621   29  y  -3.6356762172   30  z  -1.6448251781
  H       :    31  x  -5.4103444774   32  y  -1.1997190866   33  z  -2.7739837809
  H       :    34  x   4.2937997964   35  y   5.7225026668   36  z   0.6191952210
  H       :    37  x   5.1516712065   38  y   3.4107137707   39  z  -0.9780655505
  H       :    40  x  -0.4200048594   41  y  -2.2404196095   42  z   5.9273055150
  H       :    43  x  -1.1041254009   44  y   0.5294653554   45  z   5.6500014343
  H       :    46  x   4.3153955866   47  y  -4.1315516908   48  z  -0.7471051132
  H       :    49  x   5.5282633876   50  y  -1.3339104285   51  z  -1.4647626243
  X       :    52  x   0.0000000000   53  y   0.0000000000   54  z   0.0000000000

  Max    interatomic separation is    6.7111 Angstrom (   12.6822 Bohr)
  between atoms   12 and   10, "H     " and "H     ".

  Min HX interatomic separation is    0.9350 Angstrom (    1.7668 Bohr)

  Min YX interatomic separation is    2.7196 Angstrom (    5.1392 Bohr)


  Bond distances (Angstrom):
  --------------------------

                  atom 1     atom 2       distance
                  ------     ------       --------
  bond distance:  H          N            1.017502
  bond distance:  H          N            1.010909
  bond distance:  H          N            1.102713
  bond distance:  H          N            1.017754
  bond distance:  H          O            1.014675
  bond distance:  H          O            0.996323
  bond distance:  H          O            0.934959
  bond distance:  H          O            1.023217
  bond distance:  H          O            0.994466
  bond distance:  H          O            0.994179
  bond distance:  H          O            0.998630
  bond distance:  H          O            0.985488


  Bond angles (degrees):
  ----------------------

                  atom 1     atom 2     atom 3         angle
                  ------     ------     ------         -----
  bond angle:     H          N          H            107.167
  bond angle:     H          N          H            117.698
  bond angle:     H          N          H            108.490
  bond angle:     H          N          H            106.050
  bond angle:     H          N          H            109.350
  bond angle:     H          N          H            107.876
  bond angle:     H          O          H            106.816
  bond angle:     H          O          H            105.023
  bond angle:     H          O          H             99.422
  bond angle:     H          O          H            113.328




 Principal moments of inertia (u*A**2) and principal axes
 --------------------------------------------------------

   IA     301.688402          0.892071    0.449552   -0.045962
   IB     400.694110         -0.129881    0.352483    0.926761
   IC     525.200198         -0.432829    0.820767   -0.372828


 Rotational constants
 --------------------

               A                   B                   C

           1675.1688           1261.2589            962.2597 MHz
            0.055878            0.042071            0.032098 cm-1


@  Nuclear repulsion energy :  199.719543335135 Hartree

  Number of floating/multiple basis set orbitals :    1


                     .---------------------------------------.
                     | Starting in Integral Section (HERMIT) |
                     `---------------------------------------'



 ***************************************************************************************
 ****************** Output from **INTEGRALS input processing (HERMIT) ******************
 ***************************************************************************************



    *************************************************************************
    ****************** Output from HERMIT input processing ******************
    *************************************************************************


 Default print level:        1

 * Nuclear model: Point charge

 Calculation of one- and two-electron Hamiltonian integrals.

 The following one-electron property integrals are calculated as requested:
          - overlap integrals
          - dipole length integrals

 Center of mass  (bohr):      0.610923431859     -0.384358217771      0.234771120781
 Operator center (bohr):      0.000000000000      0.000000000000      0.000000000000
 Gauge origin    (bohr):      0.000000000000      0.000000000000      0.000000000000
 Dipole origin   (bohr):      0.000000000000      0.000000000000      0.000000000000
 
  *********************************** 
  QMMM electrostatic potential: 
  Multipole order                                    0
  Isotropic polarization  
  *********************************** 
 
  ---------------- 
  QMMM information 
  ---------------- 
 
  MM coordinates in au 
  -------------------- 
     1      0.986885      3.191407     -4.687122
     2      1.887241      1.570929     -5.022936
     3      2.618508      4.392294     -4.407756
     4     10.598293      8.613343     -9.401968
     5      9.220013      9.815315     -9.235260
     6      9.844296      7.044583     -8.822047
     7      5.220062      6.572842     -4.277127
     8      6.271555      7.393176     -2.862457
     9      6.396780      5.707806     -5.407894
    10      9.707438      9.512494     -2.708509
    11      9.741882      8.258243     -1.485782
    12     11.379611      9.369903     -3.432459
    13     -9.969785     -7.512667     -7.965139
    14     -8.807779     -8.549565     -9.108582
    15    -10.274911     -5.936399     -8.872298
    16     -9.336256      9.740478     -5.905876
    17    -10.177825      9.744433     -7.614130
    18     -8.351682     11.315119     -5.916217
    19     -0.089503     -8.795286      1.645783
    20     -0.283699    -10.511116      0.901808
    21     -0.882935     -9.244459      3.392892
    22      5.984150      0.336725    -10.123758
    23      4.745966     -0.373735     -8.779675
    24      7.328369     -0.952770    -10.412826
    25      8.354145    -11.390797      2.734740
    26      9.414272    -11.364690      1.248962
    27      9.485717    -11.334819      4.158764
    28     -1.970820      4.747001     -8.884334
    29     -1.856225      3.390760    -10.212042
    30     -0.882315      4.307143     -7.426132
    31     -8.052675      0.566946     -3.673080
    32     -9.190212      0.723521     -2.128225
    33     -7.356581      2.473655     -3.905803
    34      8.624903     -9.214371     -9.036657
    35     10.222823     -8.682007     -8.366418
    36      7.432062     -9.564350     -7.703665
    37      2.762763     -1.122420     -6.272031
    38      0.950772     -1.736124     -6.589949
    39      3.375820     -2.256671     -4.792984
    40     11.073924     -0.321038     -5.877407
    41     11.563081     -1.413475     -7.281194
    42     12.817736      0.149086     -5.234668
    43     10.654367     -5.986110     -2.046076
    44      9.436446     -7.042624     -2.985191
    45     11.462703     -4.770583     -3.258477
    46     10.438785      6.239598      1.699572
    47     11.896652      7.159500      1.471341
    48      9.540774      6.805975      3.236228
    49      4.573135    -10.613664      9.208747
    50      3.801265    -11.884975      8.096738
    51      4.919471    -11.328865     10.868824
    52     -2.218452      5.583719     -1.341936
    53     -1.093401      4.684773     -2.550418
    54     -3.979049      5.367964     -2.085700
    55     11.471401      0.904196      0.859223
    56     10.858911      0.032823      2.443030
    57     11.544103      2.621980      1.610086
    58      0.232565    -10.375422     -6.265725
    59      1.791392    -11.294608     -6.984312
    60     -1.256532    -11.178391     -7.150913
    61     -7.447390      0.404392     10.343017
    62     -5.702077      0.766857     11.034725
    63     -7.070301     -1.308567      9.492622
    64     -6.486432     -3.695497      7.203330
    65     -5.273833     -2.982296      6.034279
    66     -5.271291     -5.084516      7.758936
    67     -7.115316     -9.650357     -3.802212
    68     -7.814824     -8.401732     -4.955404
    69     -8.502027    -10.093165     -2.523024
    70     -3.423632      9.566368     -7.758248
    71     -3.778836      9.088163     -5.924136
    72     -2.940410      7.874990     -8.391847
    73      8.951189     -3.069854      9.727779
    74      8.860489     -1.959217      8.270120
    75      9.342987     -4.787251      9.180577
    76     -3.558313     -7.726172      9.470234
    77     -4.835539     -8.509930     10.662033
    78     -2.294209     -7.024375     10.678366
    79      4.316397      9.030088      1.564822
    80      5.826874     10.006480      1.917998
    81      3.282679      9.849381      0.418775
    82     -1.932487     -2.972571     -7.686673
    83     -1.266391     -4.412783     -8.703769
    84     -2.731754     -3.203594     -6.021291
    85      4.156749      0.518987      4.305968
    86      3.703555      1.851093      2.958223
    87      3.483884      0.684570      6.083301
    88      5.468348     -4.958050    -10.270680
    89      5.917596     -4.090407    -11.831768
    90      6.838346     -6.206252    -10.249691
    91      2.567083      0.024370      9.625966
    92      2.820535     -1.825251      9.370583
    93      3.698967      0.666873     10.963288
    94      1.978772      7.023997    -11.542736
    95      1.396317      7.886301    -12.993481
    96      0.434535      6.415322    -10.648877
    97     -6.611955      9.966610      5.272924
    98     -7.772672     11.190816      6.195378
    99     -6.776615      8.360687      6.379727
   100     -7.752229     -7.993889      3.894327
   101     -6.254544     -7.203184      3.124195
   102     -8.513432     -6.740689      5.031349
   103     -6.372703    -10.450444    -10.740332
   104     -7.794128    -11.384617    -11.484890
   105     -5.219034    -11.808428     -9.704562
   106      9.144525     -8.049899      8.222142
   107      7.537456     -9.053311      8.572937
   108      9.263676     -7.756353      6.351058
   109    -10.605296     11.493044      9.265202
   110    -11.565377      9.991090      9.736185
   111    -11.855153     12.798456      8.846260
   112     -4.141688     -6.408405     -0.079624
   113     -2.491683     -7.369527      0.303431
   114     -5.145785     -7.546980     -1.307424
   115      9.102289      0.097393      5.383881
   116      9.106207      1.573411      6.556361
   117      7.292090      0.170676      4.648269
   118     10.183419     -5.576217      3.569978
   119     10.270939     -5.571211      1.776919
   120     10.957662     -3.943671      3.987347
   121      1.735509      8.887660      6.451669
   122      2.278430      8.748343      4.653184
   123      0.449042     10.220567      6.396608
   124      7.625504      1.428166     -2.279881
   125      8.932577      1.440158     -1.026707
   126      8.142796      1.010070     -3.984773
   127     -6.017119      4.888818      6.838411
   128     -4.760621      4.921606      5.535601
   129     -6.113113      3.109508      7.574081
   130     10.617721      3.245431      9.713292
   131     10.328952      4.028815     11.291467
   132     12.269975      2.399421      9.699269
   133      8.869362      3.989818     -8.171238
   134      7.690668      2.642430     -8.846823
   135     10.011077      2.931560     -7.113120
   136     -1.858874      4.138434      4.124252
   137     -2.073993      4.641190      2.294543
   138     -0.469334      5.254818      4.638726
   139     -2.378534      0.232965    -11.499637
   140     -0.986715      0.287588    -12.788007
   141     -2.369044     -1.148577    -10.275102
   142      2.567907     -5.173184      7.385282
   143      3.144493     -5.944083      5.824818
   144      3.176630     -6.422068      8.578686
   145      0.745777     -6.736220     -9.739495
   146      0.577166     -8.237862     -8.679478
   147      2.533153     -6.130381     -9.928816
   148    -10.782619     -2.553967    -10.024442
   149    -12.054015     -2.637062    -11.369756
   150     -9.248824     -1.697524    -10.558737
   151      4.428014     10.318987     -7.802035
   152      3.694993      8.981441     -8.899208
   153      4.992655      9.510729     -6.294765
   154      8.648534      8.082128      6.301794
   155      6.983441      8.416402      6.882061
   156      9.187803      6.675752      7.311976
   157      6.769341     -9.145451     -3.389942
   158      5.772193     -8.052981     -2.197570
   159      7.108774    -10.837296     -2.742660
   160      4.690941     -7.271725      1.502442
   161      5.709930     -8.746121      1.997129
   162      2.919519     -7.692126      1.421340
   163    -10.236323     -9.994021     -0.000251
   164    -11.223701     -8.479600     -0.672631
   165     -9.349031     -9.286734      1.533532
   166     -7.155361      5.851773     -3.241878
   167     -7.725240      6.956741     -4.568789
   168     -7.541449      6.761317     -1.678045
   169     -2.130740    -10.662111      5.727316
   170     -3.746378    -11.753138      5.573768
   171     -2.641881     -9.473945      7.224344
   172     -8.741516      8.661690      0.775168
   173     -9.382241     10.337730      0.290668
   174     -7.877873      8.966151      2.409592
   175     -0.043713     10.459706     -1.463251
   176     -1.056674      8.863732     -1.613286
   177     -0.253306     11.310642     -3.111202
 
  MM charges 
  ---------- 
     1     -0.674440
     2      0.337220
     3      0.337220
     4     -0.674440
     5      0.337220
     6      0.337220
     7     -0.674440
     8      0.337220
     9      0.337220
    10     -0.674440
    11      0.337220
    12      0.337220
    13     -0.674440
    14      0.337220
    15      0.337220
    16     -0.674440
    17      0.337220
    18      0.337220
    19     -0.674440
    20      0.337220
    21      0.337220
    22     -0.674440
    23      0.337220
    24      0.337220
    25     -0.674440
    26      0.337220
    27      0.337220
    28     -0.674440
    29      0.337220
    30      0.337220
    31     -0.674440
    32      0.337220
    33      0.337220
    34     -0.674440
    35      0.337220
    36      0.337220
    37     -0.674440
    38      0.337220
    39      0.337220
    40     -0.674440
    41      0.337220
    42      0.337220
    43     -0.674440
    44      0.337220
    45      0.337220
    46     -0.674440
    47      0.337220
    48      0.337220
    49     -0.674440
    50      0.337220
    51      0.337220
    52     -0.674440
    53      0.337220
    54      0.337220
    55     -0.674440
    56      0.337220
    57      0.337220
    58     -0.674440
    59      0.337220
    60      0.337220
    61     -0.674440
    62      0.337220
    63      0.337220
    64     -0.674440
    65      0.337220
    66      0.337220
    67     -0.674440
    68      0.337220
    69      0.337220
    70     -0.674440
    71      0.337220
    72      0.337220
    73     -0.674440
    74      0.337220
    75      0.337220
    76     -0.674440
    77      0.337220
    78      0.337220
    79     -0.674440
    80      0.337220
    81      0.337220
    82     -0.674440
    83      0.337220
    84      0.337220
    85     -0.674440
    86      0.337220
    87      0.337220
    88     -0.674440
    89      0.337220
    90      0.337220
    91     -0.674440
    92      0.337220
    93      0.337220
    94     -0.674440
    95      0.337220
    96      0.337220
    97     -0.674440
    98      0.337220
    99      0.337220
   100     -0.674440
   101      0.337220
   102      0.337220
   103     -0.674440
   104      0.337220
   105      0.337220
   106     -0.674440
   107      0.337220
   108      0.337220
   109     -0.674440
   110      0.337220
   111      0.337220
   112     -0.674440
   113      0.337220
   114      0.337220
   115     -0.674440
   116      0.337220
   117      0.337220
   118     -0.674440
   119      0.337220
   120      0.337220
   121     -0.674440
   122      0.337220
   123      0.337220
   124     -0.674440
   125      0.337220
   126      0.337220
   127     -0.674440
   128      0.337220
   129      0.337220
   130     -0.674440
   131      0.337220
   132      0.337220
   133     -0.674440
   134      0.337220
   135      0.337220
   136     -0.674440
   137      0.337220
   138      0.337220
   139     -0.674440
   140      0.337220
   141      0.337220
   142     -0.674440
   143      0.337220
   144      0.337220
   145     -0.674440
   146      0.337220
   147      0.337220
   148     -0.674440
   149      0.337220
   150      0.337220
   151     -0.674440
   152      0.337220
   153      0.337220
   154     -0.674440
   155      0.337220
   156      0.337220
   157     -0.674440
   158      0.337220
   159      0.337220
   160     -0.674440
   161      0.337220
   162      0.337220
   163     -0.674440
   164      0.337220
   165      0.337220
   166     -0.674440
   167      0.337220
   168      0.337220
   169     -0.674440
   170      0.337220
   171      0.337220
   172     -0.674440
   173      0.337220
   174      0.337220
   175     -0.674440
   176      0.337220
   177      0.337220
 
  MM isotropic polarizabilities in au 
  ----------------------------------- 
     1      5.739350
     2      2.308390
     3      2.308390
     4      5.739350
     5      2.308390
     6      2.308390
     7      5.739350
     8      2.308390
     9      2.308390
    10      5.739350
    11      2.308390
    12      2.308390
    13      5.739350
    14      2.308390
    15      2.308390
    16      5.739350
    17      2.308390
    18      2.308390
    19      5.739350
    20      2.308390
    21      2.308390
    22      5.739350
    23      2.308390
    24      2.308390
    25      5.739350
    26      2.308390
    27      2.308390
    28      5.739350
    29      2.308390
    30      2.308390
    31      5.739350
    32      2.308390
    33      2.308390
    34      5.739350
    35      2.308390
    36      2.308390
    37      5.739350
    38      2.308390
    39      2.308390
    40      5.739350
    41      2.308390
    42      2.308390
    43      5.739350
    44      2.308390
    45      2.308390
    46      5.739350
    47      2.308390
    48      2.308390
    49      5.739350
    50      2.308390
    51      2.308390
    52      5.739350
    53      2.308390
    54      2.308390
    55      5.739350
    56      2.308390
    57      2.308390
    58      5.739350
    59      2.308390
    60      2.308390
    61      5.739350
    62      2.308390
    63      2.308390
    64      5.739350
    65      2.308390
    66      2.308390
    67      5.739350
    68      2.308390
    69      2.308390
    70      5.739350
    71      2.308390
    72      2.308390
    73      5.739350
    74      2.308390
    75      2.308390
    76      5.739350
    77      2.308390
    78      2.308390
    79      5.739350
    80      2.308390
    81      2.308390
    82      5.739350
    83      2.308390
    84      2.308390
    85      5.739350
    86      2.308390
    87      2.308390
    88      5.739350
    89      2.308390
    90      2.308390
    91      5.739350
    92      2.308390
    93      2.308390
    94      5.739350
    95      2.308390
    96      2.308390
    97      5.739350
    98      2.308390
    99      2.308390
   100      5.739350
   101      2.308390
   102      2.308390
   103      5.739350
   104      2.308390
   105      2.308390
   106      5.739350
   107      2.308390
   108      2.308390
   109      5.739350
   110      2.308390
   111      2.308390
   112      5.739350
   113      2.308390
   114      2.308390
   115      5.739350
   116      2.308390
   117      2.308390
   118      5.739350
   119      2.308390
   120      2.308390
   121      5.739350
   122      2.308390
   123      2.308390
   124      5.739350
   125      2.308390
   126      2.308390
   127      5.739350
   128      2.308390
   129      2.308390
   130      5.739350
   131      2.308390
   132      2.308390
   133      5.739350
   134      2.308390
   135      2.308390
   136      5.739350
   137      2.308390
   138      2.308390
   139      5.739350
   140      2.308390
   141      2.308390
   142      5.739350
   143      2.308390
   144      2.308390
   145      5.739350
   146      2.308390
   147      2.308390
   148      5.739350
   149      2.308390
   150      2.308390
   151      5.739350
   152      2.308390
   153      2.308390
   154      5.739350
   155      2.308390
   156      2.308390
   157      5.739350
   158      2.308390
   159      2.308390
   160      5.739350
   161      2.308390
   162      2.308390
   163      5.739350
   164      2.308390
   165      2.308390
   166      5.739350
   167      2.308390
   168      2.308390
   169      5.739350
   170      2.308390
   171      2.308390
   172      5.739350
   173      2.308390
   174      2.308390
   175      5.739350
   176      2.308390
   177      2.308390


     ************************************************************************
     ************************** Output from HERINT **************************
     ************************************************************************



                      Nuclear contribution to dipole moments
                      --------------------------------------

                 au               Debye          C m (/(10**-30)

      x     31.70511817        80.58636704       268.80718606
      y    -18.85626931       -47.92785290      -159.87010887
      z     12.84844068        32.65747665       108.93361649



 Threshold for neglecting two-electron integrals:  1.00D-12
 HERMIT - Number of two-electron integrals written:    38299888 ( 42.9% )
 HERMIT - Megabytes written:                            438.557

  Time used in TWOINT     is       7.36 seconds
  Total CPU  time used in HERMIT:   7.54 seconds
  Total wall time used in HERMIT:   8.30 seconds


                        .----------------------------------.
                        | End of Integral Section (HERMIT) |
                        `----------------------------------'



                   .--------------------------------------------.
                   | Starting in Wave Function Section (SIRIUS) |
                   `--------------------------------------------'

NCCEXCI for singlet:    1
 CCSD_INPUT: core-val requested
 Requested number of virtual orbs per sym
                     1
 Indices of requested virtual orbs
                     1
 CCSD_INPUT: core-val requested
 Requested number of core orbs per sym
                     1
 Indices of requested core orbs
                     1

 *** Output from Huckel module :

     Using EWMO model:          T
     Using EHT  model:          F
     Number of Huckel orbitals each symmetry:   37

 EWMO - Energy Weighted Maximum Overlap - is a Huckel type method,
        which normally is better than Extended Huckel Theory.
 Reference: Linderberg and Ohrn, Propagators in Quantum Chemistry (Wiley, 1973)

 Huckel EWMO eigenvalues for symmetry :  1
          -20.684763     -20.684496     -20.684456     -20.684408     -15.675779
           -1.821336      -1.623216      -1.607965      -1.582906      -1.479101
           -0.831894      -0.808672      -0.779006      -0.770262      -0.757303
           -0.746351      -0.732130      -0.697086      -0.682455      -0.672685
           -0.667079      -0.613053      -0.583245      -0.560186      -0.542323
           -0.265766      -0.249427      -0.241324      -0.230877      -0.183035
           -0.181360      -0.178969      -0.175703      -0.169938      -0.146101
           -0.143342      -0.137802

 **********************************************************************
 *SIRIUS* a direct, restricted step, second order MCSCF program       *
 **********************************************************************

 
     Date and time (Linux)  : Mon Dec  3 16:08:53 2018
     Host name              : n-62-24-6                               

 Title lines from ".mol" input file:
                                                                             
                                                                             

 Print level on unit LUPRI =   2 is   0
 Print level on unit LUW4  =   2 is  11

@    (Integral direct) CC calculation.

@    This is a combination run starting with
@              a restricted, closed shell Hartree-Fock calculation


 Initial molecular orbitals are obtained according to
 ".MOSTART EWMO  " input option

@    QM part is embedded in an environment :

@         Model: QMMM

     Wave function specification
     ============================

     For the specification of the Coupled Cluster: see later.

@    Wave function type        --- CC ---
@    Number of closed shell electrons          50
@    Number of electrons in active shells       0
@    Total charge of the molecule               1

@    Spin multiplicity and 2 M_S                1         0
@    Total number of symmetries                 1 (point group: C1 )
@    Reference state symmetry                   1 (irrep name : A  )

     Orbital specifications
     ======================
@    Abelian symmetry species          All |    1
@                                          |  A  
                                       --- |  ---
@    Occupied SCF orbitals              25 |   25
@    Secondary orbitals                138 |  138
@    Total number of orbitals          163 |  163
@    Number of basis functions         163 |  163

     Optimization information
     ========================
@    Number of configurations                 1
@    Number of orbital rotations           3450
     ------------------------------------------
@    Total number of variables             3451

     Maximum number of Fock   iterations      0
     Maximum number of DIIS   iterations     60
     Maximum number of QC-SCF iterations     60
     Threshold for SCF convergence     1.00D-07


 Changes of defaults for CC:
 ---------------------------


 -Implicit frozen core calculation
 -Excitation energies calculated
 -One-photon absorption strengths will be calculated
 -Oscillator strengths calculated
  
* Read MO coefficients from SIRIUS.RST with label "NEWORB  " and header info:  3Dec18  REORTHO 


 ***********************************************
 ***** DIIS acceleration of SCF iterations *****
 ***********************************************

 C1-DIIS algorithm; max error vectors =    8
 -----------------------------------------------------------------------------

 *** DIIS iteration number    1
 RDSUPM called. NFMAT, ISYMDM(1:NFMAT)                     1
                     1

Calculating AOSUPINT
     (Precalculated two-electron integrals are transformed to P-supermatrix elements.
      Threshold for discarding integrals :  1.00D-12 )
  CPU  time used in FORMSUP    is   3.21 seconds
  WALL time used in FORMSUP    is  15.48 seconds

 ITDIIS, energy, error norm, change in energy, scr.thr., difden:
@ DIIS iter.   1    -360.250021864        4.00130D+00   -3.60D+02  -20    F

 (DIIS_RED) Control Parameters C2DIIS =         F NEVC =    1


 (DIIS_RED) B matrix:

               Column   1
       1      16.01038577
    ==== End of matrix output ====

 DIIS C vector; C2DIIS = F, LAMBDA = -1.60D+01
    1.000000
* Read MO coefficients from SIRIUS.RST with label "NEWORB  " and header info:  3Dec18  DIIS   1
      Virial theorem: -V/T =      2.003008
@      MULPOP N       0.09; H       0.16; H       0.17; H       0.19; H       0.16; O      -0.56; O      -0.61; O      -0.62; O      -0.61; H       0.33; 
@             H       0.32; H       0.31; H       0.33; H       0.34; H       0.34; H       0.33; H       0.34; 
   1  Level shift: doubly occupied orbital energies shifted by -2.00D-01

 DIIS Fock eigenvalues in symmetry 1
      -20.84590      -20.83335      -20.82030      -20.80551      -16.46131
       -1.74073       -1.66059       -1.65129       -1.63424       -1.62800
       -1.22404       -1.21293       -1.19150       -1.05071       -1.01711
       -1.00437       -1.00293       -0.91516       -0.89843       -0.88824
       -0.88437       -0.87398       -0.85546       -0.85207       -0.82956
       -0.01082       -0.00005        0.05114        0.06651        0.07684
        0.12218        0.14309        0.14977        0.16729        0.18887
        0.20277        0.20619        0.22386        0.24846        0.26442
        0.30164        0.41426        0.43852        0.45288        0.46140
        0.47941        0.49326        0.50750        0.51166        0.53828
        0.67017        0.71447        0.73884        0.82453        0.84228
        0.87027        0.87865        0.92366        0.96236        0.96456
        0.97234        0.99634        1.00553        1.03590        1.04515
        1.05224        1.07216        1.11305        1.22754        1.24185
        1.28110        1.31907        1.33987        1.35313        1.35991
        1.39271        1.40397        1.42026        1.44047        1.47856
        1.52637        1.54526        1.55659        1.58257        1.61071
        1.63132        1.65566        1.70214        1.77919        1.78563
        1.80146        1.82825        1.97324        2.02952        2.03905
        2.08658        2.10467        2.12380        2.12613        2.13604
        2.16712        2.17549        2.21765        2.26841        2.28048
        2.40595        2.43327        2.48189        2.52214        2.53746
        2.55268        2.61493        2.61578        2.63346        2.66313
        2.66746        2.70132        2.73751        2.78033        2.93823
        3.03649        3.08403        3.14129        3.27088        3.32719
        3.33214        3.35276        3.37507        3.38197        3.43474
        3.44045        3.46320        3.52491        3.52996        3.56724
        3.86745        3.87195        3.88199        3.94378        4.01491
        4.07602        4.10737        4.14765        4.70620        4.80012
        4.84977        5.25486        5.29827        5.31419        5.35930
        5.64272        5.65873        5.71988        5.74296        5.91517
        5.95184        5.99661        6.04534       36.38552       51.44144
       51.45177       51.45568       51.47770
 Time used in FCKEIG, thr_jaco:   4.40D-02  4.80D-02  1.70D-04
 CPU and wall times used in FCKEIG, THR_FCKEIG:   4.40D-02  4.80D-02  4.00D-02
 -----------------------------------------------------------------------------

 *** DIIS iteration number    2
 RDSUPM called. NFMAT, ISYMDM(1:NFMAT)                     1
                     1

 ITDIIS, energy, error norm, change in energy, scr.thr., difden:
@ DIIS iter.   2    -361.156700843        1.13672D+00   -9.07D-01  -20    F

 (DIIS_RED) Control Parameters C2DIIS =         F NEVC =    2


 (DIIS_RED) B matrix:

               Column   1     Column   2
       1      16.01038577
       2       0.80860841     1.29212821
    ==== End of matrix output ====

 DIIS C vector; C2DIIS = F, LAMBDA = -1.28D+00
    0.030826    0.969174
* Read MO coefficients from SIRIUS.RST with label "NEWORB  " and header info:  3Dec18  DIIS   2
      Virial theorem: -V/T =      2.002462
@      MULPOP N      -0.53; H       0.33; H       0.30; H       0.37; H       0.30; O      -0.60; O      -0.61; O      -0.52; O      -0.61; H       0.34; 
@             H       0.36; H       0.31; H       0.33; H       0.28; H       0.30; H       0.33; H       0.34; 
   2  Level shift: doubly occupied orbital energies shifted by -1.00D-01

 DIIS Fock eigenvalues in symmetry 1
      -20.79985      -20.79411      -20.76965      -20.73559      -15.63601
       -1.55277       -1.54928       -1.52584       -1.51031       -1.39060
       -0.92820       -0.89967       -0.89579       -0.88265       -0.87389
       -0.86620       -0.86121       -0.80554       -0.80389       -0.77284
       -0.76779       -0.73758       -0.72603       -0.70138       -0.69279
       -0.00005        0.05300        0.09201        0.11599        0.12039
        0.16489        0.17852        0.19562        0.21731        0.24296
        0.24696        0.27475        0.31720        0.34304        0.36124
        0.38655        0.44929        0.48024        0.49119        0.50598
        0.51531        0.54082        0.54886        0.57374        0.62108
        0.81583        0.82457        0.85524        0.87875        0.89876
        0.91140        0.92760        0.98123        0.99805        1.00174
        1.01249        1.04172        1.04624        1.07525        1.08101
        1.16676        1.17415        1.22810        1.28312        1.28440
        1.33270        1.38131        1.39415        1.40944        1.42614
        1.44927        1.46098        1.47496        1.50931        1.56214
        1.60956        1.62340        1.66268        1.66624        1.70583
        1.72441        1.72738        1.76477        1.83902        1.84437
        1.86318        1.95301        2.06499        2.08828        2.11598
        2.15138        2.16318        2.17370        2.21688        2.24483
        2.24981        2.28515        2.32005        2.33728        2.39796
        2.49683        2.54615        2.56997        2.60992        2.63397
        2.66387        2.67357        2.72391        2.73284        2.74575
        2.77760        2.82559        2.94179        2.97116        3.14692
        3.20975        3.29050        3.32648        3.36154        3.36402
        3.36532        3.39810        3.43196        3.45427        3.46849
        3.49752        3.51274        3.54485        3.57876        3.60640
        3.88891        3.89879        3.91366        3.97187        4.04200
        4.10216        4.11645        4.18299        5.06509        5.17654
        5.22337        5.27286        5.30769        5.33578        5.36802
        5.64997        5.67227        5.72823        5.74285        5.91628
        5.97370        6.01481        6.07517       37.09406       51.37453
       51.39693       51.42110       51.44973
 Time used in FCKEIG, thr_jaco:   3.10D-02  4.00D-02  4.84D-05
 CPU and wall times used in FCKEIG, THR_FCKEIG:   3.10D-02  4.00D-02  1.14D-02
 -----------------------------------------------------------------------------

 *** DIIS iteration number    3
 RDSUPM called. NFMAT, ISYMDM(1:NFMAT)                     1
                     1

 ITDIIS, energy, error norm, change in energy, scr.thr., difden:
@ DIIS iter.   3    -361.232432898        3.76551D-01   -7.57D-02  -20    F

 (DIIS_RED) Control Parameters C2DIIS =         F NEVC =    3


 (DIIS_RED) B matrix:

               Column   1     Column   2     Column   3
       1      16.01038577
       2       0.80860841     1.29212821
       3       0.81665292     0.00166732     0.14179076
    ==== End of matrix output ====

 DIIS C vector; C2DIIS = F, LAMBDA = -9.55D-02
   -0.047413    0.102326    0.945087
* Read MO coefficients from SIRIUS.RST with label "NEWORB  " and header info:  3Dec18  DIIS   3
      Virial theorem: -V/T =      2.003199
@      MULPOP N      -0.35; H       0.29; H       0.26; H       0.35; H       0.26; O      -0.68; O      -0.67; O      -0.58; O      -0.68; H       0.37; 
@             H       0.39; H       0.34; H       0.35; H       0.30; H       0.32; H       0.35; H       0.37; 
   3  Level shift: doubly occupied orbital energies shifted by -5.00D-02

 DIIS Fock eigenvalues in symmetry 1
      -20.70378      -20.69462      -20.67336      -20.66445      -15.79473
       -1.48502       -1.47664       -1.45479       -1.45066       -1.39235
       -0.86967       -0.86952       -0.85815       -0.84387       -0.82188
       -0.80985       -0.80605       -0.73366       -0.73067       -0.70809
       -0.69844       -0.66379       -0.65197       -0.63309       -0.62520
       -0.00005        0.05830        0.09893        0.11920        0.12693
        0.16968        0.18202        0.19838        0.22140        0.24578
        0.24956        0.27607        0.31728        0.34107        0.35818
        0.38725        0.46149        0.48954        0.50147        0.51533
        0.52318        0.55092        0.55936        0.57990        0.62056
        0.80128        0.83039        0.85276        0.88567        0.90844
        0.92102        0.92376        0.99343        1.00740        1.01511
        1.02797        1.05310        1.05598        1.08925        1.09257
        1.16114        1.16932        1.22345        1.29103        1.29741
        1.34432        1.39446        1.40789        1.42184        1.44129
        1.46195        1.47172        1.48519        1.51840        1.56869
        1.61984        1.63171        1.66621        1.67340        1.71044
        1.72999        1.73457        1.77426        1.85103        1.85738
        1.87225        1.94994        2.07162        2.10440        2.12661
        2.16476        2.17807        2.18471        2.22932        2.25091
        2.25994        2.28510        2.32246        2.34909        2.39866
        2.50573        2.55261        2.57792        2.61527        2.64146
        2.66785        2.68450        2.73311        2.74430        2.75425
        2.78594        2.81671        2.91371        2.94032        3.13118
        3.19402        3.30323        3.31458        3.37796        3.38076
        3.39457        3.40391        3.43520        3.44981        3.48526
        3.51811        3.52814        3.57596        3.59693        3.62316
        3.91665        3.92584        3.93123        3.99523        4.06861
        4.13284        4.14840        4.20104        4.99767        5.10278
        5.15500        5.28904        5.33700        5.36104        5.39235
        5.67786        5.69224        5.76195        5.77708        5.95488
        6.00850        6.04588        6.09456       36.89165       51.42894
       51.43796       51.46716       51.47169
 Time used in FCKEIG, thr_jaco:   2.70D-02  3.20D-02  1.60D-05
 CPU and wall times used in FCKEIG, THR_FCKEIG:   2.70D-02  3.20D-02  3.77D-03
 -----------------------------------------------------------------------------

 *** DIIS iteration number    4
 RDSUPM called. NFMAT, ISYMDM(1:NFMAT)                     1
                     1

 ITDIIS, energy, error norm, change in energy, scr.thr., difden:
@ DIIS iter.   4    -361.242706972        9.43613D-02   -1.03D-02  -20    F

 (DIIS_RED) Control Parameters C2DIIS =         F NEVC =    4


 (DIIS_RED) B matrix:

               Column   1     Column   2     Column   3     Column   4
       1      16.01038577
       2       0.80860841     1.29212821
       3       0.81665292     0.00166732     0.14179076
       4       0.05226638     0.07907198     0.00433256     0.00890405
    ==== End of matrix output ====

 DIIS C vector; C2DIIS = F, LAMBDA = -4.60D-03
   -0.000171   -0.061182    0.001737    1.059616
* Read MO coefficients from SIRIUS.RST with label "NEWORB  " and header info:  3Dec18  DIIS   4
      Virial theorem: -V/T =      2.003162
@      MULPOP N      -0.42; H       0.30; H       0.28; H       0.37; H       0.27; O      -0.69; O      -0.69; O      -0.58; O      -0.69; H       0.37; 
@             H       0.40; H       0.35; H       0.36; H       0.30; H       0.33; H       0.36; H       0.38; 
   4  Level shift: doubly occupied orbital energies shifted by -2.50D-02

 DIIS Fock eigenvalues in symmetry 1
      -20.69291      -20.68719      -20.66690      -20.64572      -15.73774
       -1.46509       -1.45789       -1.43526       -1.42905       -1.35615
       -0.84154       -0.83505       -0.83110       -0.80968       -0.80095
       -0.78823       -0.78430       -0.71121       -0.70934       -0.68432
       -0.67600       -0.63986       -0.62859       -0.60836       -0.59952
       -0.00005        0.05842        0.09749        0.11904        0.12632
        0.16921        0.18225        0.19822        0.22164        0.24664
        0.24983        0.27875        0.32014        0.34702        0.36367
        0.39161        0.46048        0.48898        0.50045        0.51517
        0.52198        0.54950        0.55793        0.57900        0.62387
        0.80747        0.83292        0.85722        0.88730        0.90989
        0.92166        0.92685        0.99225        1.00800        1.01393
        1.02636        1.05248        1.05656        1.08717        1.09065
        1.16707        1.17159        1.22740        1.29116        1.29622
        1.34358        1.39390        1.40566        1.42083        1.43906
        1.46051        1.46930        1.48362        1.51885        1.56968
        1.61977        1.63253        1.67044        1.67386        1.71215
        1.73330        1.73540        1.77405        1.85003        1.85565
        1.86982        1.95489        2.07405        2.10182        2.12707
        2.16331        2.17537        2.18207        2.22802        2.25341
        2.26057        2.28900        2.32368        2.34592        2.40142
        2.50642        2.55610        2.57795        2.61874        2.64262
        2.67057        2.68279        2.73574        2.74276        2.75392
        2.78406        2.82213        2.92292        2.94978        3.13926
        3.20122        3.30531        3.31857        3.37660        3.38207
        3.38965        3.40452        3.43340        3.45056        3.48332
        3.51508        3.52613        3.57112        3.59427        3.62138
        3.91190        3.92100        3.92886        3.99132        4.06452
        4.12777        4.14331        4.19915        5.01206        5.11870
        5.17027        5.28618        5.33025        5.35412        5.38557
        5.67181        5.68864        5.75382        5.76898        5.94567
        5.99917        6.03837        6.09064       36.92324       51.41206
       51.42394       51.44929       51.46533
 Time used in FCKEIG, thr_jaco:   2.60D-02  3.30D-02  4.02D-06
 CPU and wall times used in FCKEIG, THR_FCKEIG:   2.60D-02  3.30D-02  9.44D-04
 -----------------------------------------------------------------------------

 *** DIIS iteration number    5
 RDSUPM called. NFMAT, ISYMDM(1:NFMAT)                     1
                     1

 ITDIIS, energy, error norm, change in energy, scr.thr., difden:
@ DIIS iter.   5    -361.243697586        3.01104D-02   -9.91D-04  -20    F

 (DIIS_RED) Control Parameters C2DIIS =         F NEVC =    5


 (DIIS_RED) B matrix:

               Column   1     Column   2     Column   3     Column   4     Column   5
       1      16.01038577
       2       0.80860841     1.29212821
       3       0.81665292     0.00166732     0.14179076
       4       0.05226638     0.07907198     0.00433256     0.00890405
       5       0.02252224     0.00828871     0.00572537     0.00076334     0.00090664
    ==== End of matrix output ====

 DIIS C vector; C2DIIS = F, LAMBDA = -5.99D-04
    0.001291   -0.013923   -0.044501    0.125131    0.932002
* Read MO coefficients from SIRIUS.RST with label "NEWORB  " and header info:  3Dec18  DIIS   5
      Virial theorem: -V/T =      2.002803
@      MULPOP N      -0.41; H       0.30; H       0.27; H       0.36; H       0.27; O      -0.71; O      -0.70; O      -0.59; O      -0.70; H       0.38; 
@             H       0.41; H       0.35; H       0.37; H       0.31; H       0.33; H       0.36; H       0.39; 
   5  Level shift: doubly occupied orbital energies shifted by -1.25D-02

 DIIS Fock eigenvalues in symmetry 1
      -20.67362      -20.66684      -20.64422      -20.63063      -15.72138
       -1.45028       -1.44259       -1.41920       -1.41567       -1.34206
       -0.82760       -0.82100       -0.81707       -0.79544       -0.78636
       -0.77500       -0.76971       -0.69660       -0.69466       -0.67106
       -0.66060       -0.62431       -0.61274       -0.59223       -0.58505
       -0.00005        0.05884        0.09773        0.11922        0.12681
        0.16949        0.18258        0.19848        0.22216        0.24696
        0.25027        0.27957        0.32096        0.34822        0.36472
        0.39261        0.46125        0.48948        0.50095        0.51605
        0.52217        0.55014        0.55869        0.57923        0.62474
        0.80854        0.83449        0.85863        0.88885        0.91192
        0.92263        0.92837        0.99323        1.00933        1.01556
        1.02803        1.05362        1.05827        1.08882        1.09204
        1.16831        1.17277        1.22863        1.29183        1.29737
        1.34482        1.39544        1.40607        1.42170        1.43971
        1.46113        1.46923        1.48398        1.52002        1.57060
        1.62045        1.63316        1.67133        1.67446        1.71303
        1.73406        1.73600        1.77437        1.85042        1.85591
        1.86952        1.95606        2.07511        2.10283        2.12838
        2.16436        2.17615        2.18200        2.22897        2.25464
        2.26173        2.29014        2.32452        2.34601        2.40237
        2.50697        2.55697        2.57808        2.61938        2.64340
        2.67126        2.68272        2.73652        2.74294        2.75423
        2.78375        2.82322        2.92428        2.95115        3.14083
        3.20298        3.30773        3.32074        3.37759        3.38501
        3.39267        3.40718        3.43592        3.45292        3.48418
        3.51745        3.52946        3.57400        3.59770        3.62229
        3.91481        3.92463        3.92990        3.99343        4.06704
        4.13171        4.14643        4.20014        5.01468        5.12106
        5.17263        5.28790        5.33430        5.35925        5.39048
        5.67526        5.69038        5.75875        5.77379        5.94980
        6.00450        6.04181        6.09182       36.92701       51.41973
       51.43069       51.45926       51.46799
 Time used in FCKEIG, thr_jaco:   2.40D-02  3.40D-02  1.28D-06
 CPU and wall times used in FCKEIG, THR_FCKEIG:   2.40D-02  3.40D-02  3.01D-04
 -----------------------------------------------------------------------------

 *** DIIS iteration number    6
 RDSUPM called. NFMAT, ISYMDM(1:NFMAT)                     1
                     1

 ITDIIS, energy, error norm, change in energy, scr.thr., difden:
@ DIIS iter.   6    -361.243784573        1.05649D-02   -8.70D-05  -20    F

 (DIIS_RED) Control Parameters C2DIIS =         F NEVC =    6


 (DIIS_RED) B matrix:

               Column   1     Column   2     Column   3     Column   4     Column   5     Column   6
       1      16.01038577
       2       0.80860841     1.29212821
       3       0.81665292     0.00166732     0.14179076
       4       0.05226638     0.07907198     0.00433256     0.00890405
       5       0.02252224     0.00828871     0.00572537     0.00076334     0.00090664
       6      -0.00433452     0.00010875     0.00080704     0.00056048     0.00002382     0.00011162
    ==== End of matrix output ====

 DIIS C vector; C2DIIS = F, LAMBDA = -3.44D-05
    0.000736    0.006683   -0.010201   -0.128409    0.104178    1.027014
* Read MO coefficients from SIRIUS.RST with label "NEWORB  " and header info:  3Dec18  DIIS   6
      Virial theorem: -V/T =      2.003046
@      MULPOP N      -0.40; H       0.30; H       0.27; H       0.36; H       0.27; O      -0.71; O      -0.70; O      -0.59; O      -0.70; H       0.38; 
@             H       0.41; H       0.36; H       0.37; H       0.31; H       0.33; H       0.37; H       0.39; 

 DIIS Fock eigenvalues in symmetry 1
      -20.66294      -20.65638      -20.63463      -20.61875      -15.71082
       -1.43828       -1.43060       -1.40754       -1.40330       -1.33005
       -0.81573       -0.80900       -0.80506       -0.78339       -0.77436
       -0.76291       -0.75798       -0.68475       -0.68296       -0.65896
       -0.64905       -0.61210       -0.60052       -0.58017       -0.57252
       -0.00005        0.05873        0.09756        0.11912        0.12661
        0.16938        0.18244        0.19834        0.22202        0.24681
        0.25017        0.27951        0.32084        0.34803        0.36456
        0.39243        0.46107        0.48926        0.50071        0.51577
        0.52198        0.54990        0.55839        0.57902        0.62457
        0.80821        0.83416        0.85829        0.88855        0.91160
        0.92258        0.92804        0.99287        1.00913        1.01515
        1.02758        1.05336        1.05798        1.08844        1.09168
        1.16809        1.17249        1.22836        1.29168        1.29712
        1.34451        1.39508        1.40571        1.42133        1.43944
        1.46080        1.46894        1.48366        1.51966        1.57031
        1.62021        1.63293        1.67123        1.67415        1.71272
        1.73385        1.73580        1.77412        1.85012        1.85568
        1.86920        1.95588        2.07490        2.10246        2.12801
        2.16387        2.17563        2.18162        2.22854        2.25431
        2.26147        2.28992        2.32419        2.34566        2.40200
        2.50669        2.55693        2.57783        2.61924        2.64316
        2.67101        2.68239        2.73630        2.74267        2.75387
        2.78339        2.82283        2.92384        2.95067        3.14045
        3.20253        3.30709        3.32013        3.37735        3.38418
        3.39194        3.40639        3.43524        3.45227        3.48392
        3.51682        3.52852        3.57330        3.59674        3.62202
        3.91411        3.92357        3.92956        3.99278        4.06634
        4.13062        4.14569        4.19986        5.01369        5.12013
        5.17177        5.28759        5.33331        5.35795        5.38925
        5.67435        5.68991        5.75742        5.77250        5.94869
        6.00289        6.04076        6.09138       36.92511       51.41774
       51.42888       51.45642       51.46733
 Time used in FCKEIG, thr_jaco:   2.30D-02  3.10D-02  4.50D-07
 CPU and wall times used in FCKEIG, THR_FCKEIG:   2.30D-02  3.10D-02  1.06D-04
 -----------------------------------------------------------------------------

 *** DIIS iteration number    7
 RDSUPM called. NFMAT, ISYMDM(1:NFMAT)                     1
                     1

 ITDIIS, energy, error norm, change in energy, scr.thr., difden:
@ DIIS iter.   7    -361.243797138        2.17118D-03   -1.26D-05  -20    F

 (DIIS_RED) Control Parameters C2DIIS =         F NEVC =    7


 (DIIS_RED) B matrix:

               Column   1     Column   2     Column   3     Column   4     Column   5     Column   6
       1      16.01038577
       2       0.80860841     1.29212821
       3       0.81665292     0.00166732     0.14179076
       4       0.05226638     0.07907198     0.00433256     0.00890405
       5       0.02252224     0.00828871     0.00572537     0.00076334     0.00090664
       6      -0.00433452     0.00010875     0.00080704     0.00056048     0.00002382     0.00011162
       7       0.00010531     0.00019771    -0.00000823     0.00000753     0.00004456     0.00000198

               Column   7
       7       0.00000471
    ==== End of matrix output ====

 DIIS C vector; C2DIIS = F, LAMBDA = -1.17D-06
   -0.000223   -0.000847    0.005366    0.023111   -0.094756   -0.153648    1.220997
* Read MO coefficients from SIRIUS.RST with label "NEWORB  " and header info:  3Dec18  DIIS   7
      Virial theorem: -V/T =      2.002994
@      MULPOP N      -0.40; H       0.30; H       0.27; H       0.36; H       0.27; O      -0.71; O      -0.70; O      -0.59; O      -0.70; H       0.38; 
@             H       0.41; H       0.36; H       0.37; H       0.31; H       0.34; H       0.37; H       0.39; 

 DIIS Fock eigenvalues in symmetry 1
      -20.66278      -20.65611      -20.63419      -20.61877      -15.71042
       -1.43818       -1.43046       -1.40735       -1.40324       -1.32984
       -0.81567       -0.80884       -0.80493       -0.78322       -0.77427
       -0.76289       -0.75787       -0.68473       -0.68295       -0.65900
       -0.64896       -0.61196       -0.60034       -0.57995       -0.57240
       -0.00005        0.05878        0.09758        0.11916        0.12666
        0.16941        0.18248        0.19838        0.22207        0.24683
        0.25022        0.27959        0.32092        0.34816        0.36468
        0.39254        0.46112        0.48930        0.50075        0.51583
        0.52201        0.54993        0.55843        0.57905        0.62467
        0.80833        0.83425        0.85840        0.88863        0.91173
        0.92263        0.92816        0.99292        1.00921        1.01526
        1.02769        1.05343        1.05808        1.08851        1.09175
        1.16822        1.17259        1.22848        1.29175        1.29718
        1.34458        1.39517        1.40572        1.42137        1.43945
        1.46083        1.46893        1.48367        1.51975        1.57039
        1.62025        1.63299        1.67133        1.67420        1.71281
        1.73393        1.73587        1.77416        1.85014        1.85568
        1.86920        1.95601        2.07499        2.10250        2.12810
        2.16393        2.17566        2.18161        2.22859        2.25441
        2.26155        2.29003        2.32426        2.34567        2.40209
        2.50673        2.55701        2.57786        2.61933        2.64321
        2.67108        2.68239        2.73638        2.74266        2.75388
        2.78339        2.82294        2.92401        2.95084        3.14062
        3.20270        3.30721        3.32029        3.37738        3.38435
        3.39207        3.40655        3.43537        3.45241        3.48395
        3.51691        3.52871        3.57344        3.59693        3.62206
        3.91423        3.92375        3.92959        3.99286        4.06643
        4.13083        4.14583        4.19991        5.01395        5.12039
        5.17201        5.28763        5.33344        5.35818        5.38947
        5.67445        5.68995        5.75764        5.77270        5.94885
        6.00315        6.04086        6.09140       36.92550       51.41799
       51.42905       51.45685       51.46732
 Time used in FCKEIG, thr_jaco:   2.30D-02  2.90D-02  9.24D-08
 CPU and wall times used in FCKEIG, THR_FCKEIG:   2.30D-02  2.90D-02  2.17D-05
 -----------------------------------------------------------------------------

 *** DIIS iteration number    8
 RDSUPM called. NFMAT, ISYMDM(1:NFMAT)                     1
                     1

 ITDIIS, energy, error norm, change in energy, scr.thr., difden:
@ DIIS iter.   8    -361.243797692        3.73540D-04   -5.54D-07  -20    F

 (DIIS_RED) Control Parameters C2DIIS =         F NEVC =    8


 (DIIS_RED) B matrix:

               Column   1     Column   2     Column   3     Column   4     Column   5     Column   6
       1      16.01038577
       2       0.80860841     1.29212821
       3       0.81665292     0.00166732     0.14179076
       4       0.05226638     0.07907198     0.00433256     0.00890405
       5       0.02252224     0.00828871     0.00572537     0.00076334     0.00090664
       6      -0.00433452     0.00010875     0.00080704     0.00056048     0.00002382     0.00011162
       7       0.00010531     0.00019771    -0.00000823     0.00000753     0.00004456     0.00000198
       8       0.00010866    -0.00002930     0.00000552     0.00000237     0.00000026     0.00000155

               Column   7     Column   8
       7       0.00000471
       8       0.00000036     0.00000014
    ==== End of matrix output ====

 DIIS C vector; C2DIIS = F, LAMBDA = -8.21D-08
    0.000001    0.000007   -0.000550   -0.000592    0.013586   -0.008214   -0.198280    1.194042
* Read MO coefficients from SIRIUS.RST with label "NEWORB  " and header info:  3Dec18  DIIS   8
      Virial theorem: -V/T =      2.003008
@      MULPOP N      -0.40; H       0.30; H       0.27; H       0.36; H       0.27; O      -0.71; O      -0.70; O      -0.59; O      -0.70; H       0.38; 
@             H       0.41; H       0.36; H       0.37; H       0.31; H       0.34; H       0.37; H       0.39; 

 DIIS Fock eigenvalues in symmetry 1
      -20.66272      -20.65613      -20.63427      -20.61869      -15.71043
       -1.43816       -1.43046       -1.40737       -1.40321       -1.32984
       -0.81565       -0.80884       -0.80492       -0.78322       -0.77426
       -0.76287       -0.75788       -0.68473       -0.68298       -0.65900
       -0.64900       -0.61194       -0.60033       -0.57996       -0.57237
       -0.00005        0.05878        0.09758        0.11916        0.12665
        0.16941        0.18248        0.19838        0.22207        0.24684
        0.25022        0.27959        0.32092        0.34816        0.36468
        0.39254        0.46112        0.48930        0.50075        0.51583
        0.52201        0.54993        0.55842        0.57906        0.62468
        0.80833        0.83424        0.85840        0.88863        0.91172
        0.92265        0.92815        0.99293        1.00922        1.01526
        1.02768        1.05344        1.05808        1.08851        1.09175
        1.16821        1.17260        1.22848        1.29176        1.29718
        1.34459        1.39516        1.40572        1.42136        1.43945
        1.46083        1.46894        1.48368        1.51975        1.57039
        1.62025        1.63299        1.67133        1.67420        1.71280
        1.73393        1.73587        1.77416        1.85014        1.85568
        1.86920        1.95601        2.07499        2.10250        2.12809
        2.16392        2.17566        2.18162        2.22859        2.25441
        2.26155        2.29003        2.32426        2.34568        2.40208
        2.50673        2.55701        2.57786        2.61933        2.64321
        2.67107        2.68240        2.73637        2.74266        2.75388
        2.78339        2.82294        2.92400        2.95084        3.14061
        3.20270        3.30722        3.32029        3.37741        3.38434
        3.39206        3.40654        3.43537        3.45241        3.48398
        3.51692        3.52868        3.57343        3.59691        3.62209
        3.91422        3.92372        3.92962        3.99287        4.06645
[...]
 | 1 1 1 1 |  28   1   9   1 |     1132        1 |       640147 |    0.079460  |
 | 1 1 1 1 |  32   1   9   1 |     1136        1 |       644681 |    0.100797  |
 | 1 1 1 1 |  11   1  10   1 |     1253        1 |       784379 |   -0.075712  |
 | 1 1 1 1 |  14   1  10   1 |     1256        1 |       788141 |    0.072135  |
 | 1 1 1 1 |  27   1  10   1 |     1269        1 |       804547 |    0.092545  |
 | 1 1 1 1 |  28   1  10   1 |     1270        1 |       805816 |    0.103182  |
 | 1 1 1 1 |  29   1  10   1 |     1271        1 |       807086 |   -0.069257  |
 | 1 1 1 1 |  14   1  20   1 |     2636        1 |      3472931 |    0.071586  |
 +=============================================================================+


          Norm of Printed Amplitude Vector :             0.8346

          Printed all single excitations greater than 0.382134

          Printed all double excitations greater than 0.064490



+======================================================================+
| contributions of excitation levels to right eigenvectors as computed |
| from the (RE|RE) self overlap                                        |
+----------------------------------------------------------------------+
| sym | multi | state |    E / eV  | % singles | % doubles | % triples |
+======================================================================+
|    1|   1   |   1   |  411.40726 |  88.2280  |  11.7720  |   0.0000  |
+======================================================================+





+======================================================================+
| contributions of excitation levels to excited states as computed     |
| from the (LE|RE) overlap                                             |
+----------------------------------------------------------------------+
| sym | multi | state |    E / eV  | % singles | % doubles | % triples |
+======================================================================+
|    1|   1   |   1   |  411.40726 |  79.2123  |  20.7877  |   0.0000  |
+======================================================================+



 --------------------------
 Symmetry class Nr.:     1
 Multiplicity      :     3
 --------------------------

 Length of Excitation vectors in this class is:   8404200
 No Excitation Energies calculated in this symmetry class
     

   *******************************************************************
   *                                                                 *
   *--------   OUTPUT FROM PROPERTY AND SYMMETRY ANALYSIS   ---------*
   *                                                                 *
   *******************************************************************



                         +-------------------------------+
                         ! REQUESTED PROPERTY OPERATORS: !
                         +-------------------------------+

             Index   Oper. Label  Symmetry  Transp.  PDBS  Atom
             --------------------------------------------------
                1     HAM0            1        1      T      0
                2     XDIPLEN         1        1      F      0
                3     YDIPLEN         1        1      F      0
                4     ZDIPLEN         1        1      F      0
             --------------------------------------------------




                         +-------------------------------+
                         ! REQUESTED EXPECTATION VALUES: !
                         +-------------------------------+

                       Index   Oper. Label  Symmetry
                       -----------------------------
                       -----------------------------




                       +------------------------------------+
                       ! REQUESTED EFFECTIVE FOCK MATRICES: !
                       +------------------------------------+

                       Index   Oper. Label  Symmetry
                       -----------------------------
                       -----------------------------




                        +----------------------------------+
                        ! REQUESTED FIRST ORDER M-VECTORS: !
                        +----------------------------------+

               Index   State Symmetry  Frequency
               --------------------------------------------------
                  1             1    1     1.511894D+01
               --------------------------------------------------


      

    *******************************************************************
    *          SOLVING COUPLED CLUSTER RESPONSE EQUATIONS             *
    *******************************************************************



 
 +======================================================================+
 !                     RHS & ETA VECTORS TO COMPUTE:                    !
 +======================================================================+
 | TYPE | # VEC. |  NEEDED FOR:                                         |
 +----------------------------------------------------------------------+
 +======================================================================+



 +======================================================================+
 !                       LINEAR EQUATIONS TO SOLVE:                     !
 +======================================================================+
 | TYPE | # VEC. |  EQUATION:                                           |
 +----------------------------------------------------------------------+
 |  M1  |    1   |  first-order ground - excited state multipliers      |
 +======================================================================+



 +======================================================================+
 !                F MATRIX TRANSFORMATIONS TO COMPUTE:                  !
 +======================================================================+
 | TYPE | # VEC. |  TRANSFORMED:                                        |
 +----------------------------------------------------------------------+
 |  FR  |    1   |  right eigenvectors (RE)                             |
 +======================================================================+





 Testing R1 list: 

 List nr.  Label     Symmetry      Frequency      T1-norm        T2-norm


 Testing L1 list: 

 List nr.  Label     Symmetry      Frequency      T1-norm        T2-norm
  Solvent 1-order response equations converged in                     0 
  solvent iterations
 SONIAPRI                     0
 CCEQ_STR: CVSEPARATION =  T
 CCEQ_STR: IONIZATION =  T
 CCEQ_STR: REMOVE_CORE =  F
 could not find required file CCM1_1___1
 IOPTSV is    33 ... program continues nevertheless.
 Vector nr.  1 of type M1  and symmetry  1 was not found on file.
     M1  start vector nr.  1 of symmetry  1 generated from gradient
 CCEQ_STR: freeze VALENCE OR VIRT
 CCEQ_SOL: CVSEPARA=     T
 CCEQ_SOL: LIONISAT=     T
 CCEQ_SOL: REMOVE_CORE =  F



 ----- COUPLED CLUSTER RESPONSE SOLVER -----

    Iter  #Vectors  time (min)   residual
    --------------------------------------
 CCRED CVS/IONIS sigma_                     1 
 project out valence occupied or virtual
      1       1         1.47     0.18E+01
 CCRED CVS/IONIS sigma_                     2 
 project out valence occupied or virtual
      2       1         1.46     0.32E+00
 CCRED CVS/IONIS sigma_                     3 
 project out valence occupied or virtual
      3       1         1.49     0.42E-01
 CCRED CVS/IONIS sigma_                     4 
 project out valence occupied or virtual
                    -1  vectors with norm le:  1.000000000000000E-035  REMOVED

 CCORT,**WARNING**  number vectors added is zero after check for vector norm , NBADD :    0

 CCORT, number vectors added is zero , NBADD :    0

 CCORT, number vectors added is zero , NBADD :    0

 CCORT, number vectors added is zero , NBADD :    0

 CCORT, number vectors added is zero , NBADD :    0

 *** MICROITERATIONS STOPPED DUE TO LINEAR DEPENDENCE BETWEEN ALL NEW TRIAL VECTORS
                     0  trial vectors converged
  LINEAR DEPENDENCE BETWEEN                     1  NON CONVERGED TRIAL VECTORS
      4       1         1.47     0.41E-02

 ***  CCEQ_SOL -MICROITERATIONS STOPPED  
     LINEAR DEPENDENCE BETWEEN ALL NEW TRIAL VECTORS
    --------------------------------------
    converged in  4 iterations
    threshold:    0.10E-08


         Routine          Time (min)
         ---------------------------
         CC_TRDRV            5.89
         CCRED               0.04
         CCNEX               0.06
         ---------------------------
         Total time          5.98


  Total CPU  time used in CCEQ_SOLV:  5 minutes 59 seconds
  Total wall time used in CCEQ_SOLV:  7 minutes 41 seconds


 xxxxxxxxxxxxxxxxxxxxxxxxxxxxxxxxxxxxx

 
 Solution of CC response equations completed.
 

 *******************************************************************
 *                                                                 *
 *--------  OUTPUT FROM COUPLED CLUSTER LINEAR RESPONSE   ---------*
 *                                                                 *
 *--------      CALCULATION OF SECOND ORDER RESIDUES      ---------*
 *                                                                 *
 *******************************************************************



                  +---------------------------------------------+
                  ! CC_SOPR: Calculation of CCSD       Residues !
                  +---------------------------------------------+

 Doing the Mf*CsiA
 Doing the Mf*CsiA
 Doing the Mf*CsiA


 CCSD  Right transition moments in atomic units:
 -----------------------------------------------

  1      15.118939  <XDIPLEN |f> =       0.00000001
  1      15.118939  <YDIPLEN |f> =       0.00000000
  1      15.118939  <ZDIPLEN |f> =       0.00000003


 CCSD  Left  transition moments in atomic units:
 -----------------------------------------------

  1      15.118939  <f|XDIPLEN > =       0.00000000
  1      15.118939  <f|YDIPLEN > =       0.00000000
  1      15.118939  <f|ZDIPLEN > =       0.00000001


 CCSD  linear response residue property in atomic units:
 -------------------------------------------------------

 RES{<<XDIPLEN ,XDIPLEN >>(15.118939)} =     0.00000000 (   0.00000001)
 RES{<<XDIPLEN ,YDIPLEN >>(15.118939)} =     0.00000000 (   0.00000000)
 RES{<<XDIPLEN ,ZDIPLEN >>(15.118939)} =     0.00000000 (   0.00000001)
 RES{<<YDIPLEN ,XDIPLEN >>(15.118939)} =     0.00000000 (   0.00000000)
 RES{<<YDIPLEN ,YDIPLEN >>(15.118939)} =     0.00000000 (   0.00000000)
 RES{<<YDIPLEN ,ZDIPLEN >>(15.118939)} =     0.00000000 (   0.00000000)
 RES{<<ZDIPLEN ,XDIPLEN >>(15.118939)} =     0.00000000 (   0.00000001)
 RES{<<ZDIPLEN ,YDIPLEN >>(15.118939)} =     0.00000000 (   0.00000000)
 RES{<<ZDIPLEN ,ZDIPLEN >>(15.118939)} =     0.00000000 (   0.00000002)


 CCSD  Transition strength matrix for state nr.  1 of symmetry 1
 CCSD  excitation energy:15.11893897

 Gauge: length

               Column   1     Column   2     Column   3
       1     4.472954D-17   2.838122D-18   1.141824D-16
       2     2.838122D-18   1.798675D-19   7.245995D-18
       3     1.141824D-16   7.245995D-18   2.914716D-16
    ==== End of matrix output ====

 Principal values of diagonalized transition strength matrix:

             a.u.               
 1       0.00000000
 2       0.00000000
 3       0.00000000

 Principal axis of diagonalized transition strength matrix:


               Column   1     Column   2     Column   3
       1       1.00000000     0.00000000     0.00000000
       2       0.00000000     1.00000000     0.00000000
       3       0.00000000     0.00000000     1.00000000
    ==== End of matrix output ====


 CCSD   oscillator strength matrix for state nr.  1 of symmetry 1
 CCSD  excitation energy:15.11893897


               Column   1     Column   2     Column   3
       1     4.508421D-16   2.860626D-17   1.150878D-15
       2     2.860626D-17   1.812937D-18   7.303450D-17
       3     1.150878D-15   7.303450D-17   2.937827D-15
    ==== End of matrix output ====

 Principal values of diagonalized oscillator strength matrix:

             a.u.               
 1       0.00000000
 2       0.00000000
 3       0.00000000

 Principal axis of diagonalized oscillator strength matrix:


               Column   1     Column   2     Column   3
       1       1.00000000     0.00000000     0.00000000
       2       0.00000000     1.00000000     0.00000000
       3       0.00000000     0.00000000     1.00000000
    ==== End of matrix output ====

  Total time for      9 linear response residues:       3.44 seconds.
  

 *******************************************************************************
 *******************************************************************************
 *                                                                             *
 *                                                                             *
 *                   SUMMARY OF COUPLED CLUSTER CALCULATION                    *
 *                                                                             *
 *                                                                             *
 *******************************************************************************
 *******************************************************************************

                                                                                
                                                                                
            Total SCF   energy:                  -361.2437977106                
            Total MP2   energy:                  -362.3505720940                
            Total CCSD  energy:                  -362.3911026747                
                                                                                
                                                                                
            Total SCF   energy:                  -361.2437977106                
            Total RSTAR energy:                  -362.3911026747                
            Total CCSD  energy:                  -362.3912453050                
                                                                                
                                                                                
            Total SCF   energy:                  -361.2437977106                
            Total RSTAR energy:                  -362.3912453050                
            Total CCSD  energy:                  -362.3912466629                
                                                                                
                                                                                
            Total SCF   energy:                  -361.2437977106                
            Total RSTAR energy:                  -362.3912466629                
            Total CCSD  energy:                  -362.3912467858                
                                                                                
                                                                                
            Total SCF   energy:                  -361.2437977106                
            Total RSTAR energy:                  -362.3912467858                
            Total CCSD  energy:                  -362.3912467904                
                                                                                
                                                                                
            Total SCF   energy:                  -361.2437977106                
            Total RSTAR energy:                  -362.3912467904                
            Total CCSD  energy:                  -362.3912467907                
            CCSD Total  energy:                  -362.8599621688                
            CCSD E(QM/MM)     :                    -0.4636393894                
                                                                                
                                                                                
                                                                                
 +=============================================================================+
 |  sym. | Exci.  |        CCSD       Excitation energies            | ||T1||  |
 |(spin, |        +------------------------------------------------------------+
 | spat) |        |     Hartree    |       eV.      |     cm-1       |    %    |
 +=============================================================================+
 | ^1A   |    1   |    15.1189390  |     411.40726  |   3318223.527  |  88.23  |
 +=============================================================================+
                                                                                
                                                                                
     Total energies in Hartree:                                                 
             1 ^1A       -347.2773838086                                        
                                                                                
                                                                                
 +=============================================================================+
 |  sym. | Exci.  |        CCSD       Length   Gauge Oscillator Strength       |
 |(spin, |        +------------------------------------------------------------+
 | spat) |        | Dipole Strength(a.u.) | Oscillator strength  | Direction   |
 +=============================================================================+
 | ^1A   |    1   |        0.0000000      |      0.0000000       |    -        |
 +=============================================================================+

  1 a.u. =        27.21138 eV.  
  1 a.u. =    219474.62934 cm-1.
  

 *******************************************************************************
 *******************************************************************************
 *                                                                             *
 *                                                                             *
 *                      END OF COUPLED CLUSTER CALCULATION                     *
 *                                                                             *
 *                                                                             *
 *******************************************************************************
 *******************************************************************************


 CPU and wall time for CC :    7251.664    9523.988

 
     Date and time (Linux)  : Mon Dec  3 18:52:01 2018
     Host name              : n-62-24-6                               


                      .-------------------------------------.
                      | End of Coupled Cluster Section (CC) |
                      `-------------------------------------'

  Total CPU  time used in DALTON:   2 hours  3 minutes  7 seconds
  Total wall time used in DALTON:   2 hours 43 minutes 17 seconds

 
     Date and time (Linux)  : Mon Dec  3 18:52:01 2018
     Host name              : n-62-24-6                               
  

 +---------------------------------------------------------+ 
 | List of selected calculated molecular properties (a.u.) | 
 +---------------------------------------------------------+ 

  Properties are read from unit number                      4

 CCSD       properties :
 #  1 1 CCSD/MM  Ground state Energy =    -362.8599621688
 #  2 1 E_QM/MM  Ground state Energy =      -0.4636393894
 #  3 1 Sy: 1 Sp: 1 Exc:  1 E_tot:   -347.2773838086 w:     15.1189389708 E_grs:   -362.3963227794
 #  4 1 Exctot   Excited state Energy =    -347.2773838086
 #  5 1 |<O|XDIPLEN |i(15.118939)>| =     0.00000001
 #  7 1 |<O|YDIPLEN |i(15.118939)>| =     0.00000000
 #  9 1 |<O|ZDIPLEN |i(15.118939)>| =     0.00000002

 THE_END   
