

     ************************************************************************
     *************** Dalton - An Electronic Structure Program ***************
     ************************************************************************

    This is output from DALTON release Dalton2017.alpha (2016)
         ( Web site: http://daltonprogram.org )

   ----------------------------------------------------------------------------

    NOTE:
     
    Dalton is an experimental code for the evaluation of molecular
    properties using (MC)SCF, DFT, CI, and CC wave functions.
    The authors accept no responsibility for the performance of
    the code or for the correctness of the results.
     
    The code (in whole or part) is provided under a licence and
    is not to be reproduced for further distribution without
    the written permission of the authors or their representatives.
     
    See the home page "http://daltonprogram.org" for further information.
     
    If results obtained with this code are published,
    the appropriate citations would be both of:
     
       K. Aidas, C. Angeli, K. L. Bak, V. Bakken, R. Bast,
       L. Boman, O. Christiansen, R. Cimiraglia, S. Coriani,
       P. Dahle, E. K. Dalskov, U. Ekstroem,
       T. Enevoldsen, J. J. Eriksen, P. Ettenhuber, B. Fernandez,
       L. Ferrighi, H. Fliegl, L. Frediani, K. Hald, A. Halkier,
       C. Haettig, H. Heiberg, T. Helgaker, A. C. Hennum,
       H. Hettema, E. Hjertenaes, S. Hoest, I.-M. Hoeyvik,
       M. F. Iozzi, B. Jansik, H. J. Aa. Jensen, D. Jonsson,
       P. Joergensen, J. Kauczor, S. Kirpekar,
       T. Kjaergaard, W. Klopper, S. Knecht, R. Kobayashi, H. Koch,
       J. Kongsted, A. Krapp, K. Kristensen, A. Ligabue,
       O. B. Lutnaes, J. I. Melo, K. V. Mikkelsen, R. H. Myhre,
       C. Neiss, C. B. Nielsen, P. Norman, J. Olsen,
       J. M. H. Olsen, A. Osted, M. J. Packer, F. Pawlowski,
       T. B. Pedersen, P. F. Provasi, S. Reine, Z. Rinkevicius,
       T. A. Ruden, K. Ruud, V. Rybkin, P. Salek, C. C. M. Samson,
       A. Sanchez de Meras, T. Saue, S. P. A. Sauer,
       B. Schimmelpfennig, K. Sneskov, A. H. Steindal,
       K. O. Sylvester-Hvid, P. R. Taylor, A. M. Teale,
       E. I. Tellgren, D. P. Tew, A. J. Thorvaldsen, L. Thoegersen,
       O. Vahtras, M. A. Watson, D. J. D. Wilson, M. Ziolkowski
       and H. Agren,
       "The Dalton quantum chemistry program system",
       WIREs Comput. Mol. Sci. 2014, 4:269–284 (doi: 10.1002/wcms.1172)
     
    and
     
       Dalton, a Molecular Electronic Structure Program,
       Release Dalton2017.alpha (2016), see http://daltonprogram.org
   ----------------------------------------------------------------------------

    Authors in alphabetical order (major contribution(s) in parenthesis):

  Kestutis Aidas,           Vilnius University,           Lithuania   (QM/MM)
  Celestino Angeli,         University of Ferrara,        Italy       (NEVPT2)
  Keld L. Bak,              UNI-C,                        Denmark     (AOSOPPA, non-adiabatic coupling, magnetic properties)
  Vebjoern Bakken,          University of Oslo,           Norway      (DALTON; geometry optimizer, symmetry detection)
  Radovan Bast,             UiT The Arctic U. of Norway,  Norway      (DALTON installation and execution frameworks)
  Pablo Baudin,             University of Valencia,       Spain       (Cholesky excitation energies)
  Linus Boman,              NTNU,                         Norway      (Cholesky decomposition and subsystems)
  Ove Christiansen,         Aarhus University,            Denmark     (CC module)
  Renzo Cimiraglia,         University of Ferrara,        Italy       (NEVPT2)
  Sonia Coriani,            University of Trieste,        Italy       (CC module, MCD in RESPONS)
  Janusz Cukras,            University of Trieste,        Italy       (MChD in RESPONS)
  Paal Dahle,               University of Oslo,           Norway      (Parallelization)
  Erik K. Dalskov,          UNI-C,                        Denmark     (SOPPA)
  Thomas Enevoldsen,        Univ. of Southern Denmark,    Denmark     (SOPPA)
  Janus J. Eriksen,         Aarhus University,            Denmark     (Polarizable embedding model, TDA)
  Rasmus Faber,             University of Copenhagen,     Denmark     (Vib.avg. NMR with SOPPA, parallel AO-SOPPA)
  Berta Fernandez,          U. of Santiago de Compostela, Spain       (doublet spin, ESR in RESPONS)
  Lara Ferrighi,            Aarhus University,            Denmark     (PCM Cubic response)
  Heike Fliegl,             University of Oslo,           Norway      (CCSD(R12))
  Luca Frediani,            UiT The Arctic U. of Norway,  Norway      (PCM)
  Bin Gao,                  UiT The Arctic U. of Norway,  Norway      (Gen1Int library)
  Christof Haettig,         Ruhr-University Bochum,       Germany     (CC module)
  Kasper Hald,              Aarhus University,            Denmark     (CC module)
  Asger Halkier,            Aarhus University,            Denmark     (CC module)
  Frederik Beyer Hansen,    University of Copenhagen,     Denmark     (Parallel AO-SOPPA)
  Erik D. Hedegaard,        Univ. of Southern Denmark,    Denmark     (Polarizable embedding model, QM/MM)
  Hanne Heiberg,            University of Oslo,           Norway      (geometry analysis, selected one-electron integrals)
  Trygve Helgaker,          University of Oslo,           Norway      (DALTON; ABACUS, ERI, DFT modules, London, and much more)
  Alf Christian Hennum,     University of Oslo,           Norway      (Parity violation)
  Hinne Hettema,            University of Auckland,       New Zealand (quadratic response in RESPONS; SIRIUS supersymmetry)
  Eirik Hjertenaes,         NTNU,                         Norway      (Cholesky decomposition)
  Pi A. B. Haase,           University of Copenhagen,     Denmark     (Triplet AO-SOPPA)
  Maria Francesca Iozzi,    University of Oslo,           Norway      (RPA)
  Brano Jansik              Technical Univ. of Ostrava    Czech Rep.  (DFT cubic response)
  Hans Joergen Aa. Jensen,  Univ. of Southern Denmark,    Denmark     (DALTON; SIRIUS, RESPONS, ABACUS modules, London, and much more)
  Dan Jonsson,              UiT The Arctic U. of Norway,  Norway      (cubic response in RESPONS module)
  Poul Joergensen,          Aarhus University,            Denmark     (RESPONS, ABACUS, and CC modules)
  Maciej Kaminski,          University of Warsaw,         Poland      (CPPh in RESPONS)
  Joanna Kauczor,           Linkoeping University,        Sweden      (Complex polarization propagator (CPP) module)
  Sheela Kirpekar,          Univ. of Southern Denmark,    Denmark     (Mass-velocity & Darwin integrals)
  Wim Klopper,              KIT Karlsruhe,                Germany     (R12 code in CC, SIRIUS, and ABACUS modules)
  Stefan Knecht,            ETH Zurich,                   Switzerland (Parallel CI and MCSCF)
  Rika Kobayashi,           Australian National Univ.,    Australia   (DIIS in CC, London in MCSCF)
  Henrik Koch,              NTNU,                         Norway      (CC module, Cholesky decomposition)
  Jacob Kongsted,           Univ. of Southern Denmark,    Denmark     (Polarizable embedding model, QM/MM)
  Andrea Ligabue,           University of Modena,         Italy       (CTOCD, AOSOPPA)
  Nanna H. List             Univ. of Southern Denmark,    Denmark     (Polarizable embedding model)
  Ola B. Lutnaes,           University of Oslo,           Norway      (DFT Hessian)
  Juan I. Melo,             University of Buenos Aires,   Argentina   (LRESC, Relativistic Effects on NMR Shieldings)
  Kurt V. Mikkelsen,        University of Copenhagen,     Denmark     (MC-SCRF and QM/MM)
  Rolf H. Myhre,            NTNU,                         Norway      (Cholesky, subsystems and ECC2)
  Christian Neiss,          Univ. Erlangen-Nuernberg,     Germany     (CCSD(R12))
  Christian B. Nielsen,     University of Copenhagen,     Denmark     (QM/MM)
  Patrick Norman,           Linkoeping University,        Sweden      (Cubic response and complex frequency response in RESPONS)
  Jeppe Olsen,              Aarhus University,            Denmark     (SIRIUS CI/density modules)
  Jogvan Magnus H. Olsen,   Univ. of Southern Denmark,    Denmark     (Polarizable embedding model, QM/MM)
  Anders Osted,             Copenhagen University,        Denmark     (QM/MM)
  Martin J. Packer,         University of Sheffield,      UK          (SOPPA)
  Filip Pawlowski,          Kazimierz Wielki University,  Poland      (CC3)
  Morten N. Pedersen,       Univ. of Southern Denmark,    Denmark     (Polarizable embedding model)
  Thomas B. Pedersen,       University of Oslo,           Norway      (Cholesky decomposition)
  Patricio F. Provasi,      University of Northeastern,   Argentina   (Analysis of coupling constants in localized orbitals)
  Zilvinas Rinkevicius,     KTH Stockholm,                Sweden      (open-shell DFT, ESR)
  Elias Rudberg,            KTH Stockholm,                Sweden      (DFT grid and basis info)
  Torgeir A. Ruden,         University of Oslo,           Norway      (Numerical derivatives in ABACUS)
  Kenneth Ruud,             UiT The Arctic U. of Norway,  Norway      (DALTON; ABACUS magnetic properties and much more)
  Pawel Salek,              KTH Stockholm,                Sweden      (DALTON; DFT code)
  Claire C. M. Samson       University of Karlsruhe       Germany     (Boys localization, r12 integrals in ERI)
  Alfredo Sanchez de Meras, University of Valencia,       Spain       (CC module, Cholesky decomposition)
  Trond Saue,               Paul Sabatier University,     France      (direct Fock matrix construction)
  Stephan P. A. Sauer,      University of Copenhagen,     Denmark     (SOPPA(CCSD), SOPPA prop., AOSOPPA, vibrational g-factors)
  Bernd Schimmelpfennig,    Forschungszentrum Karlsruhe,  Germany     (AMFI module)
  Kristian Sneskov,         Aarhus University,            Denmark     (Polarizable embedding model, QM/MM)
  Arnfinn H. Steindal,      UiT The Arctic U. of Norway,  Norway      (parallel QM/MM, Polarizable embedding model)
  Casper Steinmann,         Univ. of Southern Denmark,    Denmark     (QFIT, Polarizable embedding model)
  K. O. Sylvester-Hvid,     University of Copenhagen,     Denmark     (MC-SCRF)
  Peter R. Taylor,          VLSCI/Univ. of Melbourne,     Australia   (Symmetry handling ABACUS, integral transformation)
  Andrew M. Teale,          University of Nottingham,     England     (DFT-AC, DFT-D)
  David P. Tew,             University of Bristol,        England     (CCSD(R12))
  Olav Vahtras,             KTH Stockholm,                Sweden      (triplet response, spin-orbit, ESR, TDDFT, open-shell DFT)
  David J. Wilson,          La Trobe University,          Australia   (DFT Hessian and DFT magnetizabilities)
  Hans Agren,               KTH Stockholm,                Sweden      (SIRIUS module, RESPONS, MC-SCRF solvation model)
 --------------------------------------------------------------------------------

     Date and time (Linux)  : Sat Dec  8 02:54:32 2018
     Host name              : n-62-29-4                               

 * Work memory size             :  1280000000 =  9.537 gigabytes.

 * Directories for basis set searches:
   1) /zhome/d7/7/119775/My_Codes/dalton-private/build2016/basis/diffs
   2) /zhome/37/3/129401/NH3NH4/CCSD/AIMD_SAMPLING/nh4_4h2o_nd
   3) /zhome/9a/4/124800/source/dalton/build-mlcc/basis


Compilation information
-----------------------

 Who compiled             | rfaber
 Host                     | hpclogin1
 System                   | Linux-2.6.32-696.1.1.el6.x86_64
 CMake generator          | Unix Makefiles
 Processor                | x86_64
 64-bit integers          | ON
 MPI                      | OFF
 Fortran compiler         | /opt/intel/2016update2/compilers_and_libraries_201
                          | 6.2.181/linux/bin/intel64/ifort
 Fortran compiler version | ifort (IFORT) 16.0.2 20160204
 C compiler               | /opt/intel/2016update2/compilers_and_libraries_201
                          | 6.2.181/linux/bin/intel64/icc
 C compiler version       | icc (ICC) 16.0.2 20160204
 C++ compiler             | /opt/intel/2016update2/compilers_and_libraries_201
                          | 6.2.181/linux/bin/intel64/icpc
 C++ compiler version     | icpc (ICC) 16.0.2 20160204
 Static linking           | OFF
 Last Git revision        | bb4d1599ca5680a9f3980451fc8bbefdba436d59
 Git branch               | mlcc
 Configuration time       | 2017-06-13 16:11:03.928841


   Content of the .dal input file
 ----------------------------------

**DALTON
.RUN WAVE FUNCTIONS
*QMMM
.QMMM
**INTEGRALS
.DIPLEN
**WAVE FUNCTIONS
.CC
*PRINT
!To check the origin of excit
.PRINTL
   0 11
*SCF INP
.THRESH
1.0D-7
!*ORBITAL INPUT
!.MOSTART
!NEWORB
*CC INP
!.RESTART
.CCSD
.THRLEQ
 1.0D-9
.THRENR
 1.0D-10
.FROIMP
4
0
.PRINT
 1
.MAX IT
 1200
.MAXRED
 1200
.MXLRV
1199
*CCSLV
.CCMM
.MXSLIT
200
.MXINIT
4 5
*CCEXCI
.NCCEXC
 1
.IONISATION
1
1
.CVSEPARA
1
1
*CCLRSD
.DIPOLE
**END OF DALTON INPUT


   Content of the .mol file
 ----------------------------

ATOMBASIS


Atomtypes=5 Charge=1 Nosymm Angstrom
   7.00000    1    Basis=6-311G**
N          0.000000        0.000000        0.000000
   1.00000    4    Basis=6-311G**
H          0.672584        0.489745        0.568421
H          0.569222       -0.679764       -0.613182
H         -0.587967        0.497559       -0.684935
H         -0.702088       -0.521353        0.540817
   8.00000    4    Basis=6-311G**
O         -2.281750        0.443047       -1.607052
O          1.434382       -1.834573       -1.760526
O         -2.033730       -1.481109        1.200143
O          2.250114        0.191732        1.671346
   1.00000    8    Basis=6-311G**
H         -2.019046        0.609834       -2.531928
H         -2.853039        1.200046       -1.507103
H          0.760858       -2.527506       -1.929421
H          2.249771       -2.252928       -1.605125
H         -2.372898       -0.837323        1.757866
H         -2.747769       -1.513399        0.543797
H          2.502853        1.087919        1.910013
H          3.100727       -0.076719        1.213418
   0.00000    1    Basis=diffs
X          0.000000        0.000000        0.000000


       *******************************************************************
       *********** Output from DALTON general input processing ***********
       *******************************************************************

 --------------------------------------------------------------------------------
   Overall default print level:    0
   Print level for DALTON.STAT:    1

    HERMIT 1- and 2-electron integral sections will be executed
    "Old" integral transformation used (limited to max 255 basis functions)
    Wave function sections will be executed (SIRIUS module)
 --------------------------------------------------------------------------------


 Changes of defaults for *QMMM  :
 --------------------------------

 +------------------+
 |  WORD: | CHANGE: |
 +------------------+
 |   QMMM |       T |
 +------------------+
 


   ****************************************************************************
   *************** Output of molecule and basis set information ***************
   ****************************************************************************


    The two title cards from your ".mol" input:
    ------------------------------------------------------------------------
 1:                                                                         
 2:                                                                         
    ------------------------------------------------------------------------

  Coordinates are entered in Angstrom and converted to atomic units.
          - Conversion factor : 1 bohr = 0.52917721 A

  Atomic type no.    1
  --------------------
  Nuclear charge:   7.00000
  Number of symmetry independent centers:    1
  Number of basis sets to read;    2
  The basis set is "6-311G**" from the basis set library.
  Basis set file used for this atomic type with Z =   7 :
     "/zhome/9a/4/124800/source/dalton/build-mlcc/basis/6-311G**"

  Info about the basis set file: your basis has no documentation.
  Basis set: 6-311G**                                                                        

  Atomic type no.    2
  --------------------
  Nuclear charge:   1.00000
  Number of symmetry independent centers:    4
  Number of basis sets to read;    2
  The basis set is "6-311G**" from the basis set library.
  Basis set file used for this atomic type with Z =   1 :
     "/zhome/9a/4/124800/source/dalton/build-mlcc/basis/6-311G**"

  Info about the basis set file: your basis has no documentation.
  Basis set: 6-311G**                                                                        

  Atomic type no.    3
  --------------------
  Nuclear charge:   8.00000
  Number of symmetry independent centers:    4
  Number of basis sets to read;    2
  The basis set is "6-311G**" from the basis set library.
  Basis set file used for this atomic type with Z =   8 :
     "/zhome/9a/4/124800/source/dalton/build-mlcc/basis/6-311G**"

  Info about the basis set file: your basis has no documentation.
  Basis set: 6-311G**                                                                        

  Atomic type no.    4
  --------------------
  Nuclear charge:   1.00000
  Number of symmetry independent centers:    8
  Number of basis sets to read;    2
  The basis set is "6-311G**" from the basis set library.
  Basis set file used for this atomic type with Z =   1 :
     "/zhome/9a/4/124800/source/dalton/build-mlcc/basis/6-311G**"

  Info about the basis set file: your basis has no documentation.
  Basis set: 6-311G**                                                                        

  Atomic type no.    5
  --------------------
  Nuclear charge:   0.00000
  Number of symmetry independent centers:    1
  Number of basis sets to read;    2
  The basis set is "diffs" from the basis set library.
  Basis set file used for this atomic type with Z =   0 :
     "/zhome/9a/4/124800/source/dalton/build-mlcc/basis/diffs"

  Info about the basis set file: your basis has no documentation.
  Basis set: diffs                                                                           


                         SYMGRP: Point group information
                         -------------------------------

@    Point group: C1 


                                 Isotopic Masses
                                 ---------------

                           N          14.003074
                           H           1.007825
                           H           1.007825
                           H           1.007825
                           H           1.007825
                           O          15.994915
                           O          15.994915
                           O          15.994915
                           O          15.994915
                           H           1.007825
                           H           1.007825
                           H           1.007825
                           H           1.007825
                           H           1.007825
                           H           1.007825
                           H           1.007825
                           H           1.007825

                       Total mass:    90.076634 amu
                       Natural abundance:  98.500 %

 Center-of-mass coordinates (a.u.):   -0.241899   -0.995250   -0.215886


  Atoms and basis sets
  --------------------

  Number of atom types :    5
  Total number of atoms:   18

  label    atoms   charge   prim   cont     basis
  ----------------------------------------------------------------------
  N           1    7.0000    31    18      [11s5p1d|4s3p1d]                                   
  H           4    1.0000     8     6      [5s1p|3s1p]                                        
  O           4    8.0000    31    18      [11s5p1d|4s3p1d]                                   
  H           8    1.0000     8     6      [5s1p|3s1p]                                        
  X           1    0.0000     1     1      [1s|1s]                                            
  ----------------------------------------------------------------------
  total:     18   51.0000   252   163
  ----------------------------------------------------------------------
  Spherical harmonic basis used.

  Threshold for neglecting AO integrals:  1.00D-12


  Cartesian Coordinates (a.u.)
  ----------------------------

  Total number of coordinates:   54
  N       :     1  x   0.0000000000    2  y   0.0000000000    3  z   0.0000000000
  H       :     4  x   1.2709995561    5  y   0.9254839211    6  z   1.0741600137
  H       :     7  x   1.0756736843    8  y  -1.2845677896    9  z  -1.1587460448
  H       :    10  x  -1.1110966005   11  y   0.9402502410   12  z  -1.2943395634
  H       :    13  x  -1.3267540356   14  y  -0.9852143844   15  z   1.0219960137
  O       :    16  x  -4.3118825857   17  y   0.8372374905   18  z  -3.0368881486
  O       :    19  x   2.7105891386   20  y  -3.4668405263   21  z  -3.3269119759
  O       :    22  x  -3.8431927122   23  y  -2.7988903713   24  z   2.2679415808
  O       :    25  x   4.2520992100   26  y   0.3623209694   27  z   3.1583862001
  H       :    28  x  -3.8154439738   29  y   1.1524192417   30  z  -4.7846504882
  H       :    31  x  -5.3914623339   32  y   2.2677582774   33  z  -2.8480119122
  H       :    34  x   1.4378132400   35  y  -4.7762941193   36  z  -3.6460772698
  H       :    37  x   4.2514510340   38  y  -4.2574168993   39  z  -3.0332466464
  H       :    40  x  -4.4841273425   41  y  -1.5823111482   42  z   3.3218853044
  H       :    43  x  -5.1925308647   44  y  -2.8599096278   45  z   1.0276273976
  H       :    46  x   4.7297067011   47  y   2.0558689562   48  z   3.6094014652
  H       :    49  x   5.8595248184   50  y  -0.1449778986   51  z   2.2930276951
  X       :    52  x   0.0000000000   53  y   0.0000000000   54  z   0.0000000000

  Max    interatomic separation is    6.6692 Angstrom (   12.6030 Bohr)
  between atoms   17 and   11, "H     " and "H     ".

  Min HX interatomic separation is    0.9168 Angstrom (    1.7325 Bohr)

  Min YX interatomic separation is    2.7875 Angstrom (    5.2676 Bohr)


  Bond distances (Angstrom):
  --------------------------

                  atom 1     atom 2       distance
                  ------     ------       --------
  bond distance:  H          N            1.007632
  bond distance:  H          N            1.078000
  bond distance:  H          N            1.030731
  bond distance:  H          N            1.028212
  bond distance:  H          O            0.975821
  bond distance:  H          O            0.953629
  bond distance:  H          O            0.980977
  bond distance:  H          O            0.929532
  bond distance:  H          O            0.916815
  bond distance:  H          O            0.970404
  bond distance:  H          O            0.961244
  bond distance:  H          O            1.002650


  Bond angles (degrees):
  ----------------------

                  atom 1     atom 2     atom 3         angle
                  ------     ------     ------         -----
  bond angle:     H          N          H            105.956
  bond angle:     H          N          H            121.400
  bond angle:     H          N          H            113.923
  bond angle:     H          N          H            103.157
  bond angle:     H          N          H            109.877
  bond angle:     H          N          H            101.816
  bond angle:     H          O          H             97.177
  bond angle:     H          O          H            108.249
  bond angle:     H          O          H             99.358
  bond angle:     H          O          H             98.045




 Principal moments of inertia (u*A**2) and principal axes
 --------------------------------------------------------

   IA     254.430684          0.953603   -0.028318    0.299733
   IB     407.308785         -0.286589    0.219642    0.932537
   IC     497.893519          0.092241    0.975170   -0.201335


 Rotational constants
 --------------------

               A                   B                   C

           1986.3131           1240.7761           1015.0343 MHz
            0.066256            0.041388            0.033858 cm-1


@  Nuclear repulsion energy :  204.545684426767 Hartree

  Number of floating/multiple basis set orbitals :    1


                     .---------------------------------------.
                     | Starting in Integral Section (HERMIT) |
                     `---------------------------------------'



 ***************************************************************************************
 ****************** Output from **INTEGRALS input processing (HERMIT) ******************
 ***************************************************************************************



    *************************************************************************
    ****************** Output from HERMIT input processing ******************
    *************************************************************************


 Default print level:        1

 * Nuclear model: Point charge

 Calculation of one- and two-electron Hamiltonian integrals.

 The following one-electron property integrals are calculated as requested:
          - overlap integrals
          - dipole length integrals

 Center of mass  (bohr):     -0.241899271498     -0.995250377320     -0.215886478483
 Operator center (bohr):      0.000000000000      0.000000000000      0.000000000000
 Gauge origin    (bohr):      0.000000000000      0.000000000000      0.000000000000
 Dipole origin   (bohr):      0.000000000000      0.000000000000      0.000000000000
 
  *********************************** 
  QMMM electrostatic potential: 
  Multipole order                                    0
  Isotropic polarization  
  *********************************** 
 
  ---------------- 
  QMMM information 
  ---------------- 
 
  MM coordinates in au 
  -------------------- 
     1     -3.571152      8.035180     -1.123873
     2     -2.850068      6.929246      0.132209
     3     -2.913323      9.783131     -0.517379
     4      2.813078     -8.220363    -11.110822
     5      4.096913     -8.463611     -9.837209
     6      1.679791     -9.587832    -10.704849
     7      1.265245    -11.266800      3.291591
     8      2.397828     -9.876899      2.664982
     9      1.917076    -12.754310      2.462907
    10     -7.794378      4.518766     -5.541422
    11     -8.042015      5.809897     -4.264447
    12     -6.672615      5.077148     -6.846187
    13      4.074378     -7.250477      1.740872
    14      5.603894     -7.031051      2.798820
    15      4.734871     -7.852360      0.108967
    16     10.274902     -4.358224     -7.776488
    17     10.283523     -2.489527     -8.012286
    18     10.264928     -5.261050     -9.509342
    19     -2.866441     -7.938530      4.747691
    20     -3.365786     -6.731388      3.416521
    21     -1.851733     -9.289259      3.749360
    22      5.580885     11.385853     -2.027223
    23      7.317392     10.966037     -1.235932
    24      4.523978      9.942802     -1.290889
    25     -4.021679      1.737698      4.862785
    26     -5.605291      2.705678      5.178672
    27     -3.100619      1.582814      6.488089
    28     -1.085986      2.717863     -6.547752
    29      0.576238      1.964111     -6.409010
    30     -0.910302      4.427921     -5.970733
    31     -0.007716     -0.098536      7.497999
    32      1.476713     -0.168526      6.331217
    33     -0.362973     -1.827981      8.078075
    34     -9.729102      8.636322     11.614816
    35    -10.784663      9.863692     12.584431
    36     -8.333097      8.018227     12.579877
    37     10.207454     10.510060      0.382273
    38      9.707599     10.038097      2.028636
    39     10.936450     12.232615      0.452100
    40      6.646945     -9.031751     -6.823279
    41      6.858341     -7.407827     -5.977024
    42      6.559731    -10.286564     -5.437447
    43     10.920933      9.186718     -5.327905
    44     10.634678      9.560737     -3.486250
    45      9.156027      8.901506     -5.841773
    46     -9.972219      2.071527     -0.246330
    47     -9.613689      3.829245     -0.703114
    48     -9.259554      2.179285      1.528632
    49      8.069422     -7.977828      4.992885
    50      7.211407     -7.512449      6.557253
    51      8.303426     -9.763701      5.373431
    52      2.939422      0.619314     11.649597
    53      1.318660      0.882776     10.676541
    54      2.781524     -0.053842     13.409204
    55    -10.462854     -8.809625     -0.478813
    56    -10.130807     -7.977859      1.147081
    57    -11.658820     -7.618790     -1.133913
    58      8.880107      9.898675      5.380644
    59      8.014017      9.660824      6.929303
    60     10.650523      9.799173      5.971368
    61     -0.188770     -7.729447     -4.967812
    62     -1.418578     -6.615298     -5.713780
    63      0.587206     -8.821882     -6.288763
    64     10.894929      4.064504    -11.357900
    65     12.149399      5.355833    -11.581243
    66     10.960948      3.176448    -12.956134
    67     -1.411144      5.272591      2.577520
    68     -2.299736      3.831435      3.118944
    69     -0.783637      6.186332      4.082005
    70     -4.371995      8.494109      7.887001
    71     -4.814656      7.337606      9.203845
    72     -5.866598      8.451367      6.700952
    73      8.402346      0.032945      0.120891
    74     10.234485      0.562288      0.461741
    75      7.866516      1.181801     -1.296694
    76     -8.924844    -10.907671     -7.237016
    77     -9.040034     -9.935080     -5.719553
    78     -9.977741    -12.401411     -6.816159
    79     11.055652      0.870584      8.015838
    80     12.238063     -0.438908      8.568332
    81      9.284187      0.295430      8.127472
    82     -6.168731     -0.894714    -10.684169
    83     -7.042376     -1.916919    -11.965929
    84     -7.519458     -0.331951     -9.530921
    85     -8.399200     -3.110561     -0.492094
    86     -8.679132     -4.041285     -2.080137
    87     -8.271858     -1.318250     -0.934077
    88    -11.482297      0.752177     -7.600093
    89    -11.470636      2.115562     -8.819131
    90    -10.245619      1.285728     -6.298491
    91      1.714843      5.994939      7.678617
    92      0.690045      4.969343      8.929769
    93      1.333585      7.803794      7.895217
    94      3.477013      0.332796     -6.729167
    95      4.794367      1.542370     -6.189802
    96      3.956346     -1.099465     -5.717196
    97     -2.450499      2.880343    -11.199982
    98     -3.654449      1.534425    -11.005370
    99     -1.488460      2.712997     -9.656843
   100     -0.559204     11.616617     -9.420614
   101     -0.460568     10.288119    -10.593640
   102     -2.323562     12.100279     -9.784934
   103    -10.101463     -5.078340      4.217572
   104    -11.763885     -5.968662      4.369523
   105     -9.807391     -4.404226      2.520749
   106     -8.907443      3.438194      5.144432
   107    -10.387577      2.412717      5.806871
   108     -9.466317      5.167377      4.897902
   109     11.223751     -6.659950     11.112903
   110      9.501611     -6.234755     10.342093
   111     10.928643     -8.497957     11.490174
   112      6.119806     -0.828407      8.100725
   113      4.777364     -0.488763      9.519924
   114      5.438664     -0.333758      6.480406
   115      6.473251     -5.576848      9.269273
   116      5.225936     -5.904206     10.483556
   117      6.299616     -3.809408      8.709689
   118     -8.456955      7.130453     -0.823652
   119     -9.830771      8.273703     -0.544007
   120     -6.714087      7.975504     -0.783622
   121      5.939381      7.604317     -5.941560
   122      4.435947      8.765215     -5.685579
   123      5.550940      6.862406     -7.699254
   124      6.079396     10.150558      9.989580
   125      5.844286      8.617656     10.858313
   126      4.422675     10.914930      9.670721
   127     -7.420586     -9.679812      6.360863
   128     -5.952012     -8.988609      5.436026
   129     -8.746679     -8.370419      6.255462
   130      0.821785     11.122828      8.151039
   131      0.887844     11.784765      6.307231
   132     -0.908775     10.626516      8.198034
   133     -9.444190      9.138081      6.725537
   134     -8.732417     10.878229      6.346528
   135     -9.633797      9.140550      8.608687
   136      6.019235      5.752729    -10.771911
   137      5.139072      4.130422    -11.277725
   138      7.833227      5.171030    -10.889428
   139      3.411551      7.322239      1.500660
   140      2.088913      5.997603      1.543298
   141      4.311062      6.884095      3.038680
   142     -2.932934    -10.254982     -0.599070
   143     -4.735903    -10.284740     -1.040886
   144     -2.140943     -9.496749     -2.099807
   145     -5.011973      7.065833     -9.841265
   146     -4.072783      5.512463    -10.356652
   147     -3.843333      8.093427     -8.798502
   148     -3.845619     -5.239610     -8.001076
   149     -4.251230     -3.833379     -9.030682
   150     -3.965477     -6.812933     -9.104141
   151     -5.348747    -10.225934    -10.694982
   152     -6.120723    -10.022847    -12.432480
   153     -6.645148    -10.638094     -9.515671
   154      7.721882      3.181082     -4.084705
   155      9.138491      3.105240     -5.340990
   156      7.430350      4.958237     -4.098988
   157     -0.710029      7.599808     -5.305353
   158     -0.738414      9.069404     -6.531876
   159     -1.866836      8.030935     -3.883680
   160     -0.627691     -5.024362      8.397605
   161     -1.720159     -5.692577      7.064596
   162      0.435436     -6.456062      8.709991
   163      9.730969    -11.228843    -10.880858
   164      7.993092    -11.598200    -11.506212
   165      9.325375    -10.570298     -9.180437
   166      6.459086      4.740981      5.215260
   167      5.145480      5.190879      6.587224
   168      7.626430      6.145695      4.837113
   169     -8.716791     -4.061435      8.872158
   170     -8.933476     -3.746679      7.030390
   171    -10.254826     -4.886947      9.632658
   172      8.944796     -4.922982     -2.621611
   173      9.214263     -4.365615     -4.355089
   174      8.734110     -3.335794     -1.647110
   175     -8.497756     -5.527143     -5.325167
   176     -6.831194     -5.353834     -6.024585
   177     -9.624596     -4.666582     -6.534522
 
  MM charges 
  ---------- 
     1     -0.674440
     2      0.337220
     3      0.337220
     4     -0.674440
     5      0.337220
     6      0.337220
     7     -0.674440
     8      0.337220
     9      0.337220
    10     -0.674440
    11      0.337220
    12      0.337220
    13     -0.674440
    14      0.337220
    15      0.337220
    16     -0.674440
    17      0.337220
    18      0.337220
    19     -0.674440
    20      0.337220
    21      0.337220
    22     -0.674440
    23      0.337220
    24      0.337220
    25     -0.674440
    26      0.337220
    27      0.337220
    28     -0.674440
    29      0.337220
    30      0.337220
    31     -0.674440
    32      0.337220
    33      0.337220
    34     -0.674440
    35      0.337220
    36      0.337220
    37     -0.674440
    38      0.337220
    39      0.337220
    40     -0.674440
    41      0.337220
    42      0.337220
    43     -0.674440
    44      0.337220
    45      0.337220
    46     -0.674440
    47      0.337220
    48      0.337220
    49     -0.674440
    50      0.337220
    51      0.337220
    52     -0.674440
    53      0.337220
    54      0.337220
    55     -0.674440
    56      0.337220
    57      0.337220
    58     -0.674440
    59      0.337220
    60      0.337220
    61     -0.674440
    62      0.337220
    63      0.337220
    64     -0.674440
    65      0.337220
    66      0.337220
    67     -0.674440
    68      0.337220
    69      0.337220
    70     -0.674440
    71      0.337220
    72      0.337220
    73     -0.674440
    74      0.337220
    75      0.337220
    76     -0.674440
    77      0.337220
    78      0.337220
    79     -0.674440
    80      0.337220
    81      0.337220
    82     -0.674440
    83      0.337220
    84      0.337220
    85     -0.674440
    86      0.337220
    87      0.337220
    88     -0.674440
    89      0.337220
    90      0.337220
    91     -0.674440
    92      0.337220
    93      0.337220
    94     -0.674440
    95      0.337220
    96      0.337220
    97     -0.674440
    98      0.337220
    99      0.337220
   100     -0.674440
   101      0.337220
   102      0.337220
   103     -0.674440
   104      0.337220
   105      0.337220
   106     -0.674440
   107      0.337220
   108      0.337220
   109     -0.674440
   110      0.337220
   111      0.337220
   112     -0.674440
   113      0.337220
   114      0.337220
   115     -0.674440
   116      0.337220
   117      0.337220
   118     -0.674440
   119      0.337220
   120      0.337220
   121     -0.674440
   122      0.337220
   123      0.337220
   124     -0.674440
   125      0.337220
   126      0.337220
   127     -0.674440
   128      0.337220
   129      0.337220
   130     -0.674440
   131      0.337220
   132      0.337220
   133     -0.674440
   134      0.337220
   135      0.337220
   136     -0.674440
   137      0.337220
   138      0.337220
   139     -0.674440
   140      0.337220
   141      0.337220
   142     -0.674440
   143      0.337220
   144      0.337220
   145     -0.674440
   146      0.337220
   147      0.337220
   148     -0.674440
   149      0.337220
   150      0.337220
   151     -0.674440
   152      0.337220
   153      0.337220
   154     -0.674440
   155      0.337220
   156      0.337220
   157     -0.674440
   158      0.337220
   159      0.337220
   160     -0.674440
   161      0.337220
   162      0.337220
   163     -0.674440
   164      0.337220
   165      0.337220
   166     -0.674440
   167      0.337220
   168      0.337220
   169     -0.674440
   170      0.337220
   171      0.337220
   172     -0.674440
   173      0.337220
   174      0.337220
   175     -0.674440
   176      0.337220
   177      0.337220
 
  MM isotropic polarizabilities in au 
  ----------------------------------- 
     1      5.739350
     2      2.308390
     3      2.308390
     4      5.739350
     5      2.308390
     6      2.308390
     7      5.739350
     8      2.308390
     9      2.308390
    10      5.739350
    11      2.308390
    12      2.308390
    13      5.739350
    14      2.308390
    15      2.308390
    16      5.739350
    17      2.308390
    18      2.308390
    19      5.739350
    20      2.308390
    21      2.308390
    22      5.739350
    23      2.308390
    24      2.308390
    25      5.739350
    26      2.308390
    27      2.308390
    28      5.739350
    29      2.308390
    30      2.308390
    31      5.739350
    32      2.308390
    33      2.308390
    34      5.739350
    35      2.308390
    36      2.308390
    37      5.739350
    38      2.308390
    39      2.308390
    40      5.739350
    41      2.308390
    42      2.308390
    43      5.739350
    44      2.308390
    45      2.308390
    46      5.739350
    47      2.308390
    48      2.308390
    49      5.739350
    50      2.308390
    51      2.308390
    52      5.739350
    53      2.308390
    54      2.308390
    55      5.739350
    56      2.308390
    57      2.308390
    58      5.739350
    59      2.308390
    60      2.308390
    61      5.739350
    62      2.308390
    63      2.308390
    64      5.739350
    65      2.308390
    66      2.308390
    67      5.739350
    68      2.308390
    69      2.308390
    70      5.739350
    71      2.308390
    72      2.308390
    73      5.739350
    74      2.308390
    75      2.308390
    76      5.739350
    77      2.308390
    78      2.308390
    79      5.739350
    80      2.308390
    81      2.308390
    82      5.739350
    83      2.308390
    84      2.308390
    85      5.739350
    86      2.308390
    87      2.308390
    88      5.739350
    89      2.308390
    90      2.308390
    91      5.739350
    92      2.308390
    93      2.308390
    94      5.739350
    95      2.308390
    96      2.308390
    97      5.739350
    98      2.308390
    99      2.308390
   100      5.739350
   101      2.308390
   102      2.308390
   103      5.739350
   104      2.308390
   105      2.308390
   106      5.739350
   107      2.308390
   108      2.308390
   109      5.739350
   110      2.308390
   111      2.308390
   112      5.739350
   113      2.308390
   114      2.308390
   115      5.739350
   116      2.308390
   117      2.308390
   118      5.739350
   119      2.308390
   120      2.308390
   121      5.739350
   122      2.308390
   123      2.308390
   124      5.739350
   125      2.308390
   126      2.308390
   127      5.739350
   128      2.308390
   129      2.308390
   130      5.739350
   131      2.308390
   132      2.308390
   133      5.739350
   134      2.308390
   135      2.308390
   136      5.739350
   137      2.308390
   138      2.308390
   139      5.739350
   140      2.308390
   141      2.308390
   142      5.739350
   143      2.308390
   144      2.308390
   145      5.739350
   146      2.308390
   147      2.308390
   148      5.739350
   149      2.308390
   150      2.308390
   151      5.739350
   152      2.308390
   153      2.308390
   154      5.739350
   155      2.308390
   156      2.308390
   157      5.739350
   158      2.308390
   159      2.308390
   160      5.739350
   161      2.308390
   162      2.308390
   163      5.739350
   164      2.308390
   165      2.308390
   166      5.739350
   167      2.308390
   168      2.308390
   169      5.739350
   170      2.308390
   171      2.308390
   172      5.739350
   173      2.308390
   174      2.308390
   175      5.739350
   176      2.308390
   177      2.308390


     ************************************************************************
     ************************** Output from HERINT **************************
     ************************************************************************



                      Nuclear contribution to dipole moments
                      --------------------------------------

                 au               Debye          C m (/(10**-30)

      x    -12.23534171       -31.09913462      -103.73554700
      y    -49.07829073      -124.74456425      -416.10307707
      z    -11.91675278       -30.28936239      -101.03443759



 Threshold for neglecting two-electron integrals:  1.00D-12
 HERMIT - Number of two-electron integrals written:    39717124 ( 44.5% )
 HERMIT - Megabytes written:                            454.784

  Time used in TWOINT     is       7.75 seconds
  Total CPU  time used in HERMIT:   7.93 seconds
  Total wall time used in HERMIT:  31.67 seconds


                        .----------------------------------.
                        | End of Integral Section (HERMIT) |
                        `----------------------------------'



                   .--------------------------------------------.
                   | Starting in Wave Function Section (SIRIUS) |
                   `--------------------------------------------'

NCCEXCI for singlet:    1
 CCSD_INPUT: core-val requested
 Requested number of virtual orbs per sym
                     1
 Indices of requested virtual orbs
                     1
 CCSD_INPUT: core-val requested
 Requested number of core orbs per sym
                     1
 Indices of requested core orbs
                     1

 *** Output from Huckel module :

     Using EWMO model:          T
     Using EHT  model:          F
     Number of Huckel orbitals each symmetry:   37

 EWMO - Energy Weighted Maximum Overlap - is a Huckel type method,
        which normally is better than Extended Huckel Theory.
 Reference: Linderberg and Ohrn, Propagators in Quantum Chemistry (Wiley, 1973)

 Huckel EWMO eigenvalues for symmetry :  1
          -20.685399     -20.685100     -20.684851     -20.684655     -15.675770
           -1.830830      -1.644124      -1.619717      -1.613491      -1.502640
           -0.822114      -0.802727      -0.783486      -0.772336      -0.766893
           -0.747766      -0.731660      -0.697844      -0.679279      -0.670125
           -0.652745      -0.611213      -0.574264      -0.563535      -0.553878
           -0.252891      -0.235257      -0.231825      -0.220325      -0.177357
           -0.174899      -0.170911      -0.165708      -0.162530      -0.152443
           -0.141832      -0.133380

 **********************************************************************
 *SIRIUS* a direct, restricted step, second order MCSCF program       *
 **********************************************************************

 
     Date and time (Linux)  : Sat Dec  8 02:55:09 2018
     Host name              : n-62-29-4                               

 Title lines from ".mol" input file:
                                                                             
                                                                             

 Print level on unit LUPRI =   2 is   0
 Print level on unit LUW4  =   2 is  11

@    (Integral direct) CC calculation.

@    This is a combination run starting with
@              a restricted, closed shell Hartree-Fock calculation


 Initial molecular orbitals are obtained according to
 ".MOSTART EWMO  " input option

@    QM part is embedded in an environment :

@         Model: QMMM

     Wave function specification
     ============================

     For the specification of the Coupled Cluster: see later.

@    Wave function type        --- CC ---
@    Number of closed shell electrons          50
@    Number of electrons in active shells       0
@    Total charge of the molecule               1

@    Spin multiplicity and 2 M_S                1         0
@    Total number of symmetries                 1 (point group: C1 )
@    Reference state symmetry                   1 (irrep name : A  )

     Orbital specifications
     ======================
@    Abelian symmetry species          All |    1
@                                          |  A  
                                       --- |  ---
@    Occupied SCF orbitals              25 |   25
@    Secondary orbitals                138 |  138
@    Total number of orbitals          163 |  163
@    Number of basis functions         163 |  163

     Optimization information
     ========================
@    Number of configurations                 1
@    Number of orbital rotations           3450
     ------------------------------------------
@    Total number of variables             3451

     Maximum number of Fock   iterations      0
     Maximum number of DIIS   iterations     60
     Maximum number of QC-SCF iterations     60
     Threshold for SCF convergence     1.00D-07


 Changes of defaults for CC:
 ---------------------------


 -Implicit frozen core calculation
 -Excitation energies calculated
 -One-photon absorption strengths will be calculated
 -Oscillator strengths calculated
  
* Read MO coefficients from SIRIUS.RST with label "NEWORB  " and header info:  8Dec18  REORTHO 


 ***********************************************
 ***** DIIS acceleration of SCF iterations *****
 ***********************************************

 C1-DIIS algorithm; max error vectors =    8
 -----------------------------------------------------------------------------

 *** DIIS iteration number    1
 RDSUPM called. NFMAT, ISYMDM(1:NFMAT)                     1
                     1

Calculating AOSUPINT
     (Precalculated two-electron integrals are transformed to P-supermatrix elements.
      Threshold for discarding integrals :  1.00D-12 )
  CPU  time used in FORMSUP    is   5.26 seconds
  WALL time used in FORMSUP    is  58.08 seconds

 ITDIIS, energy, error norm, change in energy, scr.thr., difden:
@ DIIS iter.   1    -360.134116554        4.18315D+00   -3.60D+02  -20    F

 (DIIS_RED) Control Parameters C2DIIS =         F NEVC =    1


 (DIIS_RED) B matrix:

               Column   1
       1      17.49873202
    ==== End of matrix output ====

 DIIS C vector; C2DIIS = F, LAMBDA = -1.75D+01
    1.000000
* Read MO coefficients from SIRIUS.RST with label "NEWORB  " and header info:  8Dec18  DIIS   1
      Virial theorem: -V/T =      2.002205
@      MULPOP N       0.10; H       0.17; H       0.16; H       0.17; H       0.17; O      -0.58; O      -0.58; O      -0.61; O      -0.61; H       0.32; 
@             H       0.32; H       0.33; H       0.32; H       0.34; H       0.33; H       0.33; H       0.32; 
   1  Level shift: doubly occupied orbital energies shifted by -2.00D-01

 DIIS Fock eigenvalues in symmetry 1
      -20.86004      -20.83060      -20.82592      -20.82162      -16.45900
       -1.73472       -1.68330       -1.67433       -1.65825       -1.65529
       -1.23513       -1.20198       -1.17935       -1.06838       -1.03498
       -1.01856       -1.01405       -0.91729       -0.90431       -0.90268
       -0.89651       -0.87675       -0.86125       -0.85484       -0.84665
       -0.00670       -0.00005        0.04635        0.05433        0.08268
        0.11196        0.13462        0.15306        0.15994        0.17828
        0.18691        0.19731        0.20409        0.23624        0.25652
        0.30304        0.42041        0.45070        0.46232        0.47530
        0.48004        0.50072        0.51635        0.53399        0.54865
        0.63371        0.70818        0.72621        0.82570        0.83037
        0.86156        0.90724        0.94231        0.95230        0.96542
        0.98369        1.00302        1.01728        1.02384        1.03354
        1.03769        1.06616        1.12013        1.21534        1.25079
        1.26274        1.26378        1.27688        1.33203        1.33935
        1.38170        1.39364        1.40229        1.41259        1.43931
        1.49823        1.51290        1.52985        1.56680        1.60502
        1.63333        1.71700        1.75767        1.79490        1.84446
        1.84947        1.88961        1.94584        1.98966        2.07122
        2.08024        2.11150        2.11784        2.14582        2.19034
        2.21551        2.22440        2.25254        2.25962        2.29939
        2.37904        2.44366        2.48703        2.49141        2.50909
        2.56758        2.57172        2.62502        2.66594        2.67215
        2.68319        2.70995        2.72685        2.77592        2.97481
        3.05103        3.06913        3.17300        3.32063        3.34787
        3.37801        3.38354        3.38407        3.39960        3.42232
        3.44464        3.54434        3.54998        3.57721        3.60698
        3.83280        3.85671        3.88199        3.88824        4.09847
        4.14257        4.17086        4.19169        4.63317        4.76982
        4.90026        5.22081        5.26563        5.28544        5.33129
        5.72465        5.74739        5.79080        5.83897        5.94500
        5.98268        6.06857        6.07575       36.37689       51.45201
       51.46277       51.47200       51.50491
 Time used in FCKEIG, thr_jaco:   5.10D-02  1.56D-01  1.78D-04
 CPU and wall times used in FCKEIG, THR_FCKEIG:   5.10D-02  1.56D-01  4.18D-02
 -----------------------------------------------------------------------------

 *** DIIS iteration number    2
 RDSUPM called. NFMAT, ISYMDM(1:NFMAT)                     1
                     1

 ITDIIS, energy, error norm, change in energy, scr.thr., difden:
@ DIIS iter.   2    -361.107872331        1.15669D+00   -9.74D-01  -20    F

 (DIIS_RED) Control Parameters C2DIIS =         F NEVC =    2


 (DIIS_RED) B matrix:

               Column   1     Column   2
       1      17.49873202
       2       0.79142344     1.33793663
    ==== End of matrix output ====

 DIIS C vector; C2DIIS = F, LAMBDA = -1.32D+00
    0.031675    0.968325
* Read MO coefficients from SIRIUS.RST with label "NEWORB  " and header info:  8Dec18  DIIS   2
      Virial theorem: -V/T =      2.000687
@      MULPOP N      -0.52; H       0.31; H       0.34; H       0.31; H       0.34; O      -0.51; O      -0.55; O      -0.53; O      -0.59; H       0.30; 
@             H       0.27; H       0.32; H       0.28; H       0.28; H       0.30; H       0.30; H       0.34; 
   2  Level shift: doubly occupied orbital energies shifted by -1.00D-01

 DIIS Fock eigenvalues in symmetry 1
      -20.77908      -20.77379      -20.76471      -20.75956      -15.64352
       -1.56749       -1.55652       -1.54434       -1.54303       -1.39682
       -0.94130       -0.91610       -0.90405       -0.88963       -0.88796
       -0.87851       -0.85862       -0.80020       -0.79186       -0.79144
       -0.78549       -0.73829       -0.72961       -0.71233       -0.70991
       -0.00005        0.05255        0.08516        0.09911        0.13006
        0.14800        0.16558        0.18788        0.20598        0.21041
        0.23968        0.25435        0.28319        0.33351        0.36170
        0.36856        0.46638        0.49545        0.50340        0.51695
        0.52322        0.55324        0.56287        0.58496        0.61579
        0.78222        0.82860        0.84501        0.86672        0.89048
        0.90180        0.96335        0.97669        0.99410        1.01570
        1.02480        1.03266        1.04985        1.06947        1.08203
        1.13321        1.17157        1.21800        1.25920        1.30300
        1.31989        1.32637        1.33837        1.38958        1.39865
        1.43902        1.45778        1.46576        1.47514        1.50349
        1.57402        1.59341        1.61375        1.66105        1.70382
        1.71596        1.81417        1.83438        1.87034        1.91241
        1.91872        1.99099        2.04615        2.08535        2.12545
        2.13440        2.16809        2.17806        2.27314        2.29341
        2.30385        2.32463        2.33292        2.35211        2.38548
        2.47408        2.53859        2.56408        2.59033        2.60521
        2.66369        2.68518        2.72451        2.73974        2.76104
        2.77057        2.79582        2.91192        2.99722        3.13402
        3.28575        3.33315        3.36500        3.37787        3.39717
        3.40587        3.41152        3.43055        3.44783        3.48404
        3.50434        3.57678        3.58052        3.60772        3.63981
        3.85689        3.88520        3.91409        3.92066        4.13190
        4.16544        4.19566        4.21980        5.01431        5.14432
        5.23595        5.24643        5.28169        5.32146        5.34950
        5.73835        5.75525        5.79891        5.85219        5.96324
        6.00572        6.10028        6.11028       37.07560       51.40673
       51.43161       51.44589       51.47808
 Time used in FCKEIG, thr_jaco:   3.70D-02  1.62D-01  4.92D-05
 CPU and wall times used in FCKEIG, THR_FCKEIG:   3.70D-02  1.62D-01  1.16D-02
 -----------------------------------------------------------------------------

 *** DIIS iteration number    3
 RDSUPM called. NFMAT, ISYMDM(1:NFMAT)                     1
                     1

 ITDIIS, energy, error norm, change in energy, scr.thr., difden:
@ DIIS iter.   3    -361.184675626        3.71947D-01   -7.68D-02  -20    F

 (DIIS_RED) Control Parameters C2DIIS =         F NEVC =    3


 (DIIS_RED) B matrix:

               Column   1     Column   2     Column   3
       1      17.49873202
       2       0.79142344     1.33793663
       3       0.81013702     0.01419990     0.13834431
    ==== End of matrix output ====

 DIIS C vector; C2DIIS = F, LAMBDA = -9.87D-02
   -0.042528    0.088839    0.953689
* Read MO coefficients from SIRIUS.RST with label "NEWORB  " and header info:  8Dec18  DIIS   3
      Virial theorem: -V/T =      2.001819
@      MULPOP N      -0.33; H       0.27; H       0.30; H       0.27; H       0.31; O      -0.57; O      -0.60; O      -0.58; O      -0.65; H       0.33; 
@             H       0.29; H       0.35; H       0.29; H       0.30; H       0.32; H       0.32; H       0.37; 
   3  Level shift: doubly occupied orbital energies shifted by -5.00D-02

 DIIS Fock eigenvalues in symmetry 1
      -20.70014      -20.68577      -20.67545      -20.67157      -15.80643
       -1.50253       -1.48847       -1.47783       -1.47563       -1.39944
       -0.90067       -0.87681       -0.86045       -0.83659       -0.83276
       -0.81792       -0.81720       -0.73314       -0.72902       -0.72467
       -0.71936       -0.66728       -0.65645       -0.64017       -0.63921
       -0.00005        0.05730        0.09047        0.10349        0.13584
        0.15204        0.16738        0.19274        0.21042        0.21622
        0.23995        0.25556        0.28274        0.33265        0.35864
        0.37196        0.47688        0.50549        0.51338        0.52610
        0.53330        0.56210        0.56934        0.59290        0.62023
        0.76508        0.82705        0.84175        0.87605        0.89217
        0.90785        0.97334        0.98711        1.00649        1.02754
        1.03652        1.04658        1.06321        1.08191        1.09564
        1.12861        1.16436        1.21914        1.26901        1.31591
        1.33122        1.33757        1.35030        1.39992        1.41212
        1.45226        1.47012        1.47904        1.48872        1.51200
        1.58234        1.60108        1.62114        1.66706        1.71043
        1.72242        1.82177        1.84031        1.87885        1.92578
        1.93035        1.99015        2.04814        2.08807        2.13981
        2.15048        2.18503        2.19371        2.27116        2.30224
        2.31623        2.32877        2.34907        2.35406        2.39806
        2.48259        2.54567        2.57383        2.59651        2.61164
        2.67013        2.69197        2.73150        2.74977        2.76671
        2.78104        2.80414        2.88200        2.96532        3.12297
        3.26016        3.29385        3.36931        3.39791        3.40056
        3.42943        3.43385        3.45259        3.45724        3.49307
        3.50621        3.60079        3.60388        3.63283        3.66587
        3.88028        3.90973        3.93763        3.94434        4.15611
        4.19081        4.22196        4.24723        4.93069        5.06528
        5.19487        5.26256        5.30219        5.32605        5.37467
        5.76406        5.78239        5.82815        5.88197        5.99228
        6.03582        6.13079        6.13625       36.86911       51.44492
       51.47080       51.47540       51.51624
 Time used in FCKEIG, thr_jaco:   3.60D-02  5.33D-01  1.58D-05
 CPU and wall times used in FCKEIG, THR_FCKEIG:   3.60D-02  5.33D-01  3.72D-03
 -----------------------------------------------------------------------------

 *** DIIS iteration number    4
 RDSUPM called. NFMAT, ISYMDM(1:NFMAT)                     1
                     1

 ITDIIS, energy, error norm, change in energy, scr.thr., difden:
@ DIIS iter.   4    -361.194826683        9.67706D-02   -1.02D-02  -20    F

 (DIIS_RED) Control Parameters C2DIIS =         F NEVC =    4


 (DIIS_RED) B matrix:

               Column   1     Column   2     Column   3     Column   4
       1      17.49873202
       2       0.79142344     1.33793663
       3       0.81013702     0.01419990     0.13834431
       4       0.05564626     0.08504197     0.00385460     0.00936455
    ==== End of matrix output ====

 DIIS C vector; C2DIIS = F, LAMBDA = -4.48D-03
   -0.000929   -0.062929    0.015036    1.048823
* Read MO coefficients from SIRIUS.RST with label "NEWORB  " and header info:  8Dec18  DIIS   4
      Virial theorem: -V/T =      2.001586
@      MULPOP N      -0.40; H       0.28; H       0.32; H       0.29; H       0.32; O      -0.57; O      -0.61; O      -0.59; O      -0.67; H       0.33; 
@             H       0.29; H       0.35; H       0.30; H       0.31; H       0.33; H       0.33; H       0.38; 
   4  Level shift: doubly occupied orbital energies shifted by -2.50D-02

 DIIS Fock eigenvalues in symmetry 1
      -20.68531      -20.67305      -20.66373      -20.65942      -15.74093
       -1.48107       -1.46758       -1.45698       -1.45560       -1.35935
       -0.86251       -0.85290       -0.82423       -0.81057       -0.80168
       -0.79559       -0.79331       -0.70956       -0.70445       -0.70070
       -0.69609       -0.64139       -0.63093       -0.61502       -0.61363
       -0.00005        0.05850        0.08988        0.10351        0.13529
        0.15218        0.16871        0.19262        0.21082        0.21651
        0.24331        0.25924        0.28803        0.33985        0.36715
        0.37682        0.47738        0.50576        0.51372        0.52652
        0.53307        0.56136        0.57059        0.59252        0.62292
        0.77418        0.83296        0.84891        0.87823        0.89617
        0.91063        0.97512        0.98743        1.00601        1.02853
        1.03657        1.04621        1.06186        1.08051        1.09533
        1.13366        1.17202        1.22279        1.27067        1.31597
        1.33283        1.33814        1.34993        1.40124        1.41138
        1.45170        1.46904        1.47724        1.48749        1.51286
        1.58320        1.60239        1.62379        1.67186        1.71443
        1.72764        1.82495        1.84390        1.87919        1.92510
        1.92916        1.99530        2.05476        2.09438        2.13728
        2.14731        2.18295        2.19196        2.27816        2.30300
        2.31595        2.33235        2.34609        2.35877        2.39756
        2.48460        2.54933        2.57425        2.59952        2.61822
        2.67190        2.69356        2.73482        2.75199        2.76857
        2.77987        2.80641        2.89486        2.97888        3.13315
        3.27222        3.30887        3.37327        3.39679        3.40429
        3.42614        3.43142        3.45004        3.45856        3.49574
        3.50544        3.59843        3.60168        3.62954        3.66339
        3.87733        3.90613        3.93489        3.94152        4.15386
        4.18810        4.21845        4.24432        4.95270        5.08664
        5.21365        5.25807        5.29795        5.32196        5.36966
        5.75956        5.77737        5.82218        5.87650        5.98611
        6.02888        6.12464        6.13127       36.90902       51.43297
       51.45797       51.46541       51.50374
 Time used in FCKEIG, thr_jaco:   3.50D-02  1.07D-01  4.12D-06
 CPU and wall times used in FCKEIG, THR_FCKEIG:   3.50D-02  1.07D-01  9.68D-04
 -----------------------------------------------------------------------------

 *** DIIS iteration number    5
 RDSUPM called. NFMAT, ISYMDM(1:NFMAT)                     1
                     1

 ITDIIS, energy, error norm, change in energy, scr.thr., difden:
@ DIIS iter.   5    -361.195849135        2.77041D-02   -1.02D-03  -20    F

 (DIIS_RED) Control Parameters C2DIIS =         F NEVC =    5


 (DIIS_RED) B matrix:

               Column   1     Column   2     Column   3     Column   4     Column   5
       1      17.49873202
       2       0.79142344     1.33793663
       3       0.81013702     0.01419990     0.13834431
       4       0.05564626     0.08504197     0.00385460     0.00936455
       5       0.02122803     0.00728293     0.00560562     0.00095203     0.00076752
    ==== End of matrix output ====

 DIIS C vector; C2DIIS = F, LAMBDA = -5.36D-04
    0.001046   -0.007339   -0.043631    0.032150    1.017774
* Read MO coefficients from SIRIUS.RST with label "NEWORB  " and header info:  8Dec18  DIIS   5
      Virial theorem: -V/T =      2.001316
@      MULPOP N      -0.38; H       0.28; H       0.31; H       0.28; H       0.32; O      -0.58; O      -0.62; O      -0.60; O      -0.68; H       0.34; 
@             H       0.30; H       0.36; H       0.30; H       0.31; H       0.33; H       0.33; H       0.39; 
   5  Level shift: doubly occupied orbital energies shifted by -1.25D-02

 DIIS Fock eigenvalues in symmetry 1
      -20.66672      -20.65436      -20.64479      -20.63959      -15.72641
       -1.46641       -1.45241       -1.44226       -1.44083       -1.34580
       -0.84903       -0.83898       -0.81053       -0.79609       -0.78774
       -0.78143       -0.77934       -0.69549       -0.69024       -0.68626
       -0.68181       -0.62606       -0.61541       -0.59952       -0.59795
       -0.00005        0.05891        0.09011        0.10377        0.13559
        0.15238        0.16910        0.19289        0.21115        0.21692
        0.24392        0.25989        0.28886        0.34080        0.36813
        0.37764        0.47806        0.50638        0.51439        0.52711
        0.53360        0.56178        0.57121        0.59307        0.62371
        0.77503        0.83421        0.85012        0.87980        0.89754
        0.91229        0.97654        0.98864        1.00727        1.02995
        1.03784        1.04765        1.06308        1.08168        1.09699
        1.13473        1.17305        1.22386        1.27218        1.31699
        1.33385        1.33917        1.35070        1.40219        1.41206
        1.45236        1.46959        1.47765        1.48810        1.51380
        1.58380        1.60301        1.62454        1.67262        1.71532
        1.72852        1.82544        1.84453        1.87942        1.92545
        1.92929        1.99601        2.05571        2.09536        2.13789
        2.14797        2.18382        2.19276        2.27904        2.30381
        2.31686        2.33345        2.34694        2.35967        2.39844
        2.48518        2.55000        2.57467        2.60007        2.61905
        2.67245        2.69384        2.73543        2.75240        2.76893
        2.77986        2.80682        2.89581        2.97988        3.13419
        3.27362        3.31008        3.37527        3.39904        3.40626
        3.42844        3.43367        3.45239        3.46087        3.49774
        3.50786        3.60060        3.60385        3.63176        3.66601
        3.87959        3.90855        3.93722        3.94399        4.15624
        4.19051        4.22094        4.24724        4.95405        5.08806
        5.21539        5.26177        5.30158        5.32569        5.37385
        5.76289        5.78073        5.82567        5.88044        5.98926
        6.03213        6.12837        6.13433       36.91101       51.43908
       51.46433       51.47143       51.51096
 Time used in FCKEIG, thr_jaco:   2.40D-02  3.00D-02  1.18D-06
 CPU and wall times used in FCKEIG, THR_FCKEIG:   2.40D-02  3.00D-02  2.77D-04
 -----------------------------------------------------------------------------

 *** DIIS iteration number    6
 RDSUPM called. NFMAT, ISYMDM(1:NFMAT)                     1
                     1

 ITDIIS, energy, error norm, change in energy, scr.thr., difden:
@ DIIS iter.   6    -361.195935786        1.03720D-02   -8.67D-05  -20    F

 (DIIS_RED) Control Parameters C2DIIS =         F NEVC =    6


 (DIIS_RED) B matrix:

               Column   1     Column   2     Column   3     Column   4     Column   5     Column   6
       1      17.49873202
       2       0.79142344     1.33793663
       3       0.81013702     0.01419990     0.13834431
       4       0.05564626     0.08504197     0.00385460     0.00936455
       5       0.02122803     0.00728293     0.00560562     0.00095203     0.00076752
       6      -0.00501137    -0.00018846     0.00069133     0.00049097     0.00004079     0.00010758
    ==== End of matrix output ====

 DIIS C vector; C2DIIS = F, LAMBDA = -3.55D-05
    0.000758    0.007042   -0.012538   -0.126444    0.154967    0.976215
* Read MO coefficients from SIRIUS.RST with label "NEWORB  " and header info:  8Dec18  DIIS   6
      Virial theorem: -V/T =      2.001535
@      MULPOP N      -0.38; H       0.28; H       0.31; H       0.28; H       0.32; O      -0.58; O      -0.62; O      -0.60; O      -0.68; H       0.34; 
@             H       0.30; H       0.36; H       0.30; H       0.31; H       0.34; H       0.33; H       0.39; 

 DIIS Fock eigenvalues in symmetry 1
      -20.65628      -20.64399      -20.63456      -20.62956      -15.71571
       -1.45448       -1.44061       -1.43036       -1.42897       -1.33378
       -0.83705       -0.82710       -0.79854       -0.78428       -0.77574
       -0.76954       -0.76736       -0.68386       -0.67850       -0.67466
       -0.67023       -0.61393       -0.60324       -0.58744       -0.58593
       -0.00005        0.05881        0.08996        0.10364        0.13543
        0.15225        0.16900        0.19276        0.21101        0.21679
        0.24382        0.25977        0.28874        0.34064        0.36791
        0.37749        0.47782        0.50616        0.51416        0.52690
        0.53336        0.56151        0.57095        0.59280        0.62348
        0.77465        0.83382        0.84983        0.87951        0.89718
        0.91203        0.97620        0.98823        1.00685        1.02955
        1.03743        1.04722        1.06268        1.08125        1.09660
        1.13441        1.17280        1.22354        1.27179        1.31664
        1.33351        1.33885        1.35037        1.40186        1.41171
        1.45204        1.46924        1.47730        1.48776        1.51345
        1.58350        1.60271        1.62426        1.67244        1.71507
        1.72840        1.82521        1.84434        1.87914        1.92518
        1.92901        1.99578        2.05556        2.09524        2.13739
        2.14746        2.18331        2.19227        2.27874        2.30345
        2.31643        2.33311        2.34646        2.35938        2.39804
        2.48489        2.54978        2.57435        2.59985        2.61897
        2.67214        2.69355        2.73518        2.75222        2.76862
        2.77955        2.80662        2.89538        2.97941        3.13398
        3.27301        3.30948        3.37458        3.39830        3.40555
        3.42762        3.43290        3.45159        3.46009        3.49706
        3.50703        3.59986        3.60313        3.63094        3.66514
        3.87881        3.90771        3.93642        3.94315        4.15545
        4.18970        4.22007        4.24628        4.95319        5.08719
        5.21447        5.26066        5.30044        5.32447        5.37254
        5.76175        5.77956        5.82443        5.87911        5.98807
        6.03088        6.12704        6.13320       36.90924       51.43697
       51.46209       51.46939       51.50852
 Time used in FCKEIG, thr_jaco:   2.70D-02  1.12D-01  4.41D-07
 CPU and wall times used in FCKEIG, THR_FCKEIG:   2.70D-02  1.12D-01  1.04D-04
 -----------------------------------------------------------------------------

 *** DIIS iteration number    7
 RDSUPM called. NFMAT, ISYMDM(1:NFMAT)                     1
                     1

 ITDIIS, energy, error norm, change in energy, scr.thr., difden:
@ DIIS iter.   7    -361.195946821        2.32986D-03   -1.10D-05  -20    F

 (DIIS_RED) Control Parameters C2DIIS =         F NEVC =    7


 (DIIS_RED) B matrix:

               Column   1     Column   2     Column   3     Column   4     Column   5     Column   6
       1      17.49873202
       2       0.79142344     1.33793663
       3       0.81013702     0.01419990     0.13834431
       4       0.05564626     0.08504197     0.00385460     0.00936455
       5       0.02122803     0.00728293     0.00560562     0.00095203     0.00076752
       6      -0.00501137    -0.00018846     0.00069133     0.00049097     0.00004079     0.00010758
       7       0.00046114     0.00023821    -0.00001692     0.00001536     0.00004378    -0.00000064

               Column   7
       7       0.00000543
    ==== End of matrix output ====

 DIIS C vector; C2DIIS = F, LAMBDA = -1.16D-06
   -0.000232   -0.000906    0.006281    0.022089   -0.119401   -0.090513    1.182681
* Read MO coefficients from SIRIUS.RST with label "NEWORB  " and header info:  8Dec18  DIIS   7
      Virial theorem: -V/T =      2.001471
@      MULPOP N      -0.38; H       0.28; H       0.31; H       0.28; H       0.32; O      -0.58; O      -0.62; O      -0.60; O      -0.68; H       0.34; 
@             H       0.30; H       0.36; H       0.30; H       0.31; H       0.34; H       0.33; H       0.39; 

 DIIS Fock eigenvalues in symmetry 1
      -20.65597      -20.64366      -20.63421      -20.62922      -15.71526
       -1.45432       -1.44045       -1.43020       -1.42881       -1.33355
       -0.83688       -0.82698       -0.79836       -0.78416       -0.77558
       -0.76942       -0.76721       -0.68382       -0.67843       -0.67460
       -0.67018       -0.61373       -0.60302       -0.58723       -0.58572
       -0.00005        0.05887        0.09000        0.10368        0.13546
        0.15229        0.16905        0.19280        0.21106        0.21683
        0.24389        0.25985        0.28885        0.34078        0.36806
        0.37761        0.47790        0.50623        0.51423        0.52698
        0.53342        0.56155        0.57102        0.59286        0.62359
        0.77480        0.83394        0.84998        0.87963        0.89730
        0.91217        0.97633        0.98834        1.00696        1.02966
        1.03754        1.04733        1.06277        1.08134        1.09670
        1.13456        1.17295        1.22367        1.27194        1.31673
        1.33361        1.33894        1.35044        1.40196        1.41178
        1.45210        1.46928        1.47732        1.48780        1.51354
        1.58357        1.60278        1.62435        1.67256        1.71519
        1.72851        1.82530        1.84444        1.87918        1.92521
        1.92904        1.99590        2.05570        2.09536        2.13744
        2.14751        2.18337        2.19234        2.27887        2.30354
        2.31651        2.33323        2.34651        2.35950        2.39810
        2.48497        2.54987        2.57441        2.59993        2.61910
        2.67221        2.69361        2.73526        2.75228        2.76868
        2.77956        2.80668        2.89557        2.97962        3.13415
        3.27322        3.30971        3.37476        3.39846        3.40574
        3.42778        3.43306        3.45175        3.46027        3.49724
        3.50720        3.60003        3.60330        3.63111        3.66531
        3.87896        3.90786        3.93658        3.94330        4.15562
        4.18988        4.22025        4.24647        4.95348        5.08748
        5.21475        5.26089        5.30067        5.32471        5.37278
        5.76196        5.77977        5.82464        5.87932        5.98827
        6.03109        6.12724        6.13340       36.90968       51.43730
       51.46244       51.46969       51.50886
 Time used in FCKEIG, thr_jaco:   3.00D-02  5.90D-02  9.92D-08
 CPU and wall times used in FCKEIG, THR_FCKEIG:   3.00D-02  6.00D-02  2.33D-05
 -----------------------------------------------------------------------------

 *** DIIS iteration number    8
 RDSUPM called. NFMAT, ISYMDM(1:NFMAT)                     1
                     1

 ITDIIS, energy, error norm, change in energy, scr.thr., difden:
@ DIIS iter.   8    -361.195947370        3.35920D-04   -5.48D-07  -20    F

 (DIIS_RED) Control Parameters C2DIIS =         F NEVC =    8


 (DIIS_RED) B matrix:

               Column   1     Column   2     Column   3     Column   4     Column   5     Column   6
       1      17.49873202
       2       0.79142344     1.33793663
       3       0.81013702     0.01419990     0.13834431
       4       0.05564626     0.08504197     0.00385460     0.00936455
       5       0.02122803     0.00728293     0.00560562     0.00095203     0.00076752
       6      -0.00501137    -0.00018846     0.00069133     0.00049097     0.00004079     0.00010758
       7       0.00046114     0.00023821    -0.00001692     0.00001536     0.00004378    -0.00000064
       8       0.00007816    -0.00004768     0.00000541     0.00000141     0.00000014     0.00000159

               Column   7     Column   8
       7       0.00000543
       8       0.00000026     0.00000011
    ==== End of matrix output ====

 DIIS C vector; C2DIIS = F, LAMBDA = -5.50D-08
    0.000012    0.000058   -0.000795   -0.001279    0.018620   -0.013901   -0.201950    1.199235
* Read MO coefficients from SIRIUS.RST with label "NEWORB  " and header info:  8Dec18  DIIS   8
      Virial theorem: -V/T =      2.001488
@      MULPOP N      -0.38; H       0.28; H       0.31; H       0.28; H       0.32; O      -0.58; O      -0.62; O      -0.60; O      -0.68; H       0.34; 
@             H       0.30; H       0.36; H       0.30; H       0.31; H       0.34; H       0.33; H       0.39; 

 DIIS Fock eigenvalues in symmetry 1
      -20.65597      -20.64370      -20.63425      -20.62920      -15.71530
       -1.45431       -1.44044       -1.43021       -1.42882       -1.33357
       -0.83689       -0.82697       -0.79838       -0.78415       -0.77559
       -0.76942       -0.76722       -0.68384       -0.67845       -0.67462
       -0.67020       -0.61373       -0.60303       -0.58724       -0.58572
       -0.00005        0.05887        0.09000        0.10368        0.13546
        0.15229        0.16905        0.19280        0.21106        0.21683
        0.24389        0.25985        0.28884        0.34077        0.36804
        0.37760        0.47789        0.50623        0.51423        0.52698
        0.53342        0.56155        0.57101        0.59286        0.62358
        0.77479        0.83393        0.84997        0.87962        0.89729
        0.91216        0.97632        0.98834        1.00696        1.02965
        1.03753        1.04733        1.06276        1.08134        1.09670
        1.13454        1.17294        1.22366        1.27193        1.31672
        1.33360        1.33894        1.35043        1.40195        1.41177
        1.45210        1.46927        1.47732        1.48780        1.51353
        1.58356        1.60277        1.62434        1.67255        1.71518
        1.72850        1.82529        1.84443        1.87918        1.92521
        1.92903        1.99589        2.05569        2.09535        2.13744
        2.14750        2.18337        2.19233        2.27886        2.30353
        2.31650        2.33322        2.34650        2.35949        2.39810
        2.48496        2.54986        2.57440        2.59992        2.61908
        2.67221        2.69360        2.73525        2.75227        2.76867
        2.77955        2.80668        2.89555        2.97960        3.13413
        3.27321        3.30969        3.37475        3.39844        3.40573
        3.42776        3.43304        3.45174        3.46026        3.49724
        3.50720        3.60001        3.60329        3.63109        3.66531
        3.87894        3.90785        3.93657        3.94330        4.15562
[...]
 | 1 1 1 1 |  30   1   9   1 |     1134        1 |       642412 |    0.080098  |
 | 1 1 1 1 |  12   1  11   1 |     1392        1 |       968137 |    0.067581  |
 | 1 1 1 1 |  28   1  11   1 |     1408        1 |       990529 |   -0.096486  |
 | 1 1 1 1 |  12   1  13   1 |     1668        1 |      1390279 |   -0.071032  |
 | 1 1 1 1 |  28   1  13   1 |     1684        1 |      1417087 |    0.086850  |
 | 1 1 1 1 |  26   1  20   1 |     2648        1 |      3504629 |   -0.066162  |
 | 1 1 1 1 |  15   1  21   1 |     2775        1 |      3848926 |   -0.065473  |
 | 1 1 1 1 |  27   1  21   1 |     2787        1 |      3882292 |    0.065004  |
 +=============================================================================+


          Norm of Printed Amplitude Vector :             0.8401

          Printed all single excitations greater than 0.381978

          Printed all double excitations greater than 0.064527



+======================================================================+
| contributions of excitation levels to right eigenvectors as computed |
| from the (RE|RE) self overlap                                        |
+----------------------------------------------------------------------+
| sym | multi | state |    E / eV  | % singles | % doubles | % triples |
+======================================================================+
|    1|   1   |   1   |  411.54158 |  88.2248  |  11.7752  |   0.0000  |
+======================================================================+





+======================================================================+
| contributions of excitation levels to excited states as computed     |
| from the (LE|RE) overlap                                             |
+----------------------------------------------------------------------+
| sym | multi | state |    E / eV  | % singles | % doubles | % triples |
+======================================================================+
|    1|   1   |   1   |  411.54158 |  79.1945  |  20.8055  |   0.0000  |
+======================================================================+



 --------------------------
 Symmetry class Nr.:     1
 Multiplicity      :     3
 --------------------------

 Length of Excitation vectors in this class is:   8404200
 No Excitation Energies calculated in this symmetry class
     

   *******************************************************************
   *                                                                 *
   *--------   OUTPUT FROM PROPERTY AND SYMMETRY ANALYSIS   ---------*
   *                                                                 *
   *******************************************************************



                         +-------------------------------+
                         ! REQUESTED PROPERTY OPERATORS: !
                         +-------------------------------+

             Index   Oper. Label  Symmetry  Transp.  PDBS  Atom
             --------------------------------------------------
                1     HAM0            1        1      T      0
                2     XDIPLEN         1        1      F      0
                3     YDIPLEN         1        1      F      0
                4     ZDIPLEN         1        1      F      0
             --------------------------------------------------




                         +-------------------------------+
                         ! REQUESTED EXPECTATION VALUES: !
                         +-------------------------------+

                       Index   Oper. Label  Symmetry
                       -----------------------------
                       -----------------------------




                       +------------------------------------+
                       ! REQUESTED EFFECTIVE FOCK MATRICES: !
                       +------------------------------------+

                       Index   Oper. Label  Symmetry
                       -----------------------------
                       -----------------------------




                        +----------------------------------+
                        ! REQUESTED FIRST ORDER M-VECTORS: !
                        +----------------------------------+

               Index   State Symmetry  Frequency
               --------------------------------------------------
                  1             1    1     1.512388D+01
               --------------------------------------------------


      

    *******************************************************************
    *          SOLVING COUPLED CLUSTER RESPONSE EQUATIONS             *
    *******************************************************************



 
 +======================================================================+
 !                     RHS & ETA VECTORS TO COMPUTE:                    !
 +======================================================================+
 | TYPE | # VEC. |  NEEDED FOR:                                         |
 +----------------------------------------------------------------------+
 +======================================================================+



 +======================================================================+
 !                       LINEAR EQUATIONS TO SOLVE:                     !
 +======================================================================+
 | TYPE | # VEC. |  EQUATION:                                           |
 +----------------------------------------------------------------------+
 |  M1  |    1   |  first-order ground - excited state multipliers      |
 +======================================================================+



 +======================================================================+
 !                F MATRIX TRANSFORMATIONS TO COMPUTE:                  !
 +======================================================================+
 | TYPE | # VEC. |  TRANSFORMED:                                        |
 +----------------------------------------------------------------------+
 |  FR  |    1   |  right eigenvectors (RE)                             |
 +======================================================================+





 Testing R1 list: 

 List nr.  Label     Symmetry      Frequency      T1-norm        T2-norm


 Testing L1 list: 

 List nr.  Label     Symmetry      Frequency      T1-norm        T2-norm
  Solvent 1-order response equations converged in                     0 
  solvent iterations
 SONIAPRI                     0
 CCEQ_STR: CVSEPARATION =  T
 CCEQ_STR: IONIZATION =  T
 CCEQ_STR: REMOVE_CORE =  F
 could not find required file CCM1_1___1
 IOPTSV is    33 ... program continues nevertheless.
 Vector nr.  1 of type M1  and symmetry  1 was not found on file.
     M1  start vector nr.  1 of symmetry  1 generated from gradient
 CCEQ_STR: freeze VALENCE OR VIRT
 CCEQ_SOL: CVSEPARA=     T
 CCEQ_SOL: LIONISAT=     T
 CCEQ_SOL: REMOVE_CORE =  F



 ----- COUPLED CLUSTER RESPONSE SOLVER -----

    Iter  #Vectors  time (min)   residual
    --------------------------------------
 CCRED CVS/IONIS sigma_                     1 
 project out valence occupied or virtual
      1       1         1.31     0.21E+01
 CCRED CVS/IONIS sigma_                     2 
 project out valence occupied or virtual
      2       1         1.30     0.38E+00
 CCRED CVS/IONIS sigma_                     3 
 project out valence occupied or virtual
      3       1         1.28     0.49E-01
 CCRED CVS/IONIS sigma_                     4 
 project out valence occupied or virtual
                    -1  vectors with norm le:  1.000000000000000E-035  REMOVED

 CCORT,**WARNING**  number vectors added is zero after check for vector norm , NBADD :    0

 CCORT, number vectors added is zero , NBADD :    0

 CCORT, number vectors added is zero , NBADD :    0

 CCORT, number vectors added is zero , NBADD :    0

 CCORT, number vectors added is zero , NBADD :    0

 *** MICROITERATIONS STOPPED DUE TO LINEAR DEPENDENCE BETWEEN ALL NEW TRIAL VECTORS
                     0  trial vectors converged
  LINEAR DEPENDENCE BETWEEN                     1  NON CONVERGED TRIAL VECTORS
      4       1         1.33     0.52E-02

 ***  CCEQ_SOL -MICROITERATIONS STOPPED  
     LINEAR DEPENDENCE BETWEEN ALL NEW TRIAL VECTORS
    --------------------------------------
    converged in  4 iterations
    threshold:    0.10E-08


         Routine          Time (min)
         ---------------------------
         CC_TRDRV            5.22
         CCRED               0.03
         CCNEX               0.05
         ---------------------------
         Total time          5.31


  Total CPU  time used in CCEQ_SOLV:  5 minutes 19 seconds
  Total wall time used in CCEQ_SOLV:  6 minutes 51 seconds


 xxxxxxxxxxxxxxxxxxxxxxxxxxxxxxxxxxxxx

 
 Solution of CC response equations completed.
 

 *******************************************************************
 *                                                                 *
 *--------  OUTPUT FROM COUPLED CLUSTER LINEAR RESPONSE   ---------*
 *                                                                 *
 *--------      CALCULATION OF SECOND ORDER RESIDUES      ---------*
 *                                                                 *
 *******************************************************************



                  +---------------------------------------------+
                  ! CC_SOPR: Calculation of CCSD       Residues !
                  +---------------------------------------------+

 Doing the Mf*CsiA
 Doing the Mf*CsiA
 Doing the Mf*CsiA


 CCSD  Right transition moments in atomic units:
 -----------------------------------------------

  1      15.123875  <XDIPLEN |f> =       0.00000002
  1      15.123875  <YDIPLEN |f> =       0.00000002
  1      15.123875  <ZDIPLEN |f> =      -0.00000002


 CCSD  Left  transition moments in atomic units:
 -----------------------------------------------

  1      15.123875  <f|XDIPLEN > =       0.00000001
  1      15.123875  <f|YDIPLEN > =       0.00000001
  1      15.123875  <f|ZDIPLEN > =      -0.00000001


 CCSD  linear response residue property in atomic units:
 -------------------------------------------------------

 RES{<<XDIPLEN ,XDIPLEN >>(15.123875)} =     0.00000000 (   0.00000002)
 RES{<<XDIPLEN ,YDIPLEN >>(15.123875)} =     0.00000000 (   0.00000001)
 RES{<<XDIPLEN ,ZDIPLEN >>(15.123875)} =    -0.00000000 (  -0.00000001)
 RES{<<YDIPLEN ,XDIPLEN >>(15.123875)} =     0.00000000 (   0.00000001)
 RES{<<YDIPLEN ,YDIPLEN >>(15.123875)} =     0.00000000 (   0.00000001)
 RES{<<YDIPLEN ,ZDIPLEN >>(15.123875)} =    -0.00000000 (  -0.00000001)
 RES{<<ZDIPLEN ,XDIPLEN >>(15.123875)} =    -0.00000000 (  -0.00000001)
 RES{<<ZDIPLEN ,YDIPLEN >>(15.123875)} =    -0.00000000 (  -0.00000001)
 RES{<<ZDIPLEN ,ZDIPLEN >>(15.123875)} =     0.00000000 (   0.00000001)


 CCSD  Transition strength matrix for state nr.  1 of symmetry 1
 CCSD  excitation energy:15.12387519

 Gauge: length

               Column   1     Column   2     Column   3
       1     2.735097D-16   1.731983D-16  -2.105792D-16
       2     1.731983D-16   1.096767D-16  -1.333481D-16
       3    -2.105792D-16  -1.333481D-16   1.621266D-16
    ==== End of matrix output ====

 Principal values of diagonalized transition strength matrix:

             a.u.               
 1       0.00000000
 2       0.00000000
 3       0.00000000

 Principal axis of diagonalized transition strength matrix:


               Column   1     Column   2     Column   3
       1       1.00000000     0.00000000     0.00000000
       2       0.00000000     1.00000000     0.00000000
       3       0.00000000     0.00000000     1.00000000
    ==== End of matrix output ====


 CCSD   oscillator strength matrix for state nr.  1 of symmetry 1
 CCSD  excitation energy:15.12387519


               Column   1     Column   2     Column   3
       1     2.757684D-15   1.746286D-15  -2.123182D-15
       2     1.746286D-15   1.105825D-15  -1.344494D-15
       3    -2.123182D-15  -1.344494D-15   1.634655D-15
    ==== End of matrix output ====

 Principal values of diagonalized oscillator strength matrix:

             a.u.               
 1       0.00000000
 2       0.00000000
 3       0.00000000

 Principal axis of diagonalized oscillator strength matrix:


               Column   1     Column   2     Column   3
       1       1.00000000     0.00000000     0.00000000
       2       0.00000000     1.00000000     0.00000000
       3       0.00000000     0.00000000     1.00000000
    ==== End of matrix output ====

  Total time for      9 linear response residues:       2.83 seconds.
  

 *******************************************************************************
 *******************************************************************************
 *                                                                             *
 *                                                                             *
 *                   SUMMARY OF COUPLED CLUSTER CALCULATION                    *
 *                                                                             *
 *                                                                             *
 *******************************************************************************
 *******************************************************************************

                                                                                
                                                                                
            Total SCF   energy:                  -361.1959473844                
            Total MP2   energy:                  -362.2983949214                
            Total CCSD  energy:                  -362.3396922657                
                                                                                
                                                                                
            Total SCF   energy:                  -361.1959473844                
            Total RSTAR energy:                  -362.3396922657                
            Total CCSD  energy:                  -362.3397983881                
                                                                                
                                                                                
            Total SCF   energy:                  -361.1959473844                
            Total RSTAR energy:                  -362.3397983881                
            Total CCSD  energy:                  -362.3397982191                
                                                                                
                                                                                
            Total SCF   energy:                  -361.1959473844                
            Total RSTAR energy:                  -362.3397982191                
            Total CCSD  energy:                  -362.3397982737                
                                                                                
                                                                                
            Total SCF   energy:                  -361.1959473844                
            Total RSTAR energy:                  -362.3397982737                
            Total CCSD  energy:                  -362.3397982735                
                                                                                
                                                                                
            Total SCF   energy:                  -361.1959473844                
            Total RSTAR energy:                  -362.3397982735                
            Total CCSD  energy:                  -362.3397982734                
            CCSD Total  energy:                  -362.7265167595                
            CCSD E(QM/MM)     :                    -0.3837501358                
                                                                                
                                                                                
                                                                                
 +=============================================================================+
 |  sym. | Exci.  |        CCSD       Excitation energies            | ||T1||  |
 |(spin, |        +------------------------------------------------------------+
 | spat) |        |     Hartree    |       eV.      |     cm-1       |    %    |
 +=============================================================================+
 | ^1A   |    1   |    15.1238752  |     411.54158  |   3319306.902  |  88.22  |
 +=============================================================================+
                                                                                
                                                                                
     Total energies in Hartree:                                                 
             1 ^1A       -347.2188914315                                        
                                                                                
                                                                                
 +=============================================================================+
 |  sym. | Exci.  |        CCSD       Length   Gauge Oscillator Strength       |
 |(spin, |        +------------------------------------------------------------+
 | spat) |        | Dipole Strength(a.u.) | Oscillator strength  | Direction   |
 +=============================================================================+
 | ^1A   |    1   |        0.0000000      |      0.0000000       |    -        |
 +=============================================================================+

  1 a.u. =        27.21138 eV.  
  1 a.u. =    219474.62934 cm-1.
  

 *******************************************************************************
 *******************************************************************************
 *                                                                             *
 *                                                                             *
 *                      END OF COUPLED CLUSTER CALCULATION                     *
 *                                                                             *
 *                                                                             *
 *******************************************************************************
 *******************************************************************************


 CPU and wall time for CC :    5677.212    9183.142

 
     Date and time (Linux)  : Sat Dec  8 05:34:58 2018
     Host name              : n-62-29-4                               


                      .-------------------------------------.
                      | End of Coupled Cluster Section (CC) |
                      `-------------------------------------'

  Total CPU  time used in DALTON:   1 hour  36 minutes 43 seconds
  Total wall time used in DALTON:   2 hours 40 minutes 26 seconds

 
     Date and time (Linux)  : Sat Dec  8 05:34:59 2018
     Host name              : n-62-29-4                               
  

 +---------------------------------------------------------+ 
 | List of selected calculated molecular properties (a.u.) | 
 +---------------------------------------------------------+ 

  Properties are read from unit number                      4

 CCSD       properties :
 #  1 1 CCSD/MM  Ground state Energy =    -362.7265167595
 #  2 1 E_QM/MM  Ground state Energy =      -0.3837501358
 #  3 1 Sy: 1 Sp: 1 Exc:  1 E_tot:   -347.2188914315 w:     15.1238751922 E_grs:   -362.3427666237
 #  4 1 Exctot   Excited state Energy =    -347.2188914315
 #  5 1 |<O|XDIPLEN |i(15.123875)>| =     0.00000002
 #  7 1 |<O|YDIPLEN |i(15.123875)>| =     0.00000001
 #  9 1 |<O|ZDIPLEN |i(15.123875)>| =     0.00000001

 THE_END   
