

     ************************************************************************
     *************** Dalton - An Electronic Structure Program ***************
     ************************************************************************

    This is output from DALTON release Dalton2017.alpha (2016)
         ( Web site: http://daltonprogram.org )

   ----------------------------------------------------------------------------

    NOTE:
     
    Dalton is an experimental code for the evaluation of molecular
    properties using (MC)SCF, DFT, CI, and CC wave functions.
    The authors accept no responsibility for the performance of
    the code or for the correctness of the results.
     
    The code (in whole or part) is provided under a licence and
    is not to be reproduced for further distribution without
    the written permission of the authors or their representatives.
     
    See the home page "http://daltonprogram.org" for further information.
     
    If results obtained with this code are published,
    the appropriate citations would be both of:
     
       K. Aidas, C. Angeli, K. L. Bak, V. Bakken, R. Bast,
       L. Boman, O. Christiansen, R. Cimiraglia, S. Coriani,
       P. Dahle, E. K. Dalskov, U. Ekstroem,
       T. Enevoldsen, J. J. Eriksen, P. Ettenhuber, B. Fernandez,
       L. Ferrighi, H. Fliegl, L. Frediani, K. Hald, A. Halkier,
       C. Haettig, H. Heiberg, T. Helgaker, A. C. Hennum,
       H. Hettema, E. Hjertenaes, S. Hoest, I.-M. Hoeyvik,
       M. F. Iozzi, B. Jansik, H. J. Aa. Jensen, D. Jonsson,
       P. Joergensen, J. Kauczor, S. Kirpekar,
       T. Kjaergaard, W. Klopper, S. Knecht, R. Kobayashi, H. Koch,
       J. Kongsted, A. Krapp, K. Kristensen, A. Ligabue,
       O. B. Lutnaes, J. I. Melo, K. V. Mikkelsen, R. H. Myhre,
       C. Neiss, C. B. Nielsen, P. Norman, J. Olsen,
       J. M. H. Olsen, A. Osted, M. J. Packer, F. Pawlowski,
       T. B. Pedersen, P. F. Provasi, S. Reine, Z. Rinkevicius,
       T. A. Ruden, K. Ruud, V. Rybkin, P. Salek, C. C. M. Samson,
       A. Sanchez de Meras, T. Saue, S. P. A. Sauer,
       B. Schimmelpfennig, K. Sneskov, A. H. Steindal,
       K. O. Sylvester-Hvid, P. R. Taylor, A. M. Teale,
       E. I. Tellgren, D. P. Tew, A. J. Thorvaldsen, L. Thoegersen,
       O. Vahtras, M. A. Watson, D. J. D. Wilson, M. Ziolkowski
       and H. Agren,
       "The Dalton quantum chemistry program system",
       WIREs Comput. Mol. Sci. 2014, 4:269–284 (doi: 10.1002/wcms.1172)
     
    and
     
       Dalton, a Molecular Electronic Structure Program,
       Release Dalton2017.alpha (2016), see http://daltonprogram.org
   ----------------------------------------------------------------------------

    Authors in alphabetical order (major contribution(s) in parenthesis):

  Kestutis Aidas,           Vilnius University,           Lithuania   (QM/MM)
  Celestino Angeli,         University of Ferrara,        Italy       (NEVPT2)
  Keld L. Bak,              UNI-C,                        Denmark     (AOSOPPA, non-adiabatic coupling, magnetic properties)
  Vebjoern Bakken,          University of Oslo,           Norway      (DALTON; geometry optimizer, symmetry detection)
  Radovan Bast,             UiT The Arctic U. of Norway,  Norway      (DALTON installation and execution frameworks)
  Pablo Baudin,             University of Valencia,       Spain       (Cholesky excitation energies)
  Linus Boman,              NTNU,                         Norway      (Cholesky decomposition and subsystems)
  Ove Christiansen,         Aarhus University,            Denmark     (CC module)
  Renzo Cimiraglia,         University of Ferrara,        Italy       (NEVPT2)
  Sonia Coriani,            University of Trieste,        Italy       (CC module, MCD in RESPONS)
  Janusz Cukras,            University of Trieste,        Italy       (MChD in RESPONS)
  Paal Dahle,               University of Oslo,           Norway      (Parallelization)
  Erik K. Dalskov,          UNI-C,                        Denmark     (SOPPA)
  Thomas Enevoldsen,        Univ. of Southern Denmark,    Denmark     (SOPPA)
  Janus J. Eriksen,         Aarhus University,            Denmark     (Polarizable embedding model, TDA)
  Rasmus Faber,             University of Copenhagen,     Denmark     (Vib.avg. NMR with SOPPA, parallel AO-SOPPA)
  Berta Fernandez,          U. of Santiago de Compostela, Spain       (doublet spin, ESR in RESPONS)
  Lara Ferrighi,            Aarhus University,            Denmark     (PCM Cubic response)
  Heike Fliegl,             University of Oslo,           Norway      (CCSD(R12))
  Luca Frediani,            UiT The Arctic U. of Norway,  Norway      (PCM)
  Bin Gao,                  UiT The Arctic U. of Norway,  Norway      (Gen1Int library)
  Christof Haettig,         Ruhr-University Bochum,       Germany     (CC module)
  Kasper Hald,              Aarhus University,            Denmark     (CC module)
  Asger Halkier,            Aarhus University,            Denmark     (CC module)
  Frederik Beyer Hansen,    University of Copenhagen,     Denmark     (Parallel AO-SOPPA)
  Erik D. Hedegaard,        Univ. of Southern Denmark,    Denmark     (Polarizable embedding model, QM/MM)
  Hanne Heiberg,            University of Oslo,           Norway      (geometry analysis, selected one-electron integrals)
  Trygve Helgaker,          University of Oslo,           Norway      (DALTON; ABACUS, ERI, DFT modules, London, and much more)
  Alf Christian Hennum,     University of Oslo,           Norway      (Parity violation)
  Hinne Hettema,            University of Auckland,       New Zealand (quadratic response in RESPONS; SIRIUS supersymmetry)
  Eirik Hjertenaes,         NTNU,                         Norway      (Cholesky decomposition)
  Pi A. B. Haase,           University of Copenhagen,     Denmark     (Triplet AO-SOPPA)
  Maria Francesca Iozzi,    University of Oslo,           Norway      (RPA)
  Brano Jansik              Technical Univ. of Ostrava    Czech Rep.  (DFT cubic response)
  Hans Joergen Aa. Jensen,  Univ. of Southern Denmark,    Denmark     (DALTON; SIRIUS, RESPONS, ABACUS modules, London, and much more)
  Dan Jonsson,              UiT The Arctic U. of Norway,  Norway      (cubic response in RESPONS module)
  Poul Joergensen,          Aarhus University,            Denmark     (RESPONS, ABACUS, and CC modules)
  Maciej Kaminski,          University of Warsaw,         Poland      (CPPh in RESPONS)
  Joanna Kauczor,           Linkoeping University,        Sweden      (Complex polarization propagator (CPP) module)
  Sheela Kirpekar,          Univ. of Southern Denmark,    Denmark     (Mass-velocity & Darwin integrals)
  Wim Klopper,              KIT Karlsruhe,                Germany     (R12 code in CC, SIRIUS, and ABACUS modules)
  Stefan Knecht,            ETH Zurich,                   Switzerland (Parallel CI and MCSCF)
  Rika Kobayashi,           Australian National Univ.,    Australia   (DIIS in CC, London in MCSCF)
  Henrik Koch,              NTNU,                         Norway      (CC module, Cholesky decomposition)
  Jacob Kongsted,           Univ. of Southern Denmark,    Denmark     (Polarizable embedding model, QM/MM)
  Andrea Ligabue,           University of Modena,         Italy       (CTOCD, AOSOPPA)
  Nanna H. List             Univ. of Southern Denmark,    Denmark     (Polarizable embedding model)
  Ola B. Lutnaes,           University of Oslo,           Norway      (DFT Hessian)
  Juan I. Melo,             University of Buenos Aires,   Argentina   (LRESC, Relativistic Effects on NMR Shieldings)
  Kurt V. Mikkelsen,        University of Copenhagen,     Denmark     (MC-SCRF and QM/MM)
  Rolf H. Myhre,            NTNU,                         Norway      (Cholesky, subsystems and ECC2)
  Christian Neiss,          Univ. Erlangen-Nuernberg,     Germany     (CCSD(R12))
  Christian B. Nielsen,     University of Copenhagen,     Denmark     (QM/MM)
  Patrick Norman,           Linkoeping University,        Sweden      (Cubic response and complex frequency response in RESPONS)
  Jeppe Olsen,              Aarhus University,            Denmark     (SIRIUS CI/density modules)
  Jogvan Magnus H. Olsen,   Univ. of Southern Denmark,    Denmark     (Polarizable embedding model, QM/MM)
  Anders Osted,             Copenhagen University,        Denmark     (QM/MM)
  Martin J. Packer,         University of Sheffield,      UK          (SOPPA)
  Filip Pawlowski,          Kazimierz Wielki University,  Poland      (CC3)
  Morten N. Pedersen,       Univ. of Southern Denmark,    Denmark     (Polarizable embedding model)
  Thomas B. Pedersen,       University of Oslo,           Norway      (Cholesky decomposition)
  Patricio F. Provasi,      University of Northeastern,   Argentina   (Analysis of coupling constants in localized orbitals)
  Zilvinas Rinkevicius,     KTH Stockholm,                Sweden      (open-shell DFT, ESR)
  Elias Rudberg,            KTH Stockholm,                Sweden      (DFT grid and basis info)
  Torgeir A. Ruden,         University of Oslo,           Norway      (Numerical derivatives in ABACUS)
  Kenneth Ruud,             UiT The Arctic U. of Norway,  Norway      (DALTON; ABACUS magnetic properties and much more)
  Pawel Salek,              KTH Stockholm,                Sweden      (DALTON; DFT code)
  Claire C. M. Samson       University of Karlsruhe       Germany     (Boys localization, r12 integrals in ERI)
  Alfredo Sanchez de Meras, University of Valencia,       Spain       (CC module, Cholesky decomposition)
  Trond Saue,               Paul Sabatier University,     France      (direct Fock matrix construction)
  Stephan P. A. Sauer,      University of Copenhagen,     Denmark     (SOPPA(CCSD), SOPPA prop., AOSOPPA, vibrational g-factors)
  Bernd Schimmelpfennig,    Forschungszentrum Karlsruhe,  Germany     (AMFI module)
  Kristian Sneskov,         Aarhus University,            Denmark     (Polarizable embedding model, QM/MM)
  Arnfinn H. Steindal,      UiT The Arctic U. of Norway,  Norway      (parallel QM/MM, Polarizable embedding model)
  Casper Steinmann,         Univ. of Southern Denmark,    Denmark     (QFIT, Polarizable embedding model)
  K. O. Sylvester-Hvid,     University of Copenhagen,     Denmark     (MC-SCRF)
  Peter R. Taylor,          VLSCI/Univ. of Melbourne,     Australia   (Symmetry handling ABACUS, integral transformation)
  Andrew M. Teale,          University of Nottingham,     England     (DFT-AC, DFT-D)
  David P. Tew,             University of Bristol,        England     (CCSD(R12))
  Olav Vahtras,             KTH Stockholm,                Sweden      (triplet response, spin-orbit, ESR, TDDFT, open-shell DFT)
  David J. Wilson,          La Trobe University,          Australia   (DFT Hessian and DFT magnetizabilities)
  Hans Agren,               KTH Stockholm,                Sweden      (SIRIUS module, RESPONS, MC-SCRF solvation model)
 --------------------------------------------------------------------------------

     Date and time (Linux)  : Sat Dec  8 02:29:51 2018
     Host name              : n-62-24-6                               

 * Work memory size             :  1280000000 =  9.537 gigabytes.

 * Directories for basis set searches:
   1) /zhome/d7/7/119775/My_Codes/dalton-private/build2016/basis/diffs
   2) /zhome/37/3/129401/NH3NH4/CCSD/AIMD_SAMPLING/nh4_4h2o_nd
   3) /zhome/9a/4/124800/source/dalton/build-mlcc/basis


Compilation information
-----------------------

 Who compiled             | rfaber
 Host                     | hpclogin1
 System                   | Linux-2.6.32-696.1.1.el6.x86_64
 CMake generator          | Unix Makefiles
 Processor                | x86_64
 64-bit integers          | ON
 MPI                      | OFF
 Fortran compiler         | /opt/intel/2016update2/compilers_and_libraries_201
                          | 6.2.181/linux/bin/intel64/ifort
 Fortran compiler version | ifort (IFORT) 16.0.2 20160204
 C compiler               | /opt/intel/2016update2/compilers_and_libraries_201
                          | 6.2.181/linux/bin/intel64/icc
 C compiler version       | icc (ICC) 16.0.2 20160204
 C++ compiler             | /opt/intel/2016update2/compilers_and_libraries_201
                          | 6.2.181/linux/bin/intel64/icpc
 C++ compiler version     | icpc (ICC) 16.0.2 20160204
 Static linking           | OFF
 Last Git revision        | bb4d1599ca5680a9f3980451fc8bbefdba436d59
 Git branch               | mlcc
 Configuration time       | 2017-06-13 16:11:03.928841


   Content of the .dal input file
 ----------------------------------

**DALTON
.RUN WAVE FUNCTIONS
*QMMM
.QMMM
**INTEGRALS
.DIPLEN
**WAVE FUNCTIONS
.CC
*PRINT
!To check the origin of excit
.PRINTL
   0 11
*SCF INP
.THRESH
1.0D-7
!*ORBITAL INPUT
!.MOSTART
!NEWORB
*CC INP
!.RESTART
.CCSD
.THRLEQ
 1.0D-9
.THRENR
 1.0D-10
.FROIMP
4
0
.PRINT
 1
.MAX IT
 1200
.MAXRED
 1200
.MXLRV
1199
*CCSLV
.CCMM
.MXSLIT
200
.MXINIT
4 5
*CCEXCI
.NCCEXC
 1
.IONISATION
1
1
.CVSEPARA
1
1
*CCLRSD
.DIPOLE
**END OF DALTON INPUT


   Content of the .mol file
 ----------------------------

ATOMBASIS


Atomtypes=5 Charge=1 Nosymm Angstrom
   7.00000    1    Basis=6-311G**
N          0.000000        0.000000        0.000000
   1.00000    4    Basis=6-311G**
H         -0.300757        0.794196       -0.609365
H          0.435250       -0.692068       -0.655262
H         -0.688592       -0.454252        0.583668
H          0.775022        0.358911        0.618127
   8.00000    4    Basis=6-311G**
O          0.000520        1.707888       -2.214662
O          1.431787       -1.940900       -1.531420
O         -1.420643       -2.278754        1.653865
O          2.991284        1.964181        0.916701
   1.00000    8    Basis=6-311G**
H          0.320116        1.247847       -3.110394
H         -0.576170        2.519302       -2.467563
H          1.308149       -2.202888       -2.466086
H          1.396415       -2.810170       -1.050029
H         -0.474715       -2.389357        1.499101
H         -1.495138       -1.664326        2.453402
H          2.386951        2.378811        1.548812
H          3.910159        2.338960        1.161830
   0.00000    1    Basis=diffs
X          0.000000        0.000000        0.000000


       *******************************************************************
       *********** Output from DALTON general input processing ***********
       *******************************************************************

 --------------------------------------------------------------------------------
   Overall default print level:    0
   Print level for DALTON.STAT:    1

    HERMIT 1- and 2-electron integral sections will be executed
    "Old" integral transformation used (limited to max 255 basis functions)
    Wave function sections will be executed (SIRIUS module)
 --------------------------------------------------------------------------------


 Changes of defaults for *QMMM  :
 --------------------------------

 +------------------+
 |  WORD: | CHANGE: |
 +------------------+
 |   QMMM |       T |
 +------------------+
 


   ****************************************************************************
   *************** Output of molecule and basis set information ***************
   ****************************************************************************


    The two title cards from your ".mol" input:
    ------------------------------------------------------------------------
 1:                                                                         
 2:                                                                         
    ------------------------------------------------------------------------

  Coordinates are entered in Angstrom and converted to atomic units.
          - Conversion factor : 1 bohr = 0.52917721 A

  Atomic type no.    1
  --------------------
  Nuclear charge:   7.00000
  Number of symmetry independent centers:    1
  Number of basis sets to read;    2
  The basis set is "6-311G**" from the basis set library.
  Basis set file used for this atomic type with Z =   7 :
     "/zhome/9a/4/124800/source/dalton/build-mlcc/basis/6-311G**"

  Info about the basis set file: your basis has no documentation.
  Basis set: 6-311G**                                                                        

  Atomic type no.    2
  --------------------
  Nuclear charge:   1.00000
  Number of symmetry independent centers:    4
  Number of basis sets to read;    2
  The basis set is "6-311G**" from the basis set library.
  Basis set file used for this atomic type with Z =   1 :
     "/zhome/9a/4/124800/source/dalton/build-mlcc/basis/6-311G**"

  Info about the basis set file: your basis has no documentation.
  Basis set: 6-311G**                                                                        

  Atomic type no.    3
  --------------------
  Nuclear charge:   8.00000
  Number of symmetry independent centers:    4
  Number of basis sets to read;    2
  The basis set is "6-311G**" from the basis set library.
  Basis set file used for this atomic type with Z =   8 :
     "/zhome/9a/4/124800/source/dalton/build-mlcc/basis/6-311G**"

  Info about the basis set file: your basis has no documentation.
  Basis set: 6-311G**                                                                        

  Atomic type no.    4
  --------------------
  Nuclear charge:   1.00000
  Number of symmetry independent centers:    8
  Number of basis sets to read;    2
  The basis set is "6-311G**" from the basis set library.
  Basis set file used for this atomic type with Z =   1 :
     "/zhome/9a/4/124800/source/dalton/build-mlcc/basis/6-311G**"

  Info about the basis set file: your basis has no documentation.
  Basis set: 6-311G**                                                                        

  Atomic type no.    5
  --------------------
  Nuclear charge:   0.00000
  Number of symmetry independent centers:    1
  Number of basis sets to read;    2
  The basis set is "diffs" from the basis set library.
  Basis set file used for this atomic type with Z =   0 :
     "/zhome/9a/4/124800/source/dalton/build-mlcc/basis/diffs"

  Info about the basis set file: your basis has no documentation.
  Basis set: diffs                                                                           


                         SYMGRP: Point group information
                         -------------------------------

@    Point group: C1 


                                 Isotopic Masses
                                 ---------------

                           N          14.003074
                           H           1.007825
                           H           1.007825
                           H           1.007825
                           H           1.007825
                           O          15.994915
                           O          15.994915
                           O          15.994915
                           O          15.994915
                           H           1.007825
                           H           1.007825
                           H           1.007825
                           H           1.007825
                           H           1.007825
                           H           1.007825
                           H           1.007825
                           H           1.007825

                       Total mass:    90.076634 amu
                       Natural abundance:  98.500 %

 Center-of-mass coordinates (a.u.):    1.155598   -0.195905   -0.447181


  Atoms and basis sets
  --------------------

  Number of atom types :    5
  Total number of atoms:   18

  label    atoms   charge   prim   cont     basis
  ----------------------------------------------------------------------
  N           1    7.0000    31    18      [11s5p1d|4s3p1d]                                   
  H           4    1.0000     8     6      [5s1p|3s1p]                                        
  O           4    8.0000    31    18      [11s5p1d|4s3p1d]                                   
  H           8    1.0000     8     6      [5s1p|3s1p]                                        
  X           1    0.0000     1     1      [1s|1s]                                            
  ----------------------------------------------------------------------
  total:     18   51.0000   252   163
  ----------------------------------------------------------------------
  Spherical harmonic basis used.

  Threshold for neglecting AO integrals:  1.00D-12


  Cartesian Coordinates (a.u.)
  ----------------------------

  Total number of coordinates:   54
  N       :     1  x   0.0000000000    2  y   0.0000000000    3  z   0.0000000000
  H       :     4  x  -0.5683483602    5  y   1.5008129296    6  z  -1.1515329602
  H       :     7  x   0.8225032959    8  y  -1.3078189799    9  z  -1.2382657201
  H       :    10  x  -1.3012502919   11  y  -0.8584118717   12  z   1.1029726679
  H       :    13  x   1.4645793208   14  y   0.6782434932   15  z   1.1680907405
  O       :    16  x   0.0009826576   17  y   3.2274405722   18  z  -4.1851046394
  O       :    19  x   2.7056852993   20  y  -3.6677694360   21  z  -2.8939643823
  O       :    22  x  -2.6846261914   23  y  -4.3062209662   24  z   3.1253518977
  O       :    25  x   5.6527075221   26  y   3.7117641499   27  z   1.7323138285
  H       :    28  x   0.6049315682   29  y   2.3580890759   30  z  -5.8777928008
  H       :    31  x  -1.0888035014   32  y   4.7607908061   33  z  -4.6630182662
  H       :    34  x   2.4720433407   35  y  -4.1628550040   36  z  -4.6602271407
  H       :    37  x   2.6388419068   38  y  -5.3104516647   39  z  -1.9842672333
  H       :    40  x  -0.8970813374   41  y  -4.5152303448   42  z   2.8328903237
  H       :    43  x  -2.8254013391   44  y  -3.1451203227   45  z   4.6362578545
  H       :    46  x   4.5106836638   47  y   4.4953012931   48  z   2.9268304991
  H       :    49  x   7.3891296152   50  y   4.4199938173   51  z   2.1955405038
  X       :    52  x   0.0000000000   53  y   0.0000000000   54  z   0.0000000000

  Max    interatomic separation is    7.0699 Angstrom (   13.3601 Bohr)
  between atoms   17 and    8, "H     " and "O     ".

  Min HX interatomic separation is    0.9649 Angstrom (    1.8233 Bohr)

  Min YX interatomic separation is    2.7967 Angstrom (    5.2850 Bohr)


  Bond distances (Angstrom):
  --------------------------

                  atom 1     atom 2       distance
                  ------     ------       --------
  bond distance:  H          N            1.045241
  bond distance:  H          N            1.047745
  bond distance:  H          N            1.010531
  bond distance:  H          N            1.054304
  bond distance:  H          O            1.056464
  bond distance:  H          O            1.027094
  bond distance:  H          O            0.978532
  bond distance:  H          O            0.994293
  bond distance:  H          O            0.964865
  bond distance:  H          O            1.011104
  bond distance:  H          O            0.967833
  bond distance:  H          O            1.022193


  Bond angles (degrees):
  ----------------------

                  atom 1     atom 2     atom 3         angle
                  ------     ------     ------         -----
  bond angle:     H          N          H            104.881
  bond angle:     H          N          H            118.830
  bond angle:     H          N          H            107.137
  bond angle:     H          N          H            110.327
  bond angle:     H          N          H            106.628
  bond angle:     H          N          H            108.379
  bond angle:     H          O          H            107.764
  bond angle:     H          O          H            102.937
  bond angle:     H          O          H            105.589
  bond angle:     H          O          H            104.336




 Principal moments of inertia (u*A**2) and principal axes
 --------------------------------------------------------

   IA     313.372079          0.535687    0.801666   -0.265276
   IB     507.219978          0.311115    0.104678    0.944590
   IC     581.912941          0.785014   -0.588536   -0.193336


 Rotational constants
 --------------------

               A                   B                   C

           1612.7123            996.3705            868.4787 MHz
            0.053794            0.033235            0.028969 cm-1


@  Nuclear repulsion energy :  190.408840190949 Hartree

  Number of floating/multiple basis set orbitals :    1


                     .---------------------------------------.
                     | Starting in Integral Section (HERMIT) |
                     `---------------------------------------'



 ***************************************************************************************
 ****************** Output from **INTEGRALS input processing (HERMIT) ******************
 ***************************************************************************************



    *************************************************************************
    ****************** Output from HERMIT input processing ******************
    *************************************************************************


 Default print level:        1

 * Nuclear model: Point charge

 Calculation of one- and two-electron Hamiltonian integrals.

 The following one-electron property integrals are calculated as requested:
          - overlap integrals
          - dipole length integrals

 Center of mass  (bohr):      1.155598478359     -0.195905065226     -0.447180940462
 Operator center (bohr):      0.000000000000      0.000000000000      0.000000000000
 Gauge origin    (bohr):      0.000000000000      0.000000000000      0.000000000000
 Dipole origin   (bohr):      0.000000000000      0.000000000000      0.000000000000
 
  *********************************** 
  QMMM electrostatic potential: 
  Multipole order                                    0
  Isotropic polarization  
  *********************************** 
 
  ---------------- 
  QMMM information 
  ---------------- 
 
  MM coordinates in au 
  -------------------- 
     1     -3.995295     10.271141     -4.334130
     2     -4.632272      8.491373     -4.075729
     3     -4.545039     11.485498     -3.032880
     4      6.784223    -10.288234     11.487097
     5      6.567705     -9.540061     13.195003
     6      7.439844    -11.969588     11.696433
     7      1.333378      9.527415      0.450881
     8      0.506301     10.947168     -0.342190
     9      2.430229      8.935961     -0.907628
    10     -6.828525      5.439837     -4.182676
    11     -6.638967      4.468267     -2.679014
    12     -8.525745      6.245962     -4.053695
    13      3.349963     -7.948126     -0.045442
    14      4.566844     -7.260451      1.134990
    15      4.359130     -9.178630     -1.082936
    16     -5.885716     -2.165543    -10.323459
    17     -6.426303     -0.419045     -9.774378
    18     -7.561416     -3.103983    -10.132313
    19     -1.550186     -9.518486      0.967835
    20     -2.506669     -7.932981      0.514017
    21      0.139834     -8.760921      1.366697
    22      5.815541    -11.605738     -2.909277
    23      7.595614    -12.016502     -2.388162
    24      4.948970    -12.980635     -3.830613
    25     -6.971952     -0.675711     -0.114121
    26     -8.203876      0.471857     -0.848088
    27     -7.572582     -1.070220      1.571959
    28      1.950662      0.872328     -7.953302
    29      2.472212     -0.833076     -7.953612
    30      3.617832      1.898797     -7.809856
    31      2.647442     -4.287061      4.667741
    32      4.073301     -3.595412      3.860546
    33      3.120747     -6.024691      5.211324
    34     -6.845382      8.290548     11.097851
    35     -7.098660      9.894336     12.044876
    36     -5.672393      7.035877     12.040515
    37     10.702736     10.932498     -0.806199
    38     10.754125     10.378072      0.939925
    39     11.695723     12.600733     -0.669774
    40      6.612704     -8.012675     -6.907590
    41      8.364984     -7.477314     -6.470696
    42      6.035846     -9.242656     -5.599733
    43     11.262390      6.660279     -3.921613
    44     10.804526      7.327891     -5.575406
    45     10.879707      7.998710     -2.665277
    46    -11.484860      1.760972     -1.187124
    47    -11.644704      2.634520     -2.813579
    48    -11.839350      3.029564      0.031334
    49      8.157105     -8.192670      3.037500
    50      7.836696     -8.747952      4.704468
    51      7.977286     -9.716462      1.935684
    52      3.344158     -1.184550      9.926782
    53      2.523374     -2.246884      8.660638
    54      3.420004     -2.188395     11.445742
    55     -9.963579     -8.373157      0.859258
    56    -11.059101     -7.755153      2.224090
    57     -8.699139     -7.282266      0.183377
    58     11.033174      9.670394      4.246011
    59      9.603225      9.628808      5.527942
    60     12.594490      9.817460      5.247624
    61      0.877430     -6.858685     -7.172085
    62      0.812985     -6.602439     -8.997640
    63      1.112892     -8.736911     -6.955689
    64    -11.112140      4.986248     11.466365
    65    -10.347001      6.613397     11.159063
    66    -11.414927      4.063934      9.866489
    67     -2.062963      5.517740      1.166844
    68     -1.506270      7.255896      0.989357
    69     -3.950236      5.353607      1.074060
    70      1.695799      5.067123      5.704896
    71      0.902261      3.850995      6.968679
    72      0.448581      4.876726      4.216287
    73      9.349934     -3.056738     -1.709250
    74     10.355187     -1.479998     -1.602741
    75      8.017970     -2.773528     -2.879858
    76     -5.232378    -11.200473     -8.824571
    77     -4.897603     -9.380570     -8.325899
    78     -4.767507    -12.136097     -7.247548
    79     11.540678      2.144076      6.994651
    80     12.978522      1.042762      6.610018
    81     10.191367      0.796782      7.256541
    82     -3.049283     -2.644048      8.938444
    83     -4.291583     -2.580888     10.392881
    84     -1.969182     -4.011981      9.501498
    85     -5.485561     -6.231584     -1.457977
    86     -5.595744     -6.252019     -3.392211
    87     -5.864854     -4.442238     -0.835913
    88     -8.004865      2.147902     -8.809644
    89     -8.747769      3.201506    -10.102742
    90     -7.884467      3.223892     -7.162540
    91      4.491720      6.075462     11.571562
    92      3.886004      4.559805     10.630488
    93      3.253205      7.302520     12.110705
    94      4.846705     -3.413875     -8.531849
    95      6.309474     -2.359973     -7.912060
    96      5.441104     -5.152873     -7.723233
    97     -0.576726      2.458396     10.052258
    98     -1.573552      0.984698      9.355216
    99      0.261111      1.548332     11.384963
   100      0.375823      8.936090    -10.501947
   101     -0.456101      9.821296    -11.916507
   102     -0.874512      7.681285    -10.051455
   103    -10.544190     -7.473975      6.609824
   104    -12.164367     -7.496460      7.687270
   105    -10.128998     -9.244419      6.283929
   106     10.415972      4.841983      2.847131
   107     10.948047      3.928283      4.419053
   108     10.705882      6.736645      3.603780
   109    -10.449197     -4.509780     -9.788443
   110    -11.826730     -4.331386    -11.021189
   111    -10.020681     -6.319441     -9.779488
   112      7.685161     -1.081437      7.113054
   113      6.204103     -0.989124      8.189370
   114      7.131008     -1.388272      5.399822
   115      9.505336     -5.768400      9.842909
   116      8.047949     -6.599404     10.615627
   117      8.753321     -4.392937      8.807685
   118     -7.241274      5.820360      1.116526
   119     -8.003540      5.504610      2.750075
   120     -6.955515      7.695422      0.971533
   121      6.488885      3.497053     -7.580317
   122      6.541400      4.613315     -6.044344
   123      6.235665      4.634534     -8.974162
   124      7.234864      9.175412      7.763804
   125      6.479242      7.698810      8.693693
   126      5.758757      9.759426      6.895325
   127     -4.953764     -9.113665      5.718107
   128     -3.934928     -8.081195      4.547724
   129     -6.225657     -8.059880      6.520390
   130      1.917413     10.329519      5.766548
   131      1.793514     10.235788      3.870456
   132      1.711024      8.404702      6.047439
   133     -7.996792      9.544338      6.196471
   134     -6.699304     10.738618      5.517435
   135     -7.305931      8.907309      7.838983
   136      9.841665      9.428477     -9.700720
   137     11.111941     10.562575     -8.888196
   138     10.595728      8.034779    -10.605997
   139      4.418114      6.242192     -3.206831
   140      3.031610      5.089029     -3.518379
   141      5.039930      5.772422     -1.519514
   142     -6.040833     11.208723      0.465899
   143     -7.445990     12.319506      0.953510
   144     -4.583757     11.923140      1.319029
   145     -3.144457      5.143712    -10.341585
   146     -2.406064      4.091308    -11.699996
   147     -3.617025      3.705398     -9.305633
   148      0.142814     -6.782673     10.756550
   149      1.382824     -7.382172      9.590855
   150     -1.012496     -8.234782     10.613086
   151     -2.450969    -11.458982      9.994811
   152     -3.519492    -10.831697      8.579368
   153     -3.553726    -11.700103     11.479200
   154      9.713882     -0.678381     -7.058993
   155     11.549203     -0.617234     -7.638148
   156      9.112261      1.081906     -7.080613
   157      1.471874     11.456372     -6.251826
   158      1.309571     10.663851     -7.923901
   159      0.230860     10.613809     -5.125865
   160      4.138910     -8.687564      7.371232
   161      3.260609    -10.363799      6.780980
   162      4.913403     -9.370334      8.893767
   163      6.560407     -1.761011      2.289641
   164      6.234484     -0.033981      1.662333
   165      7.637562     -2.538938      1.009853
   166    -10.427375    -10.849175     -7.702622
   167    -10.970981     -9.699437     -6.433951
   168     -8.520512    -10.911721     -8.231687
   169     -8.154191     -1.902206      5.523507
   170     -9.092109     -3.570997      5.872840
   171     -6.492322     -2.486267      6.275442
   172     11.579289     -6.703014     -4.948611
   173     11.924837     -5.083120     -5.725787
   174     10.896518     -6.204262     -3.287275
   175     -4.512059     -5.869591     -6.966328
   176     -2.594549     -6.320618     -7.199549
   177     -4.781230     -4.500710     -8.221295
 
  MM charges 
  ---------- 
     1     -0.674440
     2      0.337220
     3      0.337220
     4     -0.674440
     5      0.337220
     6      0.337220
     7     -0.674440
     8      0.337220
     9      0.337220
    10     -0.674440
    11      0.337220
    12      0.337220
    13     -0.674440
    14      0.337220
    15      0.337220
    16     -0.674440
    17      0.337220
    18      0.337220
    19     -0.674440
    20      0.337220
    21      0.337220
    22     -0.674440
    23      0.337220
    24      0.337220
    25     -0.674440
    26      0.337220
    27      0.337220
    28     -0.674440
    29      0.337220
    30      0.337220
    31     -0.674440
    32      0.337220
    33      0.337220
    34     -0.674440
    35      0.337220
    36      0.337220
    37     -0.674440
    38      0.337220
    39      0.337220
    40     -0.674440
    41      0.337220
    42      0.337220
    43     -0.674440
    44      0.337220
    45      0.337220
    46     -0.674440
    47      0.337220
    48      0.337220
    49     -0.674440
    50      0.337220
    51      0.337220
    52     -0.674440
    53      0.337220
    54      0.337220
    55     -0.674440
    56      0.337220
    57      0.337220
    58     -0.674440
    59      0.337220
    60      0.337220
    61     -0.674440
    62      0.337220
    63      0.337220
    64     -0.674440
    65      0.337220
    66      0.337220
    67     -0.674440
    68      0.337220
    69      0.337220
    70     -0.674440
    71      0.337220
    72      0.337220
    73     -0.674440
    74      0.337220
    75      0.337220
    76     -0.674440
    77      0.337220
    78      0.337220
    79     -0.674440
    80      0.337220
    81      0.337220
    82     -0.674440
    83      0.337220
    84      0.337220
    85     -0.674440
    86      0.337220
    87      0.337220
    88     -0.674440
    89      0.337220
    90      0.337220
    91     -0.674440
    92      0.337220
    93      0.337220
    94     -0.674440
    95      0.337220
    96      0.337220
    97     -0.674440
    98      0.337220
    99      0.337220
   100     -0.674440
   101      0.337220
   102      0.337220
   103     -0.674440
   104      0.337220
   105      0.337220
   106     -0.674440
   107      0.337220
   108      0.337220
   109     -0.674440
   110      0.337220
   111      0.337220
   112     -0.674440
   113      0.337220
   114      0.337220
   115     -0.674440
   116      0.337220
   117      0.337220
   118     -0.674440
   119      0.337220
   120      0.337220
   121     -0.674440
   122      0.337220
   123      0.337220
   124     -0.674440
   125      0.337220
   126      0.337220
   127     -0.674440
   128      0.337220
   129      0.337220
   130     -0.674440
   131      0.337220
   132      0.337220
   133     -0.674440
   134      0.337220
   135      0.337220
   136     -0.674440
   137      0.337220
   138      0.337220
   139     -0.674440
   140      0.337220
   141      0.337220
   142     -0.674440
   143      0.337220
   144      0.337220
   145     -0.674440
   146      0.337220
   147      0.337220
   148     -0.674440
   149      0.337220
   150      0.337220
   151     -0.674440
   152      0.337220
   153      0.337220
   154     -0.674440
   155      0.337220
   156      0.337220
   157     -0.674440
   158      0.337220
   159      0.337220
   160     -0.674440
   161      0.337220
   162      0.337220
   163     -0.674440
   164      0.337220
   165      0.337220
   166     -0.674440
   167      0.337220
   168      0.337220
   169     -0.674440
   170      0.337220
   171      0.337220
   172     -0.674440
   173      0.337220
   174      0.337220
   175     -0.674440
   176      0.337220
   177      0.337220
 
  MM isotropic polarizabilities in au 
  ----------------------------------- 
     1      5.739350
     2      2.308390
     3      2.308390
     4      5.739350
     5      2.308390
     6      2.308390
     7      5.739350
     8      2.308390
     9      2.308390
    10      5.739350
    11      2.308390
    12      2.308390
    13      5.739350
    14      2.308390
    15      2.308390
    16      5.739350
    17      2.308390
    18      2.308390
    19      5.739350
    20      2.308390
    21      2.308390
    22      5.739350
    23      2.308390
    24      2.308390
    25      5.739350
    26      2.308390
    27      2.308390
    28      5.739350
    29      2.308390
    30      2.308390
    31      5.739350
    32      2.308390
    33      2.308390
    34      5.739350
    35      2.308390
    36      2.308390
    37      5.739350
    38      2.308390
    39      2.308390
    40      5.739350
    41      2.308390
    42      2.308390
    43      5.739350
    44      2.308390
    45      2.308390
    46      5.739350
    47      2.308390
    48      2.308390
    49      5.739350
    50      2.308390
    51      2.308390
    52      5.739350
    53      2.308390
    54      2.308390
    55      5.739350
    56      2.308390
    57      2.308390
    58      5.739350
    59      2.308390
    60      2.308390
    61      5.739350
    62      2.308390
    63      2.308390
    64      5.739350
    65      2.308390
    66      2.308390
    67      5.739350
    68      2.308390
    69      2.308390
    70      5.739350
    71      2.308390
    72      2.308390
    73      5.739350
    74      2.308390
    75      2.308390
    76      5.739350
    77      2.308390
    78      2.308390
    79      5.739350
    80      2.308390
    81      2.308390
    82      5.739350
    83      2.308390
    84      2.308390
    85      5.739350
    86      2.308390
    87      2.308390
    88      5.739350
    89      2.308390
    90      2.308390
    91      5.739350
    92      2.308390
    93      2.308390
    94      5.739350
    95      2.308390
    96      2.308390
    97      5.739350
    98      2.308390
    99      2.308390
   100      5.739350
   101      2.308390
   102      2.308390
   103      5.739350
   104      2.308390
   105      2.308390
   106      5.739350
   107      2.308390
   108      2.308390
   109      5.739350
   110      2.308390
   111      2.308390
   112      5.739350
   113      2.308390
   114      2.308390
   115      5.739350
   116      2.308390
   117      2.308390
   118      5.739350
   119      2.308390
   120      2.308390
   121      5.739350
   122      2.308390
   123      2.308390
   124      5.739350
   125      2.308390
   126      2.308390
   127      5.739350
   128      2.308390
   129      2.308390
   130      5.739350
   131      2.308390
   132      2.308390
   133      5.739350
   134      2.308390
   135      2.308390
   136      5.739350
   137      2.308390
   138      2.308390
   139      5.739350
   140      2.308390
   141      2.308390
   142      5.739350
   143      2.308390
   144      2.308390
   145      5.739350
   146      2.308390
   147      2.308390
   148      5.739350
   149      2.308390
   150      2.308390
   151      5.739350
   152      2.308390
   153      2.308390
   154      5.739350
   155      2.308390
   156      2.308390
   157      5.739350
   158      2.308390
   159      2.308390
   160      5.739350
   161      2.308390
   162      2.308390
   163      5.739350
   164      2.308390
   165      2.308390
   166      5.739350
   167      2.308390
   168      2.308390
   169      5.739350
   170      2.308390
   171      2.308390
   172      5.739350
   173      2.308390
   174      2.308390
   175      5.739350
   176      2.308390
   177      2.308390


     ************************************************************************
     ************************** Output from HERINT **************************
     ************************************************************************



                      Nuclear contribution to dipole moments
                      --------------------------------------

                 au               Debye          C m (/(10**-30)

      x     58.61982218       148.99671659       496.99954957
      y     -9.36494221       -23.80330729       -79.39928660
      z    -22.48374790       -57.14798320      -190.62515308



 Threshold for neglecting two-electron integrals:  1.00D-12
 HERMIT - Number of two-electron integrals written:    33413126 ( 37.4% )
 HERMIT - Megabytes written:                            382.598

  Time used in TWOINT     is       6.81 seconds
  Total CPU  time used in HERMIT:   6.99 seconds
  Total wall time used in HERMIT:  20.79 seconds


                        .----------------------------------.
                        | End of Integral Section (HERMIT) |
                        `----------------------------------'



                   .--------------------------------------------.
                   | Starting in Wave Function Section (SIRIUS) |
                   `--------------------------------------------'

NCCEXCI for singlet:    1
 CCSD_INPUT: core-val requested
 Requested number of virtual orbs per sym
                     1
 Indices of requested virtual orbs
                     1
 CCSD_INPUT: core-val requested
 Requested number of core orbs per sym
                     1
 Indices of requested core orbs
                     1

 *** Output from Huckel module :

     Using EWMO model:          T
     Using EHT  model:          F
     Number of Huckel orbitals each symmetry:   37

 EWMO - Energy Weighted Maximum Overlap - is a Huckel type method,
        which normally is better than Extended Huckel Theory.
 Reference: Linderberg and Ohrn, Propagators in Quantum Chemistry (Wiley, 1973)

 Huckel EWMO eigenvalues for symmetry :  1
          -20.684633     -20.684516     -20.684424     -20.683880     -15.675606
           -1.774730      -1.598455      -1.592060      -1.581498      -1.501904
           -0.813833      -0.802977      -0.785341      -0.778564      -0.769246
           -0.750109      -0.719525      -0.687037      -0.682194      -0.655954
           -0.640309      -0.617053      -0.601355      -0.582572      -0.576018
           -0.268533      -0.248455      -0.245241      -0.236681      -0.194063
           -0.186631      -0.178959      -0.178503      -0.174275      -0.154346
           -0.147263      -0.139058

 **********************************************************************
 *SIRIUS* a direct, restricted step, second order MCSCF program       *
 **********************************************************************

 
     Date and time (Linux)  : Sat Dec  8 02:30:19 2018
     Host name              : n-62-24-6                               

 Title lines from ".mol" input file:
                                                                             
                                                                             

 Print level on unit LUPRI =   2 is   0
 Print level on unit LUW4  =   2 is  11

@    (Integral direct) CC calculation.

@    This is a combination run starting with
@              a restricted, closed shell Hartree-Fock calculation


 Initial molecular orbitals are obtained according to
 ".MOSTART EWMO  " input option

@    QM part is embedded in an environment :

@         Model: QMMM

     Wave function specification
     ============================

     For the specification of the Coupled Cluster: see later.

@    Wave function type        --- CC ---
@    Number of closed shell electrons          50
@    Number of electrons in active shells       0
@    Total charge of the molecule               1

@    Spin multiplicity and 2 M_S                1         0
@    Total number of symmetries                 1 (point group: C1 )
@    Reference state symmetry                   1 (irrep name : A  )

     Orbital specifications
     ======================
@    Abelian symmetry species          All |    1
@                                          |  A  
                                       --- |  ---
@    Occupied SCF orbitals              25 |   25
@    Secondary orbitals                138 |  138
@    Total number of orbitals          163 |  163
@    Number of basis functions         163 |  163

     Optimization information
     ========================
@    Number of configurations                 1
@    Number of orbital rotations           3450
     ------------------------------------------
@    Total number of variables             3451

     Maximum number of Fock   iterations      0
     Maximum number of DIIS   iterations     60
     Maximum number of QC-SCF iterations     60
     Threshold for SCF convergence     1.00D-07


 Changes of defaults for CC:
 ---------------------------


 -Implicit frozen core calculation
 -Excitation energies calculated
 -One-photon absorption strengths will be calculated
 -Oscillator strengths calculated
  
* Read MO coefficients from SIRIUS.RST with label "NEWORB  " and header info:  8Dec18  REORTHO 


 ***********************************************
 ***** DIIS acceleration of SCF iterations *****
 ***********************************************

 C1-DIIS algorithm; max error vectors =    8
 -----------------------------------------------------------------------------

 *** DIIS iteration number    1
 RDSUPM called. NFMAT, ISYMDM(1:NFMAT)                     1
                     1

Calculating AOSUPINT
     (Precalculated two-electron integrals are transformed to P-supermatrix elements.
      Threshold for discarding integrals :  1.00D-12 )
  CPU  time used in FORMSUP    is   2.67 seconds
  WALL time used in FORMSUP    is  48.04 seconds

 ITDIIS, energy, error norm, change in energy, scr.thr., difden:
@ DIIS iter.   1    -360.168190090        4.03709D+00   -3.60D+02  -20    F

 (DIIS_RED) Control Parameters C2DIIS =         F NEVC =    1


 (DIIS_RED) B matrix:

               Column   1
       1      16.29807939
    ==== End of matrix output ====

 DIIS C vector; C2DIIS = F, LAMBDA = -1.63D+01
    1.000000
* Read MO coefficients from SIRIUS.RST with label "NEWORB  " and header info:  8Dec18  DIIS   1
      Virial theorem: -V/T =      2.003668
@      MULPOP N       0.19; H       0.17; H       0.17; H       0.16; H       0.16; O      -0.57; O      -0.58; O      -0.64; O      -0.63; H       0.31; 
@             H       0.31; H       0.32; H       0.32; H       0.34; H       0.33; H       0.33; H       0.32; 
   1  Level shift: doubly occupied orbital energies shifted by -2.00D-01

 DIIS Fock eigenvalues in symmetry 1
      -20.81678      -20.79782      -20.79159      -20.78299      -16.55348
       -1.77348       -1.63572       -1.63378       -1.60350       -1.59255
       -1.26508       -1.23627       -1.22756       -1.02163       -1.00645
       -0.97749       -0.97019       -0.88502       -0.86882       -0.85664
       -0.85468       -0.83885       -0.83346       -0.82230       -0.81587
       -0.04279       -0.00005        0.02615        0.04714        0.06216
        0.10242        0.12046        0.12738        0.14837        0.17171
        0.18932        0.22423        0.23019        0.23493        0.25942
        0.30131        0.42039        0.43895        0.46833        0.47108
        0.49260        0.50203        0.51250        0.51604        0.52278
        0.63262        0.65443        0.69427        0.84614        0.86953
        0.88380        0.89271        0.90289        0.91460        0.95789
        0.97680        0.99654        1.01314        1.03136        1.04424
        1.05715        1.06629        1.11074        1.22678        1.23970
        1.28096        1.32856        1.34741        1.36515        1.38280
        1.39253        1.40202        1.40931        1.41855        1.45319
        1.50328        1.52568        1.54752        1.55343        1.60459
        1.61476        1.62071        1.70011        1.73378        1.74724
        1.80229        1.81679        1.85693        1.94116        2.05817
        2.06948        2.07867        2.10639        2.11895        2.13536
        2.13939        2.19757        2.21057        2.24399        2.25298
        2.34537        2.44287        2.45982        2.49801        2.50199
        2.51611        2.53723        2.56098        2.59273        2.61437
        2.65825        2.72549        2.73250        2.75362        2.92971
        2.94035        2.96100        3.05112        3.31695        3.34356
        3.34743        3.36573        3.36640        3.40132        3.41206
        3.41723        3.48611        3.55560        3.56178        3.56491
        3.86731        3.87975        3.89322        3.91985        4.06515
        4.10648        4.12420        4.13142        4.60741        4.66485
        4.78643        5.23501        5.24314        5.25954        5.35123
        5.61750        5.64529        5.67247        5.76495        5.89254
        5.97648        5.99599        5.99603       36.26947       51.44738
       51.47120       51.47522       51.47651
 Time used in FCKEIG, thr_jaco:   4.60D-02  9.50D-02  1.72D-04
 CPU and wall times used in FCKEIG, THR_FCKEIG:   4.60D-02  9.50D-02  4.04D-02
 -----------------------------------------------------------------------------

 *** DIIS iteration number    2
 RDSUPM called. NFMAT, ISYMDM(1:NFMAT)                     1
                     1

 ITDIIS, energy, error norm, change in energy, scr.thr., difden:
@ DIIS iter.   2    -361.078235094        1.19962D+00   -9.10D-01  -20    F

 (DIIS_RED) Control Parameters C2DIIS =         F NEVC =    2


 (DIIS_RED) B matrix:

               Column   1     Column   2
       1      16.29807939
       2       0.40071698     1.43909155
    ==== End of matrix output ====

 DIIS C vector; C2DIIS = F, LAMBDA = -1.38D+00
    0.061313    0.938687
* Read MO coefficients from SIRIUS.RST with label "NEWORB  " and header info:  8Dec18  DIIS   2
      Virial theorem: -V/T =      2.002765
@      MULPOP N      -0.53; H       0.37; H       0.35; H       0.31; H       0.32; O      -0.60; O      -0.55; O      -0.50; O      -0.62; H       0.38; 
@             H       0.27; H       0.31; H       0.31; H       0.28; H       0.27; H       0.27; H       0.36; 
   2  Level shift: doubly occupied orbital energies shifted by -1.00D-01

 DIIS Fock eigenvalues in symmetry 1
      -20.78316      -20.77057      -20.76302      -20.72689      -15.66667
       -1.53663       -1.52720       -1.49940       -1.49208       -1.41047
       -0.91461       -0.90271       -0.89033       -0.87934       -0.87337
       -0.85804       -0.85067       -0.77875       -0.77062       -0.75115
       -0.74857       -0.72129       -0.71243       -0.71002       -0.69030
       -0.00005        0.04057        0.08329        0.09428        0.10427
        0.14734        0.16439        0.19526        0.20845        0.23722
        0.24243        0.25455        0.27252        0.33357        0.35279
        0.38008        0.45802        0.48244        0.50275        0.52406
        0.53041        0.53605        0.54743        0.56120        0.59862
        0.79374        0.80658        0.85978        0.87999        0.90775
        0.91007        0.91648        0.96511        0.98975        0.99980
        1.01116        1.02648        1.04651        1.07363        1.07887
        1.13970        1.16980        1.19758        1.25912        1.26843
        1.33028        1.39213        1.40613        1.41941        1.43016
        1.44449        1.44987        1.46640        1.46947        1.51937
        1.59476        1.61607        1.62683        1.63905        1.66235
        1.68136        1.73100        1.79143        1.80074        1.83168
        1.87273        1.87739        1.97417        2.04776        2.09758
        2.11470        2.14861        2.16912        2.22195        2.23419
        2.26375        2.28843        2.29891        2.31062        2.31649
        2.46247        2.53942        2.55299        2.56410        2.57538
        2.59652        2.61841        2.66033        2.72123        2.73976
        2.78378        2.80437        2.87684        2.93607        3.10447
        3.23049        3.25523        3.33276        3.34837        3.36426
        3.37206        3.37490        3.40035        3.42043        3.44289
        3.46083        3.50148        3.57696        3.58054        3.59352
        3.88529        3.88858        3.91743        3.93328        4.07514
        4.11291        4.14489        4.15539        5.03189        5.08377
        5.19211        5.22168        5.24331        5.25877        5.34735
        5.59732        5.64374        5.66024        5.76650        5.88613
        5.99169        5.99487        6.01578       37.03787       51.37091
       51.39019       51.43015       51.43481
 Time used in FCKEIG, thr_jaco:   3.10D-02  7.50D-02  5.11D-05
 CPU and wall times used in FCKEIG, THR_FCKEIG:   3.10D-02  7.50D-02  1.20D-02
 -----------------------------------------------------------------------------

 *** DIIS iteration number    3
 RDSUPM called. NFMAT, ISYMDM(1:NFMAT)                     1
                     1

 ITDIIS, energy, error norm, change in energy, scr.thr., difden:
@ DIIS iter.   3    -361.158098855        3.77936D-01   -7.99D-02  -20    F

 (DIIS_RED) Control Parameters C2DIIS =         F NEVC =    3


 (DIIS_RED) B matrix:

               Column   1     Column   2     Column   3
       1      16.29807939
       2       0.40071698     1.43909155
       3       0.84707920    -0.01950220     0.14283536
    ==== End of matrix output ====

 DIIS C vector; C2DIIS = F, LAMBDA = -9.55D-02
   -0.045982    0.092094    0.953888
* Read MO coefficients from SIRIUS.RST with label "NEWORB  " and header info:  8Dec18  DIIS   3
      Virial theorem: -V/T =      2.003647
@      MULPOP N      -0.31; H       0.33; H       0.31; H       0.26; H       0.26; O      -0.69; O      -0.62; O      -0.55; O      -0.68; H       0.43; 
@             H       0.30; H       0.33; H       0.34; H       0.30; H       0.29; H       0.29; H       0.40; 
   3  Level shift: doubly occupied orbital energies shifted by -5.00D-02

 DIIS Fock eigenvalues in symmetry 1
      -20.68478      -20.67125      -20.66835      -20.65131      -15.82404
       -1.46677       -1.45770       -1.42874       -1.42785       -1.40890
       -0.89836       -0.86556       -0.85787       -0.83132       -0.81173
       -0.78550       -0.78534       -0.70636       -0.70368       -0.68302
       -0.68062       -0.64356       -0.63490       -0.62862       -0.61659
       -0.00005        0.04526        0.09076        0.10057        0.11082
        0.15266        0.16722        0.19554        0.21508        0.24011
        0.24948        0.25794        0.27409        0.33321        0.35180
        0.38253        0.47071        0.49295        0.51547        0.53457
        0.54055        0.54840        0.55944        0.57188        0.59900
        0.77942        0.79531        0.84341        0.89883        0.92169
        0.92844        0.93165        0.97390        0.99989        1.01278
        1.02600        1.03995        1.06359        1.08320        1.09448
        1.13931        1.16896        1.19893        1.27147        1.27754
        1.34203        1.40250        1.42105        1.43544        1.44661
        1.46033        1.46457        1.47933        1.48404        1.53149
        1.60541        1.62878        1.63534        1.64633        1.67491
        1.68958        1.73710        1.80569        1.81078        1.83486
        1.88053        1.88951        1.97392        2.05139        2.11642
        2.13426        2.16682        2.18285        2.22848        2.24064
        2.27386        2.29341        2.30906        2.31962        2.33251
        2.46969        2.55231        2.56587        2.57620        2.59070
        2.60368        2.62834        2.67007        2.73321        2.75046
        2.79462        2.81493        2.84574        2.90551        3.09726
        3.19818        3.21935        3.30313        3.37054        3.38398
        3.39309        3.40669        3.42340        3.44791        3.46446
        3.47121        3.53277        3.60444        3.60920        3.61567
        3.91417        3.91715        3.93802        3.95930        4.10777
        4.14272        4.17375        4.17857        4.95119        5.00402
        5.12230        5.25903        5.26819        5.29216        5.37134
        5.63103        5.67063        5.69482        5.79952        5.92480
        6.02535        6.03035        6.03984       36.83678       51.42312
       51.43860       51.46082       51.47209
 Time used in FCKEIG, thr_jaco:   2.70D-02  8.39D-01  1.61D-05
 CPU and wall times used in FCKEIG, THR_FCKEIG:   2.70D-02  8.39D-01  3.78D-03
 -----------------------------------------------------------------------------

 *** DIIS iteration number    4
 RDSUPM called. NFMAT, ISYMDM(1:NFMAT)                     1
                     1

 ITDIIS, energy, error norm, change in energy, scr.thr., difden:
@ DIIS iter.   4    -361.168612088        9.15200D-02   -1.05D-02  -20    F

 (DIIS_RED) Control Parameters C2DIIS =         F NEVC =    4


 (DIIS_RED) B matrix:

               Column   1     Column   2     Column   3     Column   4
       1      16.29807939
       2       0.40071698     1.43909155
       3       0.84707920    -0.01950220     0.14283536
       4       0.05908886     0.07628878     0.00762733     0.00837591
    ==== End of matrix output ====

 DIIS C vector; C2DIIS = F, LAMBDA = -4.67D-03
   -0.000886   -0.054263   -0.027289    1.082438
* Read MO coefficients from SIRIUS.RST with label "NEWORB  " and header info:  8Dec18  DIIS   4
      Virial theorem: -V/T =      2.003596
@      MULPOP N      -0.38; H       0.35; H       0.33; H       0.28; H       0.27; O      -0.70; O      -0.63; O      -0.55; O      -0.70; H       0.45; 
@             H       0.30; H       0.33; H       0.34; H       0.30; H       0.29; H       0.30; H       0.42; 
   4  Level shift: doubly occupied orbital energies shifted by -1.25D-02

 DIIS Fock eigenvalues in symmetry 1
      -20.66176      -20.64873      -20.64807      -20.61959      -15.75799
       -1.43469       -1.42503       -1.39439       -1.39365       -1.36215
       -0.85086       -0.81839       -0.80987       -0.79754       -0.77781
       -0.75178       -0.75005       -0.67165       -0.66814       -0.64672
       -0.64476       -0.60714       -0.59813       -0.59223       -0.57719
       -0.00005        0.04689        0.09029        0.10117        0.11027
        0.15264        0.16751        0.19834        0.21460        0.24223
        0.24892        0.25939        0.27722        0.33886        0.35760
        0.38669        0.47012        0.49331        0.51427        0.53420
        0.54056        0.54703        0.55759        0.57019        0.60342
        0.78599        0.80180        0.85061        0.89957        0.92162
        0.92942        0.93350        0.97564        1.00138        1.01274
        1.02483        1.04030        1.06206        1.08424        1.09286
        1.14239        1.17386        1.20166        1.27061        1.27788
        1.34299        1.40365        1.41999        1.43378        1.44512
        1.45845        1.46278        1.47861        1.48216        1.53201
        1.60699        1.62910        1.63704        1.65028        1.67317
        1.69301        1.74121        1.80438        1.81106        1.83845
        1.88083        1.88898        1.97860        2.05620        2.11385
        2.13153        2.16396        2.18037        2.23393        2.24001
        2.27662        2.29575        2.31242        2.31730        2.33017
        2.47398        2.55280        2.56602        2.57952        2.58948
        2.60624        2.63100        2.67359        2.73403        2.74985
        2.79275        2.81523        2.85525        2.91538        3.10484
        3.20846        3.22989        3.31312        3.36838        3.38115
        3.39224        3.40252        3.42060        3.44421        3.46359
        3.47058        3.52904        3.60093        3.60568        3.61485
        3.91009        3.91293        3.93679        3.95559        4.10372
        4.13871        4.17037        4.17747        4.96726        5.02014
        5.13688        5.25189        5.26493        5.28497        5.36582
        5.62449        5.66758        5.68783        5.79259        5.91632
        6.01776        6.02288        6.03672       36.86506       51.40632
       51.42446       51.45527       51.45750
 Time used in FCKEIG, thr_jaco:   2.60D-02  1.03D-01  3.90D-06
 CPU and wall times used in FCKEIG, THR_FCKEIG:   2.60D-02  1.03D-01  9.15D-04
 -----------------------------------------------------------------------------

 *** DIIS iteration number    5
 RDSUPM called. NFMAT, ISYMDM(1:NFMAT)                     1
                     1

 ITDIIS, energy, error norm, change in energy, scr.thr., difden:
@ DIIS iter.   5    -361.169630005        3.05326D-02   -1.02D-03  -20    F

 (DIIS_RED) Control Parameters C2DIIS =         F NEVC =    5


 (DIIS_RED) B matrix:

               Column   1     Column   2     Column   3     Column   4     Column   5
       1      16.29807939
       2       0.40071698     1.43909155
       3       0.84707920    -0.01950220     0.14283536
       4       0.05908886     0.07628878     0.00762733     0.00837591
       5       0.02328793     0.00685424     0.00595390     0.00083686     0.00093224
    ==== End of matrix output ====

 DIIS C vector; C2DIIS = F, LAMBDA = -6.29D-04
    0.001100   -0.011578   -0.049337    0.124200    0.935616
* Read MO coefficients from SIRIUS.RST with label "NEWORB  " and header info:  8Dec18  DIIS   5
      Virial theorem: -V/T =      2.003228
@      MULPOP N      -0.37; H       0.35; H       0.33; H       0.27; H       0.27; O      -0.71; O      -0.64; O      -0.56; O      -0.71; H       0.46; 
@             H       0.30; H       0.34; H       0.35; H       0.31; H       0.29; H       0.30; H       0.42; 

 DIIS Fock eigenvalues in symmetry 1
      -20.64217      -20.62804      -20.62588      -20.60382      -15.74175
       -1.41965       -1.40967       -1.37994       -1.37847       -1.34800
       -0.83686       -0.80431       -0.79571       -0.78323       -0.76321
       -0.73692       -0.73673       -0.65707       -0.65341       -0.63249
       -0.63047       -0.59131       -0.58203       -0.57550       -0.56253
       -0.00005        0.04754        0.09073        0.10166        0.11066
        0.15302        0.16787        0.19906        0.21504        0.24282
        0.24934        0.25994        0.27805        0.33990        0.35871
        0.38756        0.47091        0.49421        0.51499        0.53485
        0.54105        0.54771        0.55815        0.57036        0.60438
        0.78722        0.80315        0.85184        0.90194        0.92321
        0.93166        0.93525        0.97730        1.00300        1.01390
        1.02616        1.04196        1.06373        1.08539        1.09443
        1.14383        1.17525        1.20299        1.27144        1.27947
        1.34505        1.40489        1.42083        1.43455        1.44578
        1.45906        1.46324        1.47935        1.48256        1.53304
        1.60781        1.62982        1.63788        1.65128        1.67328
        1.69394        1.74211        1.80469        1.81150        1.83932
        1.88116        1.88930        1.97973        2.05727        2.11500
        2.13248        2.16498        2.18053        2.23515        2.24118
        2.27769        2.29689        2.31371        2.31836        2.33056
        2.47499        2.55348        2.56622        2.58039        2.58982
        2.60699        2.63185        2.67424        2.73447        2.75001
        2.79252        2.81538        2.85663        2.91676        3.10617
        3.21041        3.23178        3.31507        3.37181        3.38391
        3.39365        3.40616        3.42357        3.44691        3.46494
        3.47337        3.53255        3.60355        3.60858        3.61618
        3.91319        3.91622        3.93810        3.95824        4.10749
        4.14156        4.17337        4.17909        4.96943        5.02226
        5.13920        5.25723        5.26768        5.28988        5.37002
        5.62845        5.67011        5.69269        5.79713        5.92149
        6.02196        6.02666        6.03843       36.86873       51.41588
       51.43147       51.45851       51.46558
 Time used in FCKEIG, thr_jaco:   2.30D-02  2.50D-01  1.30D-06
 CPU and wall times used in FCKEIG, THR_FCKEIG:   2.30D-02  2.50D-01  3.05D-04
 -----------------------------------------------------------------------------

 *** DIIS iteration number    6
 RDSUPM called. NFMAT, ISYMDM(1:NFMAT)                     1
                     1

 ITDIIS, energy, error norm, change in energy, scr.thr., difden:
@ DIIS iter.   6    -361.169720136        1.11316D-02   -9.01D-05  -20    F

 (DIIS_RED) Control Parameters C2DIIS =         F NEVC =    6


 (DIIS_RED) B matrix:

               Column   1     Column   2     Column   3     Column   4     Column   5     Column   6
       1      16.29807939
       2       0.40071698     1.43909155
       3       0.84707920    -0.01950220     0.14283536
       4       0.05908886     0.07628878     0.00762733     0.00837591
       5       0.02328793     0.00685424     0.00595390     0.00083686     0.00093224
       6      -0.00450054    -0.00020979     0.00080001     0.00058062     0.00001888     0.00012391
    ==== End of matrix output ====

 DIIS C vector; C2DIIS = F, LAMBDA = -3.82D-05
    0.000814    0.006522   -0.007063   -0.136588    0.119856    1.016458
* Read MO coefficients from SIRIUS.RST with label "NEWORB  " and header info:  8Dec18  DIIS   6
      Virial theorem: -V/T =      2.003479
@      MULPOP N      -0.36; H       0.35; H       0.33; H       0.27; H       0.26; O      -0.71; O      -0.64; O      -0.56; O      -0.71; H       0.46; 
@             H       0.30; H       0.34; H       0.35; H       0.31; H       0.29; H       0.30; H       0.43; 

 DIIS Fock eigenvalues in symmetry 1
      -20.64404      -20.63038      -20.62881      -20.60449      -15.74382
       -1.42011       -1.41035       -1.38005       -1.37930       -1.34859
       -0.83742       -0.80486       -0.79615       -0.78375       -0.76390
       -0.73771       -0.73705       -0.65784       -0.65438       -0.63316
       -0.63132       -0.59149       -0.58246       -0.57605       -0.56229
       -0.00005        0.04749        0.09059        0.10157        0.11051
        0.15291        0.16775        0.19901        0.21484        0.24272
        0.24917        0.25980        0.27785        0.33978        0.35850
        0.38746        0.47071        0.49394        0.51464        0.53463
        0.54089        0.54743        0.55784        0.57019        0.60419
        0.78685        0.80284        0.85148        0.90161        0.92282
        0.93148        0.93524        0.97703        1.00260        1.01365
        1.02581        1.04164        1.06313        1.08518        1.09397
        1.14345        1.17498        1.20267        1.27137        1.27916
        1.34454        1.40456        1.42050        1.43427        1.44538
        1.45872        1.46299        1.47906        1.48230        1.53266
        1.60756        1.62953        1.63755        1.65118        1.67307
        1.69372        1.74189        1.80442        1.81120        1.83913
        1.88096        1.88901        1.97950        2.05708        2.11439
        2.13205        2.16444        2.18021        2.23481        2.24074
        2.27742        2.29661        2.31331        2.31793        2.33032
        2.47477        2.55326        2.56601        2.58032        2.58941
        2.60674        2.63171        2.67403        2.73426        2.74962
        2.79221        2.81499        2.85606        2.91619        3.10596
        3.20966        3.23105        3.31436        3.37084        3.38329
        3.39346        3.40506        3.42269        3.44625        3.46471
        3.47256        3.53152        3.60293        3.60773        3.61597
        3.91225        3.91519        3.93785        3.95759        4.10639
        4.14087        4.17252        4.17878        4.96845        5.02122
        5.13821        5.25586        5.26717        5.28860        5.36906
        5.62744        5.66954        5.69125        5.79580        5.91985
        6.02066        6.02561        6.03802       36.86669       51.41298
       51.42962       51.45784       51.46326
 Time used in FCKEIG, thr_jaco:   2.40D-02  5.30D-02  4.74D-07
 CPU and wall times used in FCKEIG, THR_FCKEIG:   2.40D-02  5.30D-02  1.11D-04
 -----------------------------------------------------------------------------

 *** DIIS iteration number    7
 RDSUPM called. NFMAT, ISYMDM(1:NFMAT)                     1
                     1

 ITDIIS, energy, error norm, change in energy, scr.thr., difden:
@ DIIS iter.   7    -361.169733749        2.40638D-03   -1.36D-05  -20    F

 (DIIS_RED) Control Parameters C2DIIS =         F NEVC =    7


 (DIIS_RED) B matrix:

               Column   1     Column   2     Column   3     Column   4     Column   5     Column   6
       1      16.29807939
       2       0.40071698     1.43909155
       3       0.84707920    -0.01950220     0.14283536
       4       0.05908886     0.07628878     0.00762733     0.00837591
       5       0.02328793     0.00685424     0.00595390     0.00083686     0.00093224
       6      -0.00450054    -0.00020979     0.00080001     0.00058062     0.00001888     0.00012391
       7       0.00020450     0.00023867    -0.00001221     0.00000795     0.00005079     0.00000101

               Column   7
       7       0.00000579
    ==== End of matrix output ====

 DIIS C vector; C2DIIS = F, LAMBDA = -1.46D-06
   -0.000242   -0.000783    0.005318    0.022618   -0.104122   -0.132652    1.209862
* Read MO coefficients from SIRIUS.RST with label "NEWORB  " and header info:  8Dec18  DIIS   7
      Virial theorem: -V/T =      2.003420
@      MULPOP N      -0.36; H       0.35; H       0.32; H       0.27; H       0.26; O      -0.72; O      -0.64; O      -0.56; O      -0.72; H       0.46; 
@             H       0.30; H       0.34; H       0.35; H       0.31; H       0.29; H       0.30; H       0.43; 

 DIIS Fock eigenvalues in symmetry 1
      -20.64383      -20.63016      -20.62827      -20.60445      -15.74338
       -1.42000       -1.41023       -1.37995       -1.37906       -1.34837
       -0.83724       -0.80468       -0.79597       -0.78368       -0.76382
       -0.73755       -0.73701       -0.65784       -0.65436       -0.63313
       -0.63128       -0.59132       -0.58229       -0.57575       -0.56217
       -0.00005        0.04756        0.09063        0.10162        0.11054
        0.15294        0.16779        0.19908        0.21488        0.24278
        0.24920        0.25986        0.27793        0.33991        0.35863
        0.38757        0.47077        0.49401        0.51469        0.53468
        0.54095        0.54747        0.55785        0.57021        0.60432
        0.78700        0.80299        0.85163        0.90174        0.92288
        0.93162        0.93534        0.97714        1.00271        1.01372
        1.02588        1.04175        1.06322        1.08526        1.09404
        1.14359        1.17511        1.20280        1.27144        1.27928
        1.34472        1.40465        1.42053        1.43429        1.44540
        1.45873        1.46300        1.47910        1.48232        1.53274
        1.60763        1.62959        1.63762        1.65127        1.67309
        1.69382        1.74200        1.80443        1.81123        1.83922
        1.88101        1.88904        1.97962        2.05720        2.11445
        2.13208        2.16447        2.18023        2.23492        2.24083
        2.27750        2.29671        2.31341        2.31799        2.33034
        2.47487        2.55329        2.56603        2.58043        2.58942
        2.60681        2.63178        2.67411        2.73429        2.74962
        2.79221        2.81500        2.85626        2.91639        3.10611
        3.20989        3.23127        3.31458        3.37107        3.38340
        3.39352        3.40530        3.42282        3.44636        3.46478
        3.47270        3.53176        3.60304        3.60785        3.61604
        3.91239        3.91538        3.93790        3.95768        4.10665
        4.14099        4.17265        4.17886        4.96873        5.02151
        5.13848        5.25617        5.26729        5.28877        5.36922
        5.62758        5.66964        5.69153        5.79596        5.92016
        6.02080        6.02574        6.03808       36.86712       51.41351
       51.42982       51.45788       51.46348
 Time used in FCKEIG, thr_jaco:   2.30D-02  1.19D-01  1.02D-07
 CPU and wall times used in FCKEIG, THR_FCKEIG:   2.30D-02  1.19D-01  2.41D-05
 -----------------------------------------------------------------------------

 *** DIIS iteration number    8
 RDSUPM called. NFMAT, ISYMDM(1:NFMAT)                     1
                     1

 ITDIIS, energy, error norm, change in energy, scr.thr., difden:
@ DIIS iter.   8    -361.169734398        4.20464D-04   -6.48D-07  -20    F

 (DIIS_RED) Control Parameters C2DIIS =         F NEVC =    8


 (DIIS_RED) B matrix:

               Column   1     Column   2     Column   3     Column   4     Column   5     Column   6
       1      16.29807939
       2       0.40071698     1.43909155
       3       0.84707920    -0.01950220     0.14283536
       4       0.05908886     0.07628878     0.00762733     0.00837591
       5       0.02328793     0.00685424     0.00595390     0.00083686     0.00093224
       6      -0.00450054    -0.00020979     0.00080001     0.00058062     0.00001888     0.00012391
       7       0.00020450     0.00023867    -0.00001221     0.00000795     0.00005079     0.00000101
       8       0.00012377    -0.00004773     0.00000966     0.00000142     0.00000067     0.00000175

               Column   7     Column   8
       7       0.00000579
       8       0.00000039     0.00000018
    ==== End of matrix output ====

 DIIS C vector; C2DIIS = F, LAMBDA = -1.24D-07
   -0.000017   -0.000094   -0.000196    0.002269    0.005331   -0.024881   -0.094608    1.112197
* Read MO coefficients from SIRIUS.RST with label "NEWORB  " and header info:  8Dec18  DIIS   8
      Virial theorem: -V/T =      2.003436
@      MULPOP N      -0.36; H       0.35; H       0.32; H       0.27; H       0.26; O      -0.72; O      -0.64; O      -0.56; O      -0.72; H       0.46; 
@             H       0.30; H       0.34; H       0.35; H       0.31; H       0.29; H       0.30; H       0.43; 

 DIIS Fock eigenvalues in symmetry 1
      -20.64378      -20.63009      -20.62840      -20.60440      -15.74340
       -1.41997       -1.41020       -1.37994       -1.37910       -1.34837
       -0.83725       -0.80469       -0.79597       -0.78366       -0.76380
       -0.73757       -0.73699       -0.65785       -0.65436       -0.63315
       -0.63131       -0.59129       -0.58227       -0.57579       -0.56215
       -0.00005        0.04756        0.09063        0.10162        0.11054
        0.15295        0.16779        0.19908        0.21488        0.24278
        0.24920        0.25986        0.27793        0.33990        0.35862
        0.38756        0.47077        0.49401        0.51468        0.53468
        0.54095        0.54747        0.55786        0.57021        0.60432
        0.78699        0.80298        0.85163        0.90174        0.92288
        0.93161        0.93535        0.97714        1.00271        1.01372
        1.02589        1.04175        1.06320        1.08527        1.09404
        1.14358        1.17511        1.20279        1.27145        1.27928
        1.34470        1.40465        1.42054        1.43429        1.44539
        1.45874        1.46301        1.47910        1.48232        1.53273
        1.60762        1.62958        1.63762        1.65127        1.67310
        1.69381        1.74199        1.80442        1.81123        1.83922
        1.88101        1.88904        1.97961        2.05719        2.11443
        2.13208        2.16447        2.18024        2.23491        2.24081
        2.27749        2.29670        2.31341        2.31799        2.33034
        2.47486        2.55329        2.56604        2.58042        2.58942
        2.60681        2.63178        2.67410        2.73429        2.74962
        2.79221        2.81499        2.85625        2.91637        3.10610
        3.20987        3.23126        3.31457        3.37103        3.38342
        3.39354        3.40525        3.42283        3.44637        3.46479
        3.47271        3.53171        3.60306        3.60788        3.61606
        3.91239        3.91535        3.93792        3.95770        4.10660
        4.14101        4.17267        4.17888        4.96872        5.02149
[...]
 | 1 1 1 1 | 120   1   8   1 |     1086        1 |       589156 |    0.066013  |
 | 1 1 1 1 |   4   1   9   1 |     1108        1 |       613279 |   -0.072514  |
 | 1 1 1 1 |   8   1   9   1 |     1112        1 |       617717 |   -0.140469  |
 | 1 1 1 1 |  26   1   9   1 |     1130        1 |       637886 |    0.127203  |
 | 1 1 1 1 |  27   1   9   1 |     1131        1 |       639016 |   -0.122265  |
 | 1 1 1 1 |  28   1   9   1 |     1132        1 |       640147 |    0.081667  |
 | 1 1 1 1 | 119   1   9   1 |     1223        1 |       747254 |    0.071718  |
 | 1 1 1 1 |  28   1  15   1 |     1960        1 |      1919821 |    0.070137  |
 +=============================================================================+


          Norm of Printed Amplitude Vector :             0.8827

          Printed all single excitations greater than 0.382008

          Printed all double excitations greater than 0.064520



+======================================================================+
| contributions of excitation levels to right eigenvectors as computed |
| from the (RE|RE) self overlap                                        |
+----------------------------------------------------------------------+
| sym | multi | state |    E / eV  | % singles | % doubles | % triples |
+======================================================================+
|    1|   1   |   1   |  412.37108 |  88.2646  |  11.7354  |   0.0000  |
+======================================================================+





+======================================================================+
| contributions of excitation levels to excited states as computed     |
| from the (LE|RE) overlap                                             |
+----------------------------------------------------------------------+
| sym | multi | state |    E / eV  | % singles | % doubles | % triples |
+======================================================================+
|    1|   1   |   1   |  412.37108 |  79.2426  |  20.7574  |   0.0000  |
+======================================================================+



 --------------------------
 Symmetry class Nr.:     1
 Multiplicity      :     3
 --------------------------

 Length of Excitation vectors in this class is:   8404200
 No Excitation Energies calculated in this symmetry class
     

   *******************************************************************
   *                                                                 *
   *--------   OUTPUT FROM PROPERTY AND SYMMETRY ANALYSIS   ---------*
   *                                                                 *
   *******************************************************************



                         +-------------------------------+
                         ! REQUESTED PROPERTY OPERATORS: !
                         +-------------------------------+

             Index   Oper. Label  Symmetry  Transp.  PDBS  Atom
             --------------------------------------------------
                1     HAM0            1        1      T      0
                2     XDIPLEN         1        1      F      0
                3     YDIPLEN         1        1      F      0
                4     ZDIPLEN         1        1      F      0
             --------------------------------------------------




                         +-------------------------------+
                         ! REQUESTED EXPECTATION VALUES: !
                         +-------------------------------+

                       Index   Oper. Label  Symmetry
                       -----------------------------
                       -----------------------------




                       +------------------------------------+
                       ! REQUESTED EFFECTIVE FOCK MATRICES: !
                       +------------------------------------+

                       Index   Oper. Label  Symmetry
                       -----------------------------
                       -----------------------------




                        +----------------------------------+
                        ! REQUESTED FIRST ORDER M-VECTORS: !
                        +----------------------------------+

               Index   State Symmetry  Frequency
               --------------------------------------------------
                  1             1    1     1.515436D+01
               --------------------------------------------------


      

    *******************************************************************
    *          SOLVING COUPLED CLUSTER RESPONSE EQUATIONS             *
    *******************************************************************



 
 +======================================================================+
 !                     RHS & ETA VECTORS TO COMPUTE:                    !
 +======================================================================+
 | TYPE | # VEC. |  NEEDED FOR:                                         |
 +----------------------------------------------------------------------+
 +======================================================================+



 +======================================================================+
 !                       LINEAR EQUATIONS TO SOLVE:                     !
 +======================================================================+
 | TYPE | # VEC. |  EQUATION:                                           |
 +----------------------------------------------------------------------+
 |  M1  |    1   |  first-order ground - excited state multipliers      |
 +======================================================================+



 +======================================================================+
 !                F MATRIX TRANSFORMATIONS TO COMPUTE:                  !
 +======================================================================+
 | TYPE | # VEC. |  TRANSFORMED:                                        |
 +----------------------------------------------------------------------+
 |  FR  |    1   |  right eigenvectors (RE)                             |
 +======================================================================+





 Testing R1 list: 

 List nr.  Label     Symmetry      Frequency      T1-norm        T2-norm


 Testing L1 list: 

 List nr.  Label     Symmetry      Frequency      T1-norm        T2-norm
  Solvent 1-order response equations converged in                     0 
  solvent iterations
 SONIAPRI                     0
 CCEQ_STR: CVSEPARATION =  T
 CCEQ_STR: IONIZATION =  T
 CCEQ_STR: REMOVE_CORE =  F
 could not find required file CCM1_1___1
 IOPTSV is    33 ... program continues nevertheless.
 Vector nr.  1 of type M1  and symmetry  1 was not found on file.
     M1  start vector nr.  1 of symmetry  1 generated from gradient
 CCEQ_STR: freeze VALENCE OR VIRT
 CCEQ_SOL: CVSEPARA=     T
 CCEQ_SOL: LIONISAT=     T
 CCEQ_SOL: REMOVE_CORE =  F



 ----- COUPLED CLUSTER RESPONSE SOLVER -----

    Iter  #Vectors  time (min)   residual
    --------------------------------------
 CCRED CVS/IONIS sigma_                     1 
 project out valence occupied or virtual
      1       1         1.59     0.22E+01
 CCRED CVS/IONIS sigma_                     2 
 project out valence occupied or virtual
      2       1         1.59     0.41E+00
 CCRED CVS/IONIS sigma_                     3 
 project out valence occupied or virtual
      3       1         1.59     0.50E-01
 CCRED CVS/IONIS sigma_                     4 
 project out valence occupied or virtual
                    -1  vectors with norm le:  1.000000000000000E-035  REMOVED

 CCORT,**WARNING**  number vectors added is zero after check for vector norm , NBADD :    0

 CCORT, number vectors added is zero , NBADD :    0

 CCORT, number vectors added is zero , NBADD :    0

 CCORT, number vectors added is zero , NBADD :    0

 CCORT, number vectors added is zero , NBADD :    0

 *** MICROITERATIONS STOPPED DUE TO LINEAR DEPENDENCE BETWEEN ALL NEW TRIAL VECTORS
                     0  trial vectors converged
  LINEAR DEPENDENCE BETWEEN                     1  NON CONVERGED TRIAL VECTORS
      4       1         1.59     0.51E-02

 ***  CCEQ_SOL -MICROITERATIONS STOPPED  
     LINEAR DEPENDENCE BETWEEN ALL NEW TRIAL VECTORS
    --------------------------------------
    converged in  4 iterations
    threshold:    0.10E-08


         Routine          Time (min)
         ---------------------------
         CC_TRDRV            6.35
         CCRED               0.03
         CCNEX               0.05
         ---------------------------
         Total time          6.43


  Total CPU  time used in CCEQ_SOLV:  6 minutes 26 seconds
  Total wall time used in CCEQ_SOLV:  7 minutes 50 seconds


 xxxxxxxxxxxxxxxxxxxxxxxxxxxxxxxxxxxxx

 
 Solution of CC response equations completed.
 

 *******************************************************************
 *                                                                 *
 *--------  OUTPUT FROM COUPLED CLUSTER LINEAR RESPONSE   ---------*
 *                                                                 *
 *--------      CALCULATION OF SECOND ORDER RESIDUES      ---------*
 *                                                                 *
 *******************************************************************



                  +---------------------------------------------+
                  ! CC_SOPR: Calculation of CCSD       Residues !
                  +---------------------------------------------+

 Doing the Mf*CsiA
 Doing the Mf*CsiA
 Doing the Mf*CsiA


 CCSD  Right transition moments in atomic units:
 -----------------------------------------------

  1      15.154359  <XDIPLEN |f> =       0.00000004
  1      15.154359  <YDIPLEN |f> =       0.00000001
  1      15.154359  <ZDIPLEN |f> =       0.00000008


 CCSD  Left  transition moments in atomic units:
 -----------------------------------------------

  1      15.154359  <f|XDIPLEN > =       0.00000002
  1      15.154359  <f|YDIPLEN > =       0.00000001
  1      15.154359  <f|ZDIPLEN > =       0.00000004


 CCSD  linear response residue property in atomic units:
 -------------------------------------------------------

 RES{<<XDIPLEN ,XDIPLEN >>(15.154359)} =     0.00000000 (   0.00000003)
 RES{<<XDIPLEN ,YDIPLEN >>(15.154359)} =     0.00000000 (   0.00000002)
 RES{<<XDIPLEN ,ZDIPLEN >>(15.154359)} =     0.00000000 (   0.00000004)
 RES{<<YDIPLEN ,XDIPLEN >>(15.154359)} =     0.00000000 (   0.00000002)
 RES{<<YDIPLEN ,YDIPLEN >>(15.154359)} =     0.00000000 (   0.00000001)
 RES{<<YDIPLEN ,ZDIPLEN >>(15.154359)} =     0.00000000 (   0.00000002)
 RES{<<ZDIPLEN ,XDIPLEN >>(15.154359)} =     0.00000000 (   0.00000004)
 RES{<<ZDIPLEN ,YDIPLEN >>(15.154359)} =     0.00000000 (   0.00000002)
 RES{<<ZDIPLEN ,ZDIPLEN >>(15.154359)} =     0.00000000 (   0.00000005)


 CCSD  Transition strength matrix for state nr.  1 of symmetry 1
 CCSD  excitation energy:15.15435898

 Gauge: length

               Column   1     Column   2     Column   3
       1     8.221367D-16   2.671464D-16   1.532823D-15
       2     2.671464D-16   8.680454D-17   4.980906D-16
       3     1.532823D-15   4.980906D-16   2.857785D-15
    ==== End of matrix output ====

 Principal values of diagonalized transition strength matrix:

             a.u.               
 1       0.00000000
 2       0.00000000
 3       0.00000000

 Principal axis of diagonalized transition strength matrix:


               Column   1     Column   2     Column   3
       1       1.00000000     0.00000000     0.00000000
       2       0.00000000     1.00000000     0.00000000
       3       0.00000000     0.00000000     1.00000000
    ==== End of matrix output ====


 CCSD   oscillator strength matrix for state nr.  1 of symmetry 1
 CCSD  excitation energy:15.15435898


               Column   1     Column   2     Column   3
       1     8.305970D-15   2.698955D-15   1.548597D-14
       2     2.698955D-15   8.769782D-16   5.032162D-15
       3     1.548597D-14   5.032162D-15   2.887194D-14
    ==== End of matrix output ====

 Principal values of diagonalized oscillator strength matrix:

             a.u.               
 1       0.00000000
 2       0.00000000
 3       0.00000000

 Principal axis of diagonalized oscillator strength matrix:


               Column   1     Column   2     Column   3
       1       1.00000000     0.00000000     0.00000000
       2       0.00000000     1.00000000     0.00000000
       3       0.00000000     0.00000000     1.00000000
    ==== End of matrix output ====

  Total time for      9 linear response residues:       3.20 seconds.
  

 *******************************************************************************
 *******************************************************************************
 *                                                                             *
 *                                                                             *
 *                   SUMMARY OF COUPLED CLUSTER CALCULATION                    *
 *                                                                             *
 *                                                                             *
 *******************************************************************************
 *******************************************************************************

                                                                                
                                                                                
            Total SCF   energy:                  -361.1697344213                
            Total MP2   energy:                  -362.2751654894                
            Total CCSD  energy:                  -362.3168641861                
                                                                                
                                                                                
            Total SCF   energy:                  -361.1697344213                
            Total RSTAR energy:                  -362.3168641861                
            Total CCSD  energy:                  -362.3170036264                
                                                                                
                                                                                
            Total SCF   energy:                  -361.1697344213                
            Total RSTAR energy:                  -362.3170036264                
            Total CCSD  energy:                  -362.3170034114                
                                                                                
                                                                                
            Total SCF   energy:                  -361.1697344213                
            Total RSTAR energy:                  -362.3170034114                
            Total CCSD  energy:                  -362.3170034947                
                                                                                
                                                                                
            Total SCF   energy:                  -361.1697344213                
            Total RSTAR energy:                  -362.3170034947                
            Total CCSD  energy:                  -362.3170034952                
                                                                                
                                                                                
            Total SCF   energy:                  -361.1697344213                
            Total RSTAR energy:                  -362.3170034952                
            Total CCSD  energy:                  -362.3170034952                
            CCSD Total  energy:                  -362.7218620241                
            CCSD E(QM/MM)     :                    -0.4006758889                
                                                                                
                                                                                
                                                                                
 +=============================================================================+
 |  sym. | Exci.  |        CCSD       Excitation energies            | ||T1||  |
 |(spin, |        +------------------------------------------------------------+
 | spat) |        |     Hartree    |       eV.      |     cm-1       |    %    |
 +=============================================================================+
 | ^1A   |    1   |    15.1543590  |     412.37108  |   3325997.321  |  88.26  |
 +=============================================================================+
                                                                                
                                                                                
     Total energies in Hartree:                                                 
             1 ^1A       -347.1668271508                                        
                                                                                
                                                                                
 +=============================================================================+
 |  sym. | Exci.  |        CCSD       Length   Gauge Oscillator Strength       |
 |(spin, |        +------------------------------------------------------------+
 | spat) |        | Dipole Strength(a.u.) | Oscillator strength  | Direction   |
 +=============================================================================+
 | ^1A   |    1   |        0.0000000      |      0.0000000       |    -        |
 +=============================================================================+

  1 a.u. =        27.21138 eV.  
  1 a.u. =    219474.62934 cm-1.
  

 *******************************************************************************
 *******************************************************************************
 *                                                                             *
 *                                                                             *
 *                      END OF COUPLED CLUSTER CALCULATION                     *
 *                                                                             *
 *                                                                             *
 *******************************************************************************
 *******************************************************************************


 CPU and wall time for CC :    7091.665   10733.162

 
     Date and time (Linux)  : Sat Dec  8 05:37:50 2018
     Host name              : n-62-24-6                               


                      .-------------------------------------.
                      | End of Coupled Cluster Section (CC) |
                      `-------------------------------------'

  Total CPU  time used in DALTON:   2 hours  0 minutes 23 seconds
  Total wall time used in DALTON:   3 hours  7 minutes 58 seconds

 
     Date and time (Linux)  : Sat Dec  8 05:37:50 2018
     Host name              : n-62-24-6                               
  

 +---------------------------------------------------------+ 
 | List of selected calculated molecular properties (a.u.) | 
 +---------------------------------------------------------+ 

  Properties are read from unit number                      4

 CCSD       properties :
 #  1 1 CCSD/MM  Ground state Energy =    -362.7218620241
 #  2 1 E_QM/MM  Ground state Energy =      -0.4006758889
 #  3 1 Sy: 1 Sp: 1 Exc:  1 E_tot:   -347.1668271508 w:     15.1543589844 E_grs:   -362.3211861352
 #  4 1 Exctot   Excited state Energy =    -347.1668271508
 #  5 1 |<O|XDIPLEN |i(15.154359)>| =     0.00000003
 #  7 1 |<O|YDIPLEN |i(15.154359)>| =     0.00000001
 #  9 1 |<O|ZDIPLEN |i(15.154359)>| =     0.00000005

 THE_END   
