

     ************************************************************************
     *************** Dalton - An Electronic Structure Program ***************
     ************************************************************************

    This is output from DALTON release Dalton2017.alpha (2016)
         ( Web site: http://daltonprogram.org )

   ----------------------------------------------------------------------------

    NOTE:
     
    Dalton is an experimental code for the evaluation of molecular
    properties using (MC)SCF, DFT, CI, and CC wave functions.
    The authors accept no responsibility for the performance of
    the code or for the correctness of the results.
     
    The code (in whole or part) is provided under a licence and
    is not to be reproduced for further distribution without
    the written permission of the authors or their representatives.
     
    See the home page "http://daltonprogram.org" for further information.
     
    If results obtained with this code are published,
    the appropriate citations would be both of:
     
       K. Aidas, C. Angeli, K. L. Bak, V. Bakken, R. Bast,
       L. Boman, O. Christiansen, R. Cimiraglia, S. Coriani,
       P. Dahle, E. K. Dalskov, U. Ekstroem,
       T. Enevoldsen, J. J. Eriksen, P. Ettenhuber, B. Fernandez,
       L. Ferrighi, H. Fliegl, L. Frediani, K. Hald, A. Halkier,
       C. Haettig, H. Heiberg, T. Helgaker, A. C. Hennum,
       H. Hettema, E. Hjertenaes, S. Hoest, I.-M. Hoeyvik,
       M. F. Iozzi, B. Jansik, H. J. Aa. Jensen, D. Jonsson,
       P. Joergensen, J. Kauczor, S. Kirpekar,
       T. Kjaergaard, W. Klopper, S. Knecht, R. Kobayashi, H. Koch,
       J. Kongsted, A. Krapp, K. Kristensen, A. Ligabue,
       O. B. Lutnaes, J. I. Melo, K. V. Mikkelsen, R. H. Myhre,
       C. Neiss, C. B. Nielsen, P. Norman, J. Olsen,
       J. M. H. Olsen, A. Osted, M. J. Packer, F. Pawlowski,
       T. B. Pedersen, P. F. Provasi, S. Reine, Z. Rinkevicius,
       T. A. Ruden, K. Ruud, V. Rybkin, P. Salek, C. C. M. Samson,
       A. Sanchez de Meras, T. Saue, S. P. A. Sauer,
       B. Schimmelpfennig, K. Sneskov, A. H. Steindal,
       K. O. Sylvester-Hvid, P. R. Taylor, A. M. Teale,
       E. I. Tellgren, D. P. Tew, A. J. Thorvaldsen, L. Thoegersen,
       O. Vahtras, M. A. Watson, D. J. D. Wilson, M. Ziolkowski
       and H. Agren,
       "The Dalton quantum chemistry program system",
       WIREs Comput. Mol. Sci. 2014, 4:269–284 (doi: 10.1002/wcms.1172)
     
    and
     
       Dalton, a Molecular Electronic Structure Program,
       Release Dalton2017.alpha (2016), see http://daltonprogram.org
   ----------------------------------------------------------------------------

    Authors in alphabetical order (major contribution(s) in parenthesis):

  Kestutis Aidas,           Vilnius University,           Lithuania   (QM/MM)
  Celestino Angeli,         University of Ferrara,        Italy       (NEVPT2)
  Keld L. Bak,              UNI-C,                        Denmark     (AOSOPPA, non-adiabatic coupling, magnetic properties)
  Vebjoern Bakken,          University of Oslo,           Norway      (DALTON; geometry optimizer, symmetry detection)
  Radovan Bast,             UiT The Arctic U. of Norway,  Norway      (DALTON installation and execution frameworks)
  Pablo Baudin,             University of Valencia,       Spain       (Cholesky excitation energies)
  Linus Boman,              NTNU,                         Norway      (Cholesky decomposition and subsystems)
  Ove Christiansen,         Aarhus University,            Denmark     (CC module)
  Renzo Cimiraglia,         University of Ferrara,        Italy       (NEVPT2)
  Sonia Coriani,            University of Trieste,        Italy       (CC module, MCD in RESPONS)
  Janusz Cukras,            University of Trieste,        Italy       (MChD in RESPONS)
  Paal Dahle,               University of Oslo,           Norway      (Parallelization)
  Erik K. Dalskov,          UNI-C,                        Denmark     (SOPPA)
  Thomas Enevoldsen,        Univ. of Southern Denmark,    Denmark     (SOPPA)
  Janus J. Eriksen,         Aarhus University,            Denmark     (Polarizable embedding model, TDA)
  Rasmus Faber,             University of Copenhagen,     Denmark     (Vib.avg. NMR with SOPPA, parallel AO-SOPPA)
  Berta Fernandez,          U. of Santiago de Compostela, Spain       (doublet spin, ESR in RESPONS)
  Lara Ferrighi,            Aarhus University,            Denmark     (PCM Cubic response)
  Heike Fliegl,             University of Oslo,           Norway      (CCSD(R12))
  Luca Frediani,            UiT The Arctic U. of Norway,  Norway      (PCM)
  Bin Gao,                  UiT The Arctic U. of Norway,  Norway      (Gen1Int library)
  Christof Haettig,         Ruhr-University Bochum,       Germany     (CC module)
  Kasper Hald,              Aarhus University,            Denmark     (CC module)
  Asger Halkier,            Aarhus University,            Denmark     (CC module)
  Frederik Beyer Hansen,    University of Copenhagen,     Denmark     (Parallel AO-SOPPA)
  Erik D. Hedegaard,        Univ. of Southern Denmark,    Denmark     (Polarizable embedding model, QM/MM)
  Hanne Heiberg,            University of Oslo,           Norway      (geometry analysis, selected one-electron integrals)
  Trygve Helgaker,          University of Oslo,           Norway      (DALTON; ABACUS, ERI, DFT modules, London, and much more)
  Alf Christian Hennum,     University of Oslo,           Norway      (Parity violation)
  Hinne Hettema,            University of Auckland,       New Zealand (quadratic response in RESPONS; SIRIUS supersymmetry)
  Eirik Hjertenaes,         NTNU,                         Norway      (Cholesky decomposition)
  Pi A. B. Haase,           University of Copenhagen,     Denmark     (Triplet AO-SOPPA)
  Maria Francesca Iozzi,    University of Oslo,           Norway      (RPA)
  Brano Jansik              Technical Univ. of Ostrava    Czech Rep.  (DFT cubic response)
  Hans Joergen Aa. Jensen,  Univ. of Southern Denmark,    Denmark     (DALTON; SIRIUS, RESPONS, ABACUS modules, London, and much more)
  Dan Jonsson,              UiT The Arctic U. of Norway,  Norway      (cubic response in RESPONS module)
  Poul Joergensen,          Aarhus University,            Denmark     (RESPONS, ABACUS, and CC modules)
  Maciej Kaminski,          University of Warsaw,         Poland      (CPPh in RESPONS)
  Joanna Kauczor,           Linkoeping University,        Sweden      (Complex polarization propagator (CPP) module)
  Sheela Kirpekar,          Univ. of Southern Denmark,    Denmark     (Mass-velocity & Darwin integrals)
  Wim Klopper,              KIT Karlsruhe,                Germany     (R12 code in CC, SIRIUS, and ABACUS modules)
  Stefan Knecht,            ETH Zurich,                   Switzerland (Parallel CI and MCSCF)
  Rika Kobayashi,           Australian National Univ.,    Australia   (DIIS in CC, London in MCSCF)
  Henrik Koch,              NTNU,                         Norway      (CC module, Cholesky decomposition)
  Jacob Kongsted,           Univ. of Southern Denmark,    Denmark     (Polarizable embedding model, QM/MM)
  Andrea Ligabue,           University of Modena,         Italy       (CTOCD, AOSOPPA)
  Nanna H. List             Univ. of Southern Denmark,    Denmark     (Polarizable embedding model)
  Ola B. Lutnaes,           University of Oslo,           Norway      (DFT Hessian)
  Juan I. Melo,             University of Buenos Aires,   Argentina   (LRESC, Relativistic Effects on NMR Shieldings)
  Kurt V. Mikkelsen,        University of Copenhagen,     Denmark     (MC-SCRF and QM/MM)
  Rolf H. Myhre,            NTNU,                         Norway      (Cholesky, subsystems and ECC2)
  Christian Neiss,          Univ. Erlangen-Nuernberg,     Germany     (CCSD(R12))
  Christian B. Nielsen,     University of Copenhagen,     Denmark     (QM/MM)
  Patrick Norman,           Linkoeping University,        Sweden      (Cubic response and complex frequency response in RESPONS)
  Jeppe Olsen,              Aarhus University,            Denmark     (SIRIUS CI/density modules)
  Jogvan Magnus H. Olsen,   Univ. of Southern Denmark,    Denmark     (Polarizable embedding model, QM/MM)
  Anders Osted,             Copenhagen University,        Denmark     (QM/MM)
  Martin J. Packer,         University of Sheffield,      UK          (SOPPA)
  Filip Pawlowski,          Kazimierz Wielki University,  Poland      (CC3)
  Morten N. Pedersen,       Univ. of Southern Denmark,    Denmark     (Polarizable embedding model)
  Thomas B. Pedersen,       University of Oslo,           Norway      (Cholesky decomposition)
  Patricio F. Provasi,      University of Northeastern,   Argentina   (Analysis of coupling constants in localized orbitals)
  Zilvinas Rinkevicius,     KTH Stockholm,                Sweden      (open-shell DFT, ESR)
  Elias Rudberg,            KTH Stockholm,                Sweden      (DFT grid and basis info)
  Torgeir A. Ruden,         University of Oslo,           Norway      (Numerical derivatives in ABACUS)
  Kenneth Ruud,             UiT The Arctic U. of Norway,  Norway      (DALTON; ABACUS magnetic properties and much more)
  Pawel Salek,              KTH Stockholm,                Sweden      (DALTON; DFT code)
  Claire C. M. Samson       University of Karlsruhe       Germany     (Boys localization, r12 integrals in ERI)
  Alfredo Sanchez de Meras, University of Valencia,       Spain       (CC module, Cholesky decomposition)
  Trond Saue,               Paul Sabatier University,     France      (direct Fock matrix construction)
  Stephan P. A. Sauer,      University of Copenhagen,     Denmark     (SOPPA(CCSD), SOPPA prop., AOSOPPA, vibrational g-factors)
  Bernd Schimmelpfennig,    Forschungszentrum Karlsruhe,  Germany     (AMFI module)
  Kristian Sneskov,         Aarhus University,            Denmark     (Polarizable embedding model, QM/MM)
  Arnfinn H. Steindal,      UiT The Arctic U. of Norway,  Norway      (parallel QM/MM, Polarizable embedding model)
  Casper Steinmann,         Univ. of Southern Denmark,    Denmark     (QFIT, Polarizable embedding model)
  K. O. Sylvester-Hvid,     University of Copenhagen,     Denmark     (MC-SCRF)
  Peter R. Taylor,          VLSCI/Univ. of Melbourne,     Australia   (Symmetry handling ABACUS, integral transformation)
  Andrew M. Teale,          University of Nottingham,     England     (DFT-AC, DFT-D)
  David P. Tew,             University of Bristol,        England     (CCSD(R12))
  Olav Vahtras,             KTH Stockholm,                Sweden      (triplet response, spin-orbit, ESR, TDDFT, open-shell DFT)
  David J. Wilson,          La Trobe University,          Australia   (DFT Hessian and DFT magnetizabilities)
  Hans Agren,               KTH Stockholm,                Sweden      (SIRIUS module, RESPONS, MC-SCRF solvation model)
 --------------------------------------------------------------------------------

     Date and time (Linux)  : Fri Dec  7 13:40:56 2018
     Host name              : n-62-23-16                              

 * Work memory size             :  1280000000 =  9.537 gigabytes.

 * Directories for basis set searches:
   1) /zhome/d7/7/119775/My_Codes/dalton-private/build2016/basis/diffs
   2) /zhome/37/3/129401/NH3NH4/CCSD/AIMD_SAMPLING/nh4_4h2o_nd
   3) /zhome/9a/4/124800/source/dalton/build-mlcc/basis


Compilation information
-----------------------

 Who compiled             | rfaber
 Host                     | hpclogin1
 System                   | Linux-2.6.32-696.1.1.el6.x86_64
 CMake generator          | Unix Makefiles
 Processor                | x86_64
 64-bit integers          | ON
 MPI                      | OFF
 Fortran compiler         | /opt/intel/2016update2/compilers_and_libraries_201
                          | 6.2.181/linux/bin/intel64/ifort
 Fortran compiler version | ifort (IFORT) 16.0.2 20160204
 C compiler               | /opt/intel/2016update2/compilers_and_libraries_201
                          | 6.2.181/linux/bin/intel64/icc
 C compiler version       | icc (ICC) 16.0.2 20160204
 C++ compiler             | /opt/intel/2016update2/compilers_and_libraries_201
                          | 6.2.181/linux/bin/intel64/icpc
 C++ compiler version     | icpc (ICC) 16.0.2 20160204
 Static linking           | OFF
 Last Git revision        | bb4d1599ca5680a9f3980451fc8bbefdba436d59
 Git branch               | mlcc
 Configuration time       | 2017-06-13 16:11:03.928841


   Content of the .dal input file
 ----------------------------------

**DALTON
.RUN WAVE FUNCTIONS
*QMMM
.QMMM
**INTEGRALS
.DIPLEN
**WAVE FUNCTIONS
.CC
*PRINT
!To check the origin of excit
.PRINTL
   0 11
*SCF INP
.THRESH
1.0D-7
!*ORBITAL INPUT
!.MOSTART
!NEWORB
*CC INP
!.RESTART
.CCSD
.THRLEQ
 1.0D-9
.THRENR
 1.0D-10
.FROIMP
4
0
.PRINT
 1
.MAX IT
 1200
.MAXRED
 1200
.MXLRV
1199
*CCSLV
.CCMM
.MXSLIT
200
.MXINIT
4 5
*CCEXCI
.NCCEXC
 1
.IONISATION
1
1
.CVSEPARA
1
1
*CCLRSD
.DIPOLE
**END OF DALTON INPUT


   Content of the .mol file
 ----------------------------

ATOMBASIS


Atomtypes=5 Charge=1 Nosymm Angstrom
   7.00000    1    Basis=6-311G**
N          0.000000        0.000000        0.000000
   1.00000    4    Basis=6-311G**
H         -0.133658        0.892819       -0.512840
H          0.748795       -0.557933       -0.437896
H         -0.994248       -0.447092        0.057229
H          0.267225        0.275129        0.976728
   8.00000    4    Basis=6-311G**
O         -0.575091        2.952722       -1.046977
O         -2.529601       -0.831729       -0.071824
O          1.118254        1.284723        2.493520
O          1.725081       -1.243696       -1.775291
   1.00000    8    Basis=6-311G**
H         -1.178508        2.722086       -1.822991
H          0.375989        2.811009       -1.304345
H         -2.785115       -1.718563        0.424668
H         -3.297439       -0.201373        0.133885
H          1.367650        2.165450        2.131504
H          0.524397        1.380437        3.271024
H          2.227938       -2.082987       -1.737847
H          2.515466       -0.632749       -1.930919
   0.00000    1    Basis=diffs
X          0.000000        0.000000        0.000000


       *******************************************************************
       *********** Output from DALTON general input processing ***********
       *******************************************************************

 --------------------------------------------------------------------------------
   Overall default print level:    0
   Print level for DALTON.STAT:    1

    HERMIT 1- and 2-electron integral sections will be executed
    "Old" integral transformation used (limited to max 255 basis functions)
    Wave function sections will be executed (SIRIUS module)
 --------------------------------------------------------------------------------


 Changes of defaults for *QMMM  :
 --------------------------------

 +------------------+
 |  WORD: | CHANGE: |
 +------------------+
 |   QMMM |       T |
 +------------------+
 


   ****************************************************************************
   *************** Output of molecule and basis set information ***************
   ****************************************************************************


    The two title cards from your ".mol" input:
    ------------------------------------------------------------------------
 1:                                                                         
 2:                                                                         
    ------------------------------------------------------------------------

  Coordinates are entered in Angstrom and converted to atomic units.
          - Conversion factor : 1 bohr = 0.52917721 A

  Atomic type no.    1
  --------------------
  Nuclear charge:   7.00000
  Number of symmetry independent centers:    1
  Number of basis sets to read;    2
  The basis set is "6-311G**" from the basis set library.
  Basis set file used for this atomic type with Z =   7 :
     "/zhome/9a/4/124800/source/dalton/build-mlcc/basis/6-311G**"

  Info about the basis set file: your basis has no documentation.
  Basis set: 6-311G**                                                                        

  Atomic type no.    2
  --------------------
  Nuclear charge:   1.00000
  Number of symmetry independent centers:    4
  Number of basis sets to read;    2
  The basis set is "6-311G**" from the basis set library.
  Basis set file used for this atomic type with Z =   1 :
     "/zhome/9a/4/124800/source/dalton/build-mlcc/basis/6-311G**"

  Info about the basis set file: your basis has no documentation.
  Basis set: 6-311G**                                                                        

  Atomic type no.    3
  --------------------
  Nuclear charge:   8.00000
  Number of symmetry independent centers:    4
  Number of basis sets to read;    2
  The basis set is "6-311G**" from the basis set library.
  Basis set file used for this atomic type with Z =   8 :
     "/zhome/9a/4/124800/source/dalton/build-mlcc/basis/6-311G**"

  Info about the basis set file: your basis has no documentation.
  Basis set: 6-311G**                                                                        

  Atomic type no.    4
  --------------------
  Nuclear charge:   1.00000
  Number of symmetry independent centers:    8
  Number of basis sets to read;    2
  The basis set is "6-311G**" from the basis set library.
  Basis set file used for this atomic type with Z =   1 :
     "/zhome/9a/4/124800/source/dalton/build-mlcc/basis/6-311G**"

  Info about the basis set file: your basis has no documentation.
  Basis set: 6-311G**                                                                        

  Atomic type no.    5
  --------------------
  Nuclear charge:   0.00000
  Number of symmetry independent centers:    1
  Number of basis sets to read;    2
  The basis set is "diffs" from the basis set library.
  Basis set file used for this atomic type with Z =   0 :
     "/zhome/9a/4/124800/source/dalton/build-mlcc/basis/diffs"

  Info about the basis set file: your basis has no documentation.
  Basis set: diffs                                                                           


                         SYMGRP: Point group information
                         -------------------------------

@    Point group: C1 


                                 Isotopic Masses
                                 ---------------

                           N          14.003074
                           H           1.007825
                           H           1.007825
                           H           1.007825
                           H           1.007825
                           O          15.994915
                           O          15.994915
                           O          15.994915
                           O          15.994915
                           H           1.007825
                           H           1.007825
                           H           1.007825
                           H           1.007825
                           H           1.007825
                           H           1.007825
                           H           1.007825
                           H           1.007825

                       Total mass:    90.076634 amu
                       Natural abundance:  98.500 %

 Center-of-mass coordinates (a.u.):   -0.095344    0.822876   -0.150311


  Atoms and basis sets
  --------------------

  Number of atom types :    5
  Total number of atoms:   18

  label    atoms   charge   prim   cont     basis
  ----------------------------------------------------------------------
  N           1    7.0000    31    18      [11s5p1d|4s3p1d]                                   
  H           4    1.0000     8     6      [5s1p|3s1p]                                        
  O           4    8.0000    31    18      [11s5p1d|4s3p1d]                                   
  H           8    1.0000     8     6      [5s1p|3s1p]                                        
  X           1    0.0000     1     1      [1s|1s]                                            
  ----------------------------------------------------------------------
  total:     18   51.0000   252   163
  ----------------------------------------------------------------------
  Spherical harmonic basis used.

  Threshold for neglecting AO integrals:  1.00D-12


  Cartesian Coordinates (a.u.)
  ----------------------------

  Total number of coordinates:   54
  N       :     1  x   0.0000000000    2  y   0.0000000000    3  z   0.0000000000
  H       :     4  x  -0.2525770144    5  y   1.6871833892    6  z  -0.9691271459
  H       :     7  x   1.4150174738    8  y  -1.0543405661    9  z  -0.8275035112
  H       :    10  x  -1.8788564203   11  y  -0.8448814327   12  z   0.1081471364
  H       :    13  x   0.5049820638   14  y   0.5199184590   15  z   1.8457484186
  O       :    16  x  -1.0867644869   17  y   5.5798359032   18  z  -1.9784997892
  O       :    19  x  -4.7802530955   20  y  -1.5717400202   21  z  -0.1357276892
  O       :    22  x   2.1131937982   23  y   2.4277746165   24  z   4.7120698872
  O       :    25  x   3.2599306334   26  y  -2.3502448228   27  z  -3.3548137822
  H       :    28  x  -2.2270573561   29  y   5.1439970287   30  z  -3.4449537183
  H       :    31  x   0.7105162360   32  y   5.3120371449   33  z  -2.4648548225
  H       :    34  x  -5.2631045766   35  y  -3.2476133985   36  z   0.8025062140
  H       :    37  x  -6.2312566239   38  y  -0.3805398190   39  z   0.2530059822
  H       :    40  x   2.5844839348   41  y   4.0921074374   42  z   4.0279587943
  H       :    43  x   0.9909667108   44  y   2.6086478628   45  z   6.1813395083
  H       :    46  x   4.2101926435   47  y  -3.9362749519   48  z  -3.2840548771
  H       :    49  x   4.7535418167   50  y  -1.1957223159   51  z  -3.6489080795
  X       :    52  x   0.0000000000   53  y   0.0000000000   54  z   0.0000000000

  Max    interatomic separation is    6.3235 Angstrom (   11.9496 Bohr)
  between atoms   16 and   15, "H     " and "H     ".

  Min HX interatomic separation is    0.9791 Angstrom (    1.8503 Bohr)

  Min YX interatomic separation is    2.6638 Angstrom (    5.0338 Bohr)


  Bond distances (Angstrom):
  --------------------------

                  atom 1     atom 2       distance
                  ------     ------       --------
  bond distance:  H          N            1.038265
  bond distance:  H          N            1.031376
  bond distance:  H          N            1.091648
  bond distance:  H          N            1.049334
  bond distance:  H          O            1.009704
  bond distance:  H          O            0.995427
  bond distance:  H          O            1.047982
  bond distance:  H          O            1.014515
  bond distance:  H          O            0.984344
  bond distance:  H          O            0.983026
  bond distance:  H          O            0.979120
  bond distance:  H          O            1.011032


  Bond angles (degrees):
  ----------------------

                  atom 1     atom 2     atom 3         angle
                  ------     ------     ------         -----
  bond angle:     H          N          H            110.422
  bond angle:     H          N          H            105.119
  bond angle:     H          N          H            105.491
  bond angle:     H          N          H            117.513
  bond angle:     H          N          H            110.619
  bond angle:     H          N          H            106.889
  bond angle:     H          O          H            109.863
  bond angle:     H          O          H            104.194
  bond angle:     H          O          H            110.905
  bond angle:     H          O          H             97.029




 Principal moments of inertia (u*A**2) and principal axes
 --------------------------------------------------------

   IA     369.390344          0.014818    0.778618    0.627324
   IB     411.276548          0.996689   -0.061666    0.052995
   IC     463.580973         -0.079947   -0.624461    0.776953


 Rotational constants
 --------------------

               A                   B                   C

           1368.1435           1228.8058           1090.1634 MHz
            0.045636            0.040989            0.036364 cm-1


@  Nuclear repulsion energy :  196.752685221565 Hartree

  Number of floating/multiple basis set orbitals :    1


                     .---------------------------------------.
                     | Starting in Integral Section (HERMIT) |
                     `---------------------------------------'



 ***************************************************************************************
 ****************** Output from **INTEGRALS input processing (HERMIT) ******************
 ***************************************************************************************



    *************************************************************************
    ****************** Output from HERMIT input processing ******************
    *************************************************************************


 Default print level:        1

 * Nuclear model: Point charge

 Calculation of one- and two-electron Hamiltonian integrals.

 The following one-electron property integrals are calculated as requested:
          - overlap integrals
          - dipole length integrals

 Center of mass  (bohr):     -0.095344101517      0.822875631869     -0.150310965458
 Operator center (bohr):      0.000000000000      0.000000000000      0.000000000000
 Gauge origin    (bohr):      0.000000000000      0.000000000000      0.000000000000
 Dipole origin   (bohr):      0.000000000000      0.000000000000      0.000000000000
 
  *********************************** 
  QMMM electrostatic potential: 
  Multipole order                                    0
  Isotropic polarization  
  *********************************** 
 
  ---------------- 
  QMMM information 
  ---------------- 
 
  MM coordinates in au 
  -------------------- 
     1     10.069891      4.996217     -5.280626
     2     11.421701      5.539687     -6.390218
     3     10.934545      3.695958     -4.114984
     4      3.747820      4.782470     -3.318508
     5      4.615269      6.523423     -3.443521
     6      4.907692      3.706375     -2.155888
     7      3.480195    -11.556569     -1.956679
     8      3.086675    -11.500665     -0.097311
     9      4.829284    -12.728530     -2.013335
    10     10.421405     -8.769359    -10.455441
    11     10.682962     -7.192702     -9.583336
    12     10.583375     -8.396102    -12.272686
    13      4.124116      6.922656      2.110667
    14      5.722720      6.857476      3.122990
    15      4.265341      5.785557      0.647777
    16      7.529013      8.945242     -3.543461
    17      8.741915      7.554477     -4.132587
    18      7.506865     10.059740     -5.070587
    19     -4.644756     -6.704200      7.766070
    20     -4.270773     -8.465100      7.034893
    21     -5.103334     -6.975512      9.661081
    22      4.566638     -0.569412    -10.794427
    23      3.149491     -1.367701     -9.744274
    24      5.518238     -2.011438    -11.400867
    25      9.401694     -7.918761      7.995157
    26     10.820572     -7.842437      6.764486
    27      9.175754     -9.766668      8.260994
    28     -3.021940      7.001205    -11.004720
    29     -2.143463      8.549958    -11.477956
    30     -1.627646      5.808854    -10.394276
    31     -8.587728      2.154282      2.043310
    32    -10.400969      2.045918      2.729845
    33     -7.965872      3.803287      2.617318
    34      6.641161    -10.759169     -7.239104
    35      7.947634    -10.179524     -8.412505
    36      6.207709     -9.306164     -6.106187
    37      0.896832     -2.069025     -7.866217
    38      0.669645     -3.801099     -8.652772
    39      1.508806     -2.266152     -6.115528
    40    -11.438936      0.926691     -2.687364
    41    -10.133654      0.204438     -3.826597
    42    -10.530947      1.455749     -1.136124
    43      9.851741     -4.289873     -6.844677
    44      8.532272     -3.296015     -6.022508
    45     10.219977     -3.502607     -8.565766
    46      8.806351      7.179079      4.668825
    47      9.448330      8.577605      3.368350
    48      9.078263      7.756702      6.424610
    49      6.859659      6.454704    -10.781628
    50      5.102625      5.837351    -10.804405
    51      7.090549      6.801036     -8.993390
    52     -3.282422      8.262278      2.129825
    53     -1.860169      9.237431      2.907253
    54     -2.466522      6.954177      1.163045
    55      9.601281      2.622681      3.874507
    56      9.768482      1.411467      5.283032
    57      9.329094      4.255797      4.763654
    58     -1.310313    -10.145915     -4.750607
    59      0.136742    -11.057379     -3.867825
    60     -2.463575    -11.570837     -5.401480
    61    -10.698994     -2.144977      6.780944
    62    -11.170817     -3.520707      5.638667
    63     -8.826136     -1.791691      6.555074
    64     -2.235548     -3.041945      5.823616
    65     -0.904674     -2.322112      6.930523
    66     -3.124471     -4.393447      6.679146
    67     -7.187502      4.196377      9.822706
    68     -7.290529      2.571220      8.843113
    69     -5.470659      4.551713     10.354983
    70    -10.077103     -6.852480     -3.870698
    71     -9.371422     -8.037546     -5.188672
    72    -10.786400     -5.356897     -4.712915
    73     -5.317211      9.826995     -5.581958
    74     -6.426662      9.217415     -4.193452
    75     -5.354499      8.431406     -6.794250
    76      8.906676     -3.909475      2.337075
    77      7.578248     -3.516219      3.630608
    78      8.613821     -2.705831      1.022200
    79     -5.730999     -6.389599    -10.710291
    80     -6.881538     -7.755623    -10.001922
    81     -4.087001     -6.834580    -10.048881
    82      4.344732     -9.620354      3.007805
    83      5.931393     -9.305336      3.732249
    84      3.950299     -7.765892      2.896880
    85     -7.109862     -1.016064     -5.470381
    86     -6.975446     -1.499271     -7.192655
    87     -6.046298     -2.150486     -4.625838
    88      3.233582     -9.090964    -11.121817
    89      2.852007    -10.686445    -12.192481
    90      4.345801     -9.616777     -9.652721
    91     -2.780441      0.938020    -10.115371
    92     -4.477194      0.476536    -10.731133
    93     -2.044636     -0.520043     -9.100135
    94      0.254601      0.540596      8.907158
    95     -1.174278      0.919329     10.051257
    96      1.857338      0.493969      9.793712
    97     -7.277912      6.406412      4.549357
    98     -7.183722      5.735247      6.344614
    99     -5.553166      7.138011      3.982158
   100     -9.974307     -7.485919      4.788768
   101     -9.123766     -7.088926      3.162485
   102     -8.970537     -6.414985      6.056325
   103     -8.307444    -10.086241     -7.726671
   104     -9.433698    -10.824716     -8.915085
   105     -7.286281    -11.560842     -6.967352
   106      5.421142     -5.014407      9.451968
   107      6.877345     -5.693545      8.398791
   108      4.523271     -6.437560     10.374982
   109     -9.288302      9.814550     11.112667
   110     -8.508254      8.362114     12.031491
   111     -8.057632     10.538878      9.986879
   112     -7.130834     -6.108058      0.634162
   113     -6.197754     -7.789710      0.420509
   114     -8.128202     -6.163204     -0.818418
   115     10.548181      3.429129     10.371945
   116      9.320766      4.317656     11.415110
   117     11.952656      4.532986      9.784643
   118      4.993569     -2.137044      5.103394
   119      4.565467     -2.980053      6.697016
   120      4.320322     -0.347192      5.211978
   121      1.700377     10.097275     10.148685
   122      1.006791     11.002938      8.656091
   123      3.004659      8.983605      9.443721
   124      7.145349      1.394247     -0.638639
   125      7.887590      1.842999      1.118213
   126      8.745558      1.601231     -1.644838
   127     -9.188663      5.856571     -8.354581
   128     -9.696954      4.570512     -9.672548
   129     -7.744818      4.995790     -7.615662
   130     11.071104     -2.029360     11.676954
   131     10.639432     -0.265750     11.334396
   132     11.800404     -2.544165     10.133791
   133      7.073568      0.427020     -6.578743
   134      6.251520      0.559915     -8.363206
   135      8.191390      1.930026     -6.316205
   136      0.544710     10.841824      4.596534
   137      1.837985     12.066143      3.889807
   138      1.291698      9.217612      4.319521
   139     -4.555633      3.946294     -6.063908
   140     -3.627460      3.370961     -7.688479
   141     -5.407695      2.219833     -5.734892
   142     -6.382609     -0.139821      6.630293
   143     -4.711567     -0.979802      6.534344
   144     -6.592880      0.624076      4.980785
   145     -0.598728     -6.780810     -9.055915
   146     -0.626888     -7.534113     -7.336591
   147      0.952048     -7.515815     -9.775151
   148     -7.578533     -1.744943    -10.683816
   149     -7.002739     -3.488219    -10.746050
   150     -9.480208     -1.627757    -10.900156
   151      1.603317      4.215068     -8.778301
   152      1.508553      4.170985     -6.843033
   153      1.811909      2.511720     -9.056248
   154      9.566633     10.256298      9.282989
   155     11.236907     10.209236     10.159383
   156      8.284053      9.402741     10.440879
   157      5.303371     -6.998981     -3.811835
   158      4.215616     -8.465529     -3.275396
   159      6.881232     -7.215982     -2.851568
   160      1.762634     -5.061579      2.243732
   161      2.824283     -3.773029      3.204679
   162      0.005176     -4.820090      2.835731
   163      9.327051     -8.520877     -0.217540
   164     10.877224     -8.435683     -1.321555
   165      9.378594     -6.967108      0.950878
   166     -8.914171      7.696970     -2.619478
   167     -8.273671      6.601845     -1.274700
   168    -10.127515      8.708861     -1.599727
   169     -6.847402    -11.589377      6.058878
   170     -7.493395    -13.166725      5.389569
   171     -8.045314    -10.222863      5.643266
   172     10.286125      9.973555      0.789890
   173      8.974239      9.584458     -0.464744
   174      9.964558     11.897266      0.723376
   175     -5.036260    -10.634022     -0.744960
   176     -4.696425    -12.261437      0.181130
   177     -3.351648    -10.412408     -1.692293
 
  MM charges 
  ---------- 
     1     -0.674440
     2      0.337220
     3      0.337220
     4     -0.674440
     5      0.337220
     6      0.337220
     7     -0.674440
     8      0.337220
     9      0.337220
    10     -0.674440
    11      0.337220
    12      0.337220
    13     -0.674440
    14      0.337220
    15      0.337220
    16     -0.674440
    17      0.337220
    18      0.337220
    19     -0.674440
    20      0.337220
    21      0.337220
    22     -0.674440
    23      0.337220
    24      0.337220
    25     -0.674440
    26      0.337220
    27      0.337220
    28     -0.674440
    29      0.337220
    30      0.337220
    31     -0.674440
    32      0.337220
    33      0.337220
    34     -0.674440
    35      0.337220
    36      0.337220
    37     -0.674440
    38      0.337220
    39      0.337220
    40     -0.674440
    41      0.337220
    42      0.337220
    43     -0.674440
    44      0.337220
    45      0.337220
    46     -0.674440
    47      0.337220
    48      0.337220
    49     -0.674440
    50      0.337220
    51      0.337220
    52     -0.674440
    53      0.337220
    54      0.337220
    55     -0.674440
    56      0.337220
    57      0.337220
    58     -0.674440
    59      0.337220
    60      0.337220
    61     -0.674440
    62      0.337220
    63      0.337220
    64     -0.674440
    65      0.337220
    66      0.337220
    67     -0.674440
    68      0.337220
    69      0.337220
    70     -0.674440
    71      0.337220
    72      0.337220
    73     -0.674440
    74      0.337220
    75      0.337220
    76     -0.674440
    77      0.337220
    78      0.337220
    79     -0.674440
    80      0.337220
    81      0.337220
    82     -0.674440
    83      0.337220
    84      0.337220
    85     -0.674440
    86      0.337220
    87      0.337220
    88     -0.674440
    89      0.337220
    90      0.337220
    91     -0.674440
    92      0.337220
    93      0.337220
    94     -0.674440
    95      0.337220
    96      0.337220
    97     -0.674440
    98      0.337220
    99      0.337220
   100     -0.674440
   101      0.337220
   102      0.337220
   103     -0.674440
   104      0.337220
   105      0.337220
   106     -0.674440
   107      0.337220
   108      0.337220
   109     -0.674440
   110      0.337220
   111      0.337220
   112     -0.674440
   113      0.337220
   114      0.337220
   115     -0.674440
   116      0.337220
   117      0.337220
   118     -0.674440
   119      0.337220
   120      0.337220
   121     -0.674440
   122      0.337220
   123      0.337220
   124     -0.674440
   125      0.337220
   126      0.337220
   127     -0.674440
   128      0.337220
   129      0.337220
   130     -0.674440
   131      0.337220
   132      0.337220
   133     -0.674440
   134      0.337220
   135      0.337220
   136     -0.674440
   137      0.337220
   138      0.337220
   139     -0.674440
   140      0.337220
   141      0.337220
   142     -0.674440
   143      0.337220
   144      0.337220
   145     -0.674440
   146      0.337220
   147      0.337220
   148     -0.674440
   149      0.337220
   150      0.337220
   151     -0.674440
   152      0.337220
   153      0.337220
   154     -0.674440
   155      0.337220
   156      0.337220
   157     -0.674440
   158      0.337220
   159      0.337220
   160     -0.674440
   161      0.337220
   162      0.337220
   163     -0.674440
   164      0.337220
   165      0.337220
   166     -0.674440
   167      0.337220
   168      0.337220
   169     -0.674440
   170      0.337220
   171      0.337220
   172     -0.674440
   173      0.337220
   174      0.337220
   175     -0.674440
   176      0.337220
   177      0.337220
 
  MM isotropic polarizabilities in au 
  ----------------------------------- 
     1      5.739350
     2      2.308390
     3      2.308390
     4      5.739350
     5      2.308390
     6      2.308390
     7      5.739350
     8      2.308390
     9      2.308390
    10      5.739350
    11      2.308390
    12      2.308390
    13      5.739350
    14      2.308390
    15      2.308390
    16      5.739350
    17      2.308390
    18      2.308390
    19      5.739350
    20      2.308390
    21      2.308390
    22      5.739350
    23      2.308390
    24      2.308390
    25      5.739350
    26      2.308390
    27      2.308390
    28      5.739350
    29      2.308390
    30      2.308390
    31      5.739350
    32      2.308390
    33      2.308390
    34      5.739350
    35      2.308390
    36      2.308390
    37      5.739350
    38      2.308390
    39      2.308390
    40      5.739350
    41      2.308390
    42      2.308390
    43      5.739350
    44      2.308390
    45      2.308390
    46      5.739350
    47      2.308390
    48      2.308390
    49      5.739350
    50      2.308390
    51      2.308390
    52      5.739350
    53      2.308390
    54      2.308390
    55      5.739350
    56      2.308390
    57      2.308390
    58      5.739350
    59      2.308390
    60      2.308390
    61      5.739350
    62      2.308390
    63      2.308390
    64      5.739350
    65      2.308390
    66      2.308390
    67      5.739350
    68      2.308390
    69      2.308390
    70      5.739350
    71      2.308390
    72      2.308390
    73      5.739350
    74      2.308390
    75      2.308390
    76      5.739350
    77      2.308390
    78      2.308390
    79      5.739350
    80      2.308390
    81      2.308390
    82      5.739350
    83      2.308390
    84      2.308390
    85      5.739350
    86      2.308390
    87      2.308390
    88      5.739350
    89      2.308390
    90      2.308390
    91      5.739350
    92      2.308390
    93      2.308390
    94      5.739350
    95      2.308390
    96      2.308390
    97      5.739350
    98      2.308390
    99      2.308390
   100      5.739350
   101      2.308390
   102      2.308390
   103      5.739350
   104      2.308390
   105      2.308390
   106      5.739350
   107      2.308390
   108      2.308390
   109      5.739350
   110      2.308390
   111      2.308390
   112      5.739350
   113      2.308390
   114      2.308390
   115      5.739350
   116      2.308390
   117      2.308390
   118      5.739350
   119      2.308390
   120      2.308390
   121      5.739350
   122      2.308390
   123      2.308390
   124      5.739350
   125      2.308390
   126      2.308390
   127      5.739350
   128      2.308390
   129      2.308390
   130      5.739350
   131      2.308390
   132      2.308390
   133      5.739350
   134      2.308390
   135      2.308390
   136      5.739350
   137      2.308390
   138      2.308390
   139      5.739350
   140      2.308390
   141      2.308390
   142      5.739350
   143      2.308390
   144      2.308390
   145      5.739350
   146      2.308390
   147      2.308390
   148      5.739350
   149      2.308390
   150      2.308390
   151      5.739350
   152      2.308390
   153      2.308390
   154      5.739350
   155      2.308390
   156      2.308390
   157      5.739350
   158      2.308390
   159      2.308390
   160      5.739350
   161      2.308390
   162      2.308390
   163      5.739350
   164      2.308390
   165      2.308390
   166      5.739350
   167      2.308390
   168      2.308390
   169      5.739350
   170      2.308390
   171      2.308390
   172      5.739350
   173      2.308390
   174      2.308390
   175      5.739350
   176      2.308390
   177      2.308390


     ************************************************************************
     ************************** Output from HERINT **************************
     ************************************************************************



                      Nuclear contribution to dipole moments
                      --------------------------------------

                 au               Debye          C m (/(10**-30)

      x     -4.63429632       -11.77920556       -39.29120044
      y     41.38952425       105.20167045       350.91500015
      z     -7.47646709       -19.00328261       -63.38812771



 Threshold for neglecting two-electron integrals:  1.00D-12
 HERMIT - Number of two-electron integrals written:    36858245 ( 41.3% )
 HERMIT - Megabytes written:                            422.048

  Time used in TWOINT     is       7.18 seconds
  Total CPU  time used in HERMIT:   7.35 seconds
  Total wall time used in HERMIT:  12.70 seconds


                        .----------------------------------.
                        | End of Integral Section (HERMIT) |
                        `----------------------------------'



                   .--------------------------------------------.
                   | Starting in Wave Function Section (SIRIUS) |
                   `--------------------------------------------'

NCCEXCI for singlet:    1
 CCSD_INPUT: core-val requested
 Requested number of virtual orbs per sym
                     1
 Indices of requested virtual orbs
                     1
 CCSD_INPUT: core-val requested
 Requested number of core orbs per sym
                     1
 Indices of requested core orbs
                     1

 *** Output from Huckel module :

     Using EWMO model:          T
     Using EHT  model:          F
     Number of Huckel orbitals each symmetry:   37

 EWMO - Energy Weighted Maximum Overlap - is a Huckel type method,
        which normally is better than Extended Huckel Theory.
 Reference: Linderberg and Ohrn, Propagators in Quantum Chemistry (Wiley, 1973)

 Huckel EWMO eigenvalues for symmetry :  1
          -20.684609     -20.684506     -20.684320     -20.684131     -15.675166
           -1.793585      -1.611343      -1.600620      -1.585624      -1.477038
           -0.826939      -0.805502      -0.786668      -0.784248      -0.779443
           -0.757679      -0.727852      -0.683452      -0.675326      -0.661991
           -0.644728      -0.613725      -0.581599      -0.567648      -0.552341
           -0.266399      -0.250203      -0.242836      -0.240968      -0.191757
           -0.183164      -0.180975      -0.176942      -0.175013      -0.150209
           -0.149048      -0.138204

 **********************************************************************
 *SIRIUS* a direct, restricted step, second order MCSCF program       *
 **********************************************************************

 
     Date and time (Linux)  : Fri Dec  7 13:41:12 2018
     Host name              : n-62-23-16                              

 Title lines from ".mol" input file:
                                                                             
                                                                             

 Print level on unit LUPRI =   2 is   0
 Print level on unit LUW4  =   2 is  11

@    (Integral direct) CC calculation.

@    This is a combination run starting with
@              a restricted, closed shell Hartree-Fock calculation


 Initial molecular orbitals are obtained according to
 ".MOSTART EWMO  " input option

@    QM part is embedded in an environment :

@         Model: QMMM

     Wave function specification
     ============================

     For the specification of the Coupled Cluster: see later.

@    Wave function type        --- CC ---
@    Number of closed shell electrons          50
@    Number of electrons in active shells       0
@    Total charge of the molecule               1

@    Spin multiplicity and 2 M_S                1         0
@    Total number of symmetries                 1 (point group: C1 )
@    Reference state symmetry                   1 (irrep name : A  )

     Orbital specifications
     ======================
@    Abelian symmetry species          All |    1
@                                          |  A  
                                       --- |  ---
@    Occupied SCF orbitals              25 |   25
@    Secondary orbitals                138 |  138
@    Total number of orbitals          163 |  163
@    Number of basis functions         163 |  163

     Optimization information
     ========================
@    Number of configurations                 1
@    Number of orbital rotations           3450
     ------------------------------------------
@    Total number of variables             3451

     Maximum number of Fock   iterations      0
     Maximum number of DIIS   iterations     60
     Maximum number of QC-SCF iterations     60
     Threshold for SCF convergence     1.00D-07


 Changes of defaults for CC:
 ---------------------------


 -Implicit frozen core calculation
 -Excitation energies calculated
 -One-photon absorption strengths will be calculated
 -Oscillator strengths calculated
  
* Read MO coefficients from SIRIUS.RST with label "NEWORB  " and header info:  7Dec18  REORTHO 


 ***********************************************
 ***** DIIS acceleration of SCF iterations *****
 ***********************************************

 C1-DIIS algorithm; max error vectors =    8
 -----------------------------------------------------------------------------

 *** DIIS iteration number    1
 RDSUPM called. NFMAT, ISYMDM(1:NFMAT)                     1
                     1

Calculating AOSUPINT
     (Precalculated two-electron integrals are transformed to P-supermatrix elements.
      Threshold for discarding integrals :  1.00D-12 )
  CPU  time used in FORMSUP    is   2.78 seconds
  WALL time used in FORMSUP    is  1 minute   1 second 

 ITDIIS, energy, error norm, change in energy, scr.thr., difden:
@ DIIS iter.   1    -360.234495639        3.93161D+00   -3.60D+02  -20    F

 (DIIS_RED) Control Parameters C2DIIS =         F NEVC =    1


 (DIIS_RED) B matrix:

               Column   1
       1      15.45756918
    ==== End of matrix output ====

 DIIS C vector; C2DIIS = F, LAMBDA = -1.55D+01
    1.000000
* Read MO coefficients from SIRIUS.RST with label "NEWORB  " and header info:  7Dec18  DIIS   1
      Virial theorem: -V/T =      2.003279
@      MULPOP N       0.10; H       0.16; H       0.17; H       0.19; H       0.15; O      -0.62; O      -0.54; O      -0.60; O      -0.58; H       0.33; 
@             H       0.34; H       0.31; H       0.31; H       0.33; H       0.32; H       0.32; H       0.32; 
   1  Level shift: doubly occupied orbital energies shifted by -2.00D-01

 DIIS Fock eigenvalues in symmetry 1
      -20.86510      -20.84453      -20.83129      -20.77337      -16.46163
       -1.73246       -1.68194       -1.66358       -1.62482       -1.59195
       -1.21841       -1.20359       -1.19183       -1.07139       -1.01827
       -0.99344       -0.97847       -0.92880       -0.92191       -0.89191
       -0.88598       -0.87251       -0.84643       -0.84393       -0.80362
       -0.02430       -0.00005        0.03185        0.05805        0.06557
        0.10081        0.12621        0.15451        0.16869        0.17506
        0.18058        0.21323        0.21595        0.23473        0.24674
        0.27474        0.39964        0.42029        0.43273        0.44897
        0.47764        0.48836        0.50152        0.50435        0.53080
        0.67419        0.67913        0.72479        0.81284        0.82361
        0.86289        0.89272        0.91718        0.92721        0.94650
        0.97913        0.98145        1.00891        1.01564        1.03178
        1.04196        1.06404        1.11576        1.21429        1.24514
        1.28843        1.30916        1.31592        1.37206        1.38439
        1.39000        1.39837        1.40036        1.42296        1.48184
        1.49140        1.51420        1.56266        1.56820        1.58606
        1.64085        1.67343        1.70127        1.75034        1.77011
        1.82525        1.86961        1.94791        2.00537        2.03467
        2.03740        2.08035        2.09133        2.14145        2.15913
        2.16675        2.18071        2.19672        2.22242        2.22889
        2.35654        2.45353        2.47194        2.50534        2.52165
        2.53569        2.57064        2.58250        2.60545        2.64492
        2.67582        2.68463        2.72200        2.75483        2.91672
        3.00201        3.02560        3.06170        3.26916        3.31831
        3.33581        3.34940        3.36284        3.39154        3.42547
        3.43779        3.47182        3.50800        3.52329        3.54512
        3.81207        3.83948        3.87003        3.96189        4.02035
        4.06497        4.08549        4.11846        4.67262        4.69411
        4.81132        5.21877        5.23260        5.25299        5.40571
        5.61097        5.64159        5.72385        5.73414        5.87141
        5.88952        5.98486        6.01580       36.33853       51.41531
       51.43284       51.44146       51.48363
 Time used in FCKEIG, thr_jaco:   4.70D-02  1.19D-01  1.67D-04
 CPU and wall times used in FCKEIG, THR_FCKEIG:   4.70D-02  1.19D-01  3.93D-02
 -----------------------------------------------------------------------------

 *** DIIS iteration number    2
 RDSUPM called. NFMAT, ISYMDM(1:NFMAT)                     1
                     1

 ITDIIS, energy, error norm, change in energy, scr.thr., difden:
@ DIIS iter.   2    -361.109272748        1.13001D+00   -8.75D-01  -20    F

 (DIIS_RED) Control Parameters C2DIIS =         F NEVC =    2


 (DIIS_RED) B matrix:

               Column   1     Column   2
       1      15.45756918
       2       0.73262087     1.27691703
    ==== End of matrix output ====

 DIIS C vector; C2DIIS = F, LAMBDA = -1.26D+00
    0.035647    0.964353
* Read MO coefficients from SIRIUS.RST with label "NEWORB  " and header info:  7Dec18  DIIS   2
      Virial theorem: -V/T =      2.003000
@      MULPOP N      -0.56; H       0.29; H       0.34; H       0.37; H       0.31; O      -0.58; O      -0.57; O      -0.57; O      -0.57; H       0.33; 
@             H       0.31; H       0.34; H       0.32; H       0.30; H       0.31; H       0.32; H       0.30; 
   2  Level shift: doubly occupied orbital energies shifted by -1.00D-01

 DIIS Fock eigenvalues in symmetry 1
      -20.80683      -20.79281      -20.78431      -20.74462      -15.64607
       -1.57075       -1.55287       -1.52321       -1.49269       -1.38778
       -0.94485       -0.90926       -0.88938       -0.88449       -0.87452
       -0.86671       -0.85626       -0.81572       -0.80374       -0.76493
       -0.74985       -0.74635       -0.73809       -0.71101       -0.68316
       -0.00005        0.03518        0.07713        0.09821        0.11403
        0.14776        0.16967        0.18609        0.19521        0.22893
        0.24377        0.26088        0.28968        0.33491        0.34055
        0.36548        0.43841        0.46082        0.47710        0.49910
        0.51120        0.52569        0.54208        0.55317        0.60066
        0.80394        0.82741        0.84271        0.86413        0.89108
        0.90440        0.92092        0.96452        0.97364        0.98609
        1.01218        1.02712        1.03963        1.05324        1.08810
        1.16040        1.16696        1.18063        1.24548        1.31024
        1.33774        1.36171        1.37167        1.41892        1.44516
        1.44730        1.45204        1.45626        1.47497        1.54513
        1.57379        1.59800        1.64579        1.67016        1.68959
        1.70512        1.75136        1.76694        1.80151        1.82867
        1.88969        1.97223        2.04534        2.07387        2.08765
        2.11359        2.13238        2.18018        2.21089        2.22090
        2.25479        2.27550        2.28455        2.30568        2.34332
        2.46136        2.54315        2.56057        2.59750        2.62101
        2.63089        2.64372        2.67127        2.67823        2.73738
        2.76699        2.79440        2.90920        2.93430        3.12161
        3.18918        3.27573        3.30623        3.31194        3.34483
        3.35668        3.38379        3.39027        3.43936        3.46385
        3.47316        3.50274        3.53637        3.56689        3.61108
        3.83532        3.85763        3.89807        3.98037        4.04816
        4.08370        4.09906        4.14150        5.03755        5.06845
        5.18357        5.22881        5.23692        5.27008        5.40312
        5.60054        5.64996        5.73448        5.73982        5.88088
        5.90598        6.00725        6.01945       37.03785       51.37527
       51.38690       51.39122       51.41522
 Time used in FCKEIG, thr_jaco:   3.10D-02  6.70D-02  4.81D-05
 CPU and wall times used in FCKEIG, THR_FCKEIG:   3.10D-02  6.70D-02  1.13D-02
 -----------------------------------------------------------------------------

 *** DIIS iteration number    3
 RDSUPM called. NFMAT, ISYMDM(1:NFMAT)                     1
                     1

 ITDIIS, energy, error norm, change in energy, scr.thr., difden:
@ DIIS iter.   3    -361.183804462        3.77298D-01   -7.45D-02  -20    F

 (DIIS_RED) Control Parameters C2DIIS =         F NEVC =    3


 (DIIS_RED) B matrix:

               Column   1     Column   2     Column   3
       1      15.45756918
       2       0.73262087     1.27691703
       3       0.80707982    -0.00928494     0.14235378
    ==== End of matrix output ====

 DIIS C vector; C2DIIS = F, LAMBDA = -9.40D-02
   -0.048125    0.108046    0.940079
* Read MO coefficients from SIRIUS.RST with label "NEWORB  " and header info:  7Dec18  DIIS   3
      Virial theorem: -V/T =      2.003651
@      MULPOP N      -0.38; H       0.24; H       0.32; H       0.35; H       0.26; O      -0.64; O      -0.65; O      -0.63; O      -0.64; H       0.36; 
@             H       0.33; H       0.37; H       0.35; H       0.33; H       0.34; H       0.35; H       0.33; 
   3  Level shift: doubly occupied orbital energies shifted by -5.00D-02

 DIIS Fock eigenvalues in symmetry 1
      -20.72218      -20.70047      -20.68112      -20.65137      -15.80319
       -1.50423       -1.48436       -1.45005       -1.42419       -1.38796
       -0.88260       -0.87754       -0.85621       -0.84829       -0.81962
       -0.79995       -0.79241       -0.74774       -0.73984       -0.69618
       -0.68093       -0.67455       -0.66528       -0.63738       -0.60721
       -0.00005        0.04090        0.08285        0.10468        0.11951
        0.15327        0.17171        0.19191        0.20099        0.23423
        0.24464        0.26239        0.29206        0.33364        0.33990
        0.36621        0.44951        0.47178        0.48589        0.50851
        0.52270        0.53639        0.55246        0.56255        0.60159
        0.80084        0.81219        0.85055        0.87303        0.88456
        0.91877        0.92907        0.97772        0.98550        1.00070
        1.02603        1.04092        1.05377        1.06962        1.09970
        1.15624        1.16546        1.18044        1.25799        1.32214
        1.34810        1.37182        1.38667        1.43287        1.45905
        1.46124        1.46477        1.46875        1.48735        1.55481
        1.58072        1.60460        1.65416        1.67542        1.69680
        1.71398        1.75840        1.77803        1.81428        1.83957
        1.90030        1.97449        2.05138        2.08865        2.09934
        2.12134        2.14732        2.19616        2.21812        2.23809
        2.26233        2.29035        2.29984        2.30398        2.33916
        2.46786        2.55134        2.56984        2.60692        2.62907
        2.63829        2.65526        2.68118        2.68496        2.74880
        2.77694        2.80276        2.87977        2.90107        3.10860
        3.17324        3.25351        3.27354        3.32663        3.37032
        3.38756        3.39867        3.41476        3.46605        3.46983
        3.50167        3.52707        3.56323        3.59173        3.62121
        3.86138        3.88750        3.92193        4.00467        4.07367
        4.11661        4.12692        4.16882        4.96731        4.99346
        5.11150        5.25468        5.26760        5.29721        5.42980
        5.63151        5.67631        5.76861        5.77253        5.91928
        5.93766        6.03593        6.05191       36.83690       51.41095
       51.42943       51.44345       51.45857
 Time used in FCKEIG, thr_jaco:   2.70D-02  6.30D-02  1.61D-05
 CPU and wall times used in FCKEIG, THR_FCKEIG:   2.80D-02  6.30D-02  3.77D-03
 -----------------------------------------------------------------------------

 *** DIIS iteration number    4
 RDSUPM called. NFMAT, ISYMDM(1:NFMAT)                     1
                     1

 ITDIIS, energy, error norm, change in energy, scr.thr., difden:
@ DIIS iter.   4    -361.194090812        9.41550D-02   -1.03D-02  -20    F

 (DIIS_RED) Control Parameters C2DIIS =         F NEVC =    4


 (DIIS_RED) B matrix:

               Column   1     Column   2     Column   3     Column   4
       1      15.45756918
       2       0.73262087     1.27691703
       3       0.80707982    -0.00928494     0.14235378
       4       0.04970261     0.07743068     0.00391563     0.00886517
    ==== End of matrix output ====

 DIIS C vector; C2DIIS = F, LAMBDA = -4.71D-03
   -0.000344   -0.060299    0.001963    1.058680
* Read MO coefficients from SIRIUS.RST with label "NEWORB  " and header info:  7Dec18  DIIS   4
      Virial theorem: -V/T =      2.003672
@      MULPOP N      -0.45; H       0.26; H       0.33; H       0.37; H       0.28; O      -0.65; O      -0.66; O      -0.64; O      -0.65; H       0.37; 
@             H       0.34; H       0.37; H       0.36; H       0.33; H       0.34; H       0.36; H       0.33; 
   4  Level shift: doubly occupied orbital energies shifted by -1.25D-02

 DIIS Fock eigenvalues in symmetry 1
      -20.69448      -20.67692      -20.66371      -20.62665      -15.73342
       -1.47035       -1.45167       -1.41816       -1.39146       -1.33876
       -0.84302       -0.83555       -0.80940       -0.80042       -0.78539
       -0.76662       -0.75884       -0.71136       -0.70354       -0.66051
       -0.64295       -0.63942       -0.62820       -0.60150       -0.56997
       -0.00005        0.04132        0.08245        0.10382        0.11906
        0.15295        0.17316        0.19145        0.20089        0.23469
        0.24714        0.26548        0.29469        0.34000        0.34593
        0.37181        0.44930        0.47136        0.48612        0.50853
        0.52120        0.53563        0.55071        0.56185        0.60526
        0.80658        0.81953        0.85373        0.87523        0.88957
        0.91956        0.92951        0.97752        0.98566        1.00035
        1.02484        1.03945        1.05193        1.06636        1.10073
        1.16278        1.16935        1.18377        1.25732        1.32153
        1.34937        1.37242        1.38508        1.43151        1.45691
        1.46012        1.46426        1.46806        1.48630        1.55475
        1.58163        1.60712        1.65681        1.67876        1.70008
        1.71486        1.76108        1.77851        1.81252        1.83948
        1.89914        1.97974        2.05401        2.08704        2.09877
        2.12384        2.14577        2.19336        2.22037        2.23563
        2.26334        2.28784        2.29862        2.30840        2.34539
        2.47104        2.55233        2.57106        2.60916        2.63300
        2.64137        2.65594        2.68254        2.68740        2.74751
        2.77588        2.80322        2.88971        2.91246        3.11689
        3.18173        3.26275        3.28570        3.32570        3.36689
        3.38257        3.39676        3.41257        3.46265        3.47044
        3.49743        3.52497        3.55975        3.58862        3.62098
        3.85748        3.88218        3.91943        4.00124        4.07146
        4.11124        4.12334        4.16525        4.98302        5.00993
        5.12838        5.25024        5.26107        5.28930        5.42456
        5.62568        5.67235        5.76057        5.76531        5.90927
        5.93035        6.03087        6.04515       36.86879       51.40115
       51.41581       51.42414       51.44610
 Time used in FCKEIG, thr_jaco:   2.60D-02  3.70D-02  4.01D-06
 CPU and wall times used in FCKEIG, THR_FCKEIG:   2.60D-02  3.70D-02  9.42D-04
 -----------------------------------------------------------------------------

 *** DIIS iteration number    5
 RDSUPM called. NFMAT, ISYMDM(1:NFMAT)                     1
                     1

 ITDIIS, energy, error norm, change in energy, scr.thr., difden:
@ DIIS iter.   5    -361.195102525        3.09142D-02   -1.01D-03  -20    F

 (DIIS_RED) Control Parameters C2DIIS =         F NEVC =    5


 (DIIS_RED) B matrix:

               Column   1     Column   2     Column   3     Column   4     Column   5
       1      15.45756918
       2       0.73262087     1.27691703
       3       0.80707982    -0.00928494     0.14235378
       4       0.04970261     0.07743068     0.00391563     0.00886517
       5       0.02209380     0.00777785     0.00582081     0.00078344     0.00095569
    ==== End of matrix output ====

 DIIS C vector; C2DIIS = F, LAMBDA = -6.47D-04
    0.001341   -0.013756   -0.045563    0.123158    0.934820
* Read MO coefficients from SIRIUS.RST with label "NEWORB  " and header info:  7Dec18  DIIS   5
      Virial theorem: -V/T =      2.003294
@      MULPOP N      -0.44; H       0.25; H       0.33; H       0.37; H       0.28; O      -0.66; O      -0.67; O      -0.65; O      -0.67; H       0.38; 
@             H       0.34; H       0.38; H       0.36; H       0.34; H       0.35; H       0.37; H       0.34; 

 DIIS Fock eigenvalues in symmetry 1
      -20.67682      -20.65783      -20.64030      -20.60816      -15.71662
       -1.45592       -1.43682       -1.40179       -1.37679       -1.32439
       -0.82928       -0.82141       -0.79499       -0.78598       -0.77112
       -0.75130       -0.74493       -0.69717       -0.68930       -0.64512
       -0.62772       -0.62509       -0.61266       -0.58458       -0.55435
       -0.00005        0.04180        0.08281        0.10427        0.11938
        0.15332        0.17376        0.19181        0.20145        0.23522
        0.24794        0.26635        0.29551        0.34126        0.34728
        0.37303        0.44993        0.47208        0.48679        0.50936
        0.52195        0.53629        0.55124        0.56240        0.60636
        0.80807        0.82086        0.85537        0.87720        0.89121
        0.92193        0.93105        0.97883        0.98721        1.00218
        1.02630        1.04092        1.05309        1.06797        1.10251
        1.16427        1.17081        1.18529        1.25872        1.32229
        1.35085        1.37390        1.38555        1.43275        1.45735
        1.46145        1.46511        1.46878        1.48692        1.55555
        1.58236        1.60817        1.65771        1.67974        1.70104
        1.71562        1.76218        1.77901        1.81265        1.83999
        1.89934        1.98096        2.05513        2.08824        2.09986
        2.12493        2.14645        2.19399        2.22178        2.23639
        2.26472        2.28879        2.29940        2.30973        2.34655
        2.47206        2.55284        2.57177        2.60996        2.63406
        2.64205        2.65657        2.68297        2.68814        2.74759
        2.77597        2.80357        2.89126        2.91418        3.11881
        3.18362        3.26481        3.28783        3.32781        3.36935
        3.38640        3.39930        3.41458        3.46495        3.47282
        3.50136        3.52697        3.56209        3.59083        3.62473
        3.86006        3.88599        3.92137        4.00346        4.07360
        4.11546        4.12580        4.16784        4.98589        5.01260
        5.13101        5.25362        5.26503        5.29544        5.42823
        5.62910        5.67534        5.76582        5.76965        5.91511
        5.93377        6.03359        6.04829       36.87301       51.40643
       51.42236       51.43467       51.45203
 Time used in FCKEIG, thr_jaco:   2.30D-02  5.00D-02  1.32D-06
 CPU and wall times used in FCKEIG, THR_FCKEIG:   2.30D-02  5.00D-02  3.09D-04
 -----------------------------------------------------------------------------

 *** DIIS iteration number    6
 RDSUPM called. NFMAT, ISYMDM(1:NFMAT)                     1
                     1

 ITDIIS, energy, error norm, change in energy, scr.thr., difden:
@ DIIS iter.   6    -361.195194758        1.12221D-02   -9.22D-05  -20    F

 (DIIS_RED) Control Parameters C2DIIS =         F NEVC =    6


 (DIIS_RED) B matrix:

               Column   1     Column   2     Column   3     Column   4     Column   5     Column   6
       1      15.45756918
       2       0.73262087     1.27691703
       3       0.80707982    -0.00928494     0.14235378
       4       0.04970261     0.07743068     0.00391563     0.00886517
       5       0.02209380     0.00777785     0.00582081     0.00078344     0.00095569
       6      -0.00489903    -0.00007107     0.00076807     0.00059162     0.00002269     0.00012594
    ==== End of matrix output ====

 DIIS C vector; C2DIIS = F, LAMBDA = -3.87D-05
    0.000799    0.007125   -0.010226   -0.136267    0.113745    1.024824
* Read MO coefficients from SIRIUS.RST with label "NEWORB  " and header info:  7Dec18  DIIS   6
      Virial theorem: -V/T =      2.003550
@      MULPOP N      -0.44; H       0.25; H       0.33; H       0.37; H       0.27; O      -0.67; O      -0.67; O      -0.65; O      -0.67; H       0.38; 
@             H       0.34; H       0.38; H       0.36; H       0.34; H       0.35; H       0.37; H       0.34; 

 DIIS Fock eigenvalues in symmetry 1
      -20.67800      -20.65959      -20.64358      -20.60976      -15.71865
       -1.45615       -1.43728       -1.40275       -1.37720       -1.32491
       -0.82967       -0.82204       -0.79552       -0.78636       -0.77161
       -0.75213       -0.74553       -0.69772       -0.68998       -0.64615
       -0.62788       -0.62573       -0.61290       -0.58527       -0.55434
       -0.00005        0.04175        0.08268        0.10407        0.11928
        0.15319        0.17364        0.19169        0.20131        0.23512
        0.24785        0.26625        0.29537        0.34117        0.34708
        0.37281        0.44978        0.47187        0.48660        0.50912
        0.52163        0.53606        0.55095        0.56218        0.60617
        0.80782        0.82048        0.85516        0.87690        0.89100
        0.92164        0.93074        0.97856        0.98688        1.00179
        1.02598        1.04057        1.05270        1.06740        1.10233
        1.16407        1.17057        1.18506        1.25849        1.32203
        1.35055        1.37351        1.38532        1.43229        1.45702
        1.46096        1.46478        1.46849        1.48667        1.55526
        1.58210        1.60787        1.65752        1.67949        1.70095
        1.71541        1.76192        1.77884        1.81236        1.83972
        1.89906        1.98082        2.05487        2.08774        2.09945
        2.12472        2.14612        2.19351        2.22139        2.23608
        2.26433        2.28837        2.29901        2.30951        2.34630
        2.47183        2.55258        2.57152        2.60972        2.63405
        2.64187        2.65636        2.68274        2.68790        2.74723
        2.77562        2.80326        2.89077        2.91366        3.11834
        3.18319        3.26419        3.28720        3.32749        3.36869
        3.38531        3.39870        3.41419        3.46437        3.47218
        3.50023        3.52662        3.56143        3.59029        3.62364
        3.85937        3.88486        3.92095        4.00286        4.07319
        4.11424        4.12520        4.16715        4.98484        5.01170
        5.13001        5.25299        5.26413        5.29374        5.42742
        5.62823        5.67472        5.76434        5.76836        5.91330
        5.93276        6.03293        6.04738       36.87101       51.40520
       51.42060       51.43150       51.45044
 Time used in FCKEIG, thr_jaco:   2.40D-02  5.60D-02  4.78D-07
 CPU and wall times used in FCKEIG, THR_FCKEIG:   2.40D-02  5.60D-02  1.12D-04
 -----------------------------------------------------------------------------

 *** DIIS iteration number    7
 RDSUPM called. NFMAT, ISYMDM(1:NFMAT)                     1
                     1

 ITDIIS, energy, error norm, change in energy, scr.thr., difden:
@ DIIS iter.   7    -361.195208784        2.36365D-03   -1.40D-05  -20    F

 (DIIS_RED) Control Parameters C2DIIS =         F NEVC =    7


 (DIIS_RED) B matrix:

               Column   1     Column   2     Column   3     Column   4     Column   5     Column   6
       1      15.45756918
       2       0.73262087     1.27691703
       3       0.80707982    -0.00928494     0.14235378
       4       0.04970261     0.07743068     0.00391563     0.00886517
       5       0.02209380     0.00777785     0.00582081     0.00078344     0.00095569
       6      -0.00489903    -0.00007107     0.00076807     0.00059162     0.00002269     0.00012594
       7       0.00027671     0.00019246    -0.00000764     0.00000969     0.00005047     0.00000167

               Column   7
       7       0.00000559
    ==== End of matrix output ====

 DIIS C vector; C2DIIS = F, LAMBDA = -1.45D-06
   -0.000252   -0.000694    0.005644    0.021400   -0.099437   -0.131602    1.204941
* Read MO coefficients from SIRIUS.RST with label "NEWORB  " and header info:  7Dec18  DIIS   7
      Virial theorem: -V/T =      2.003492
@      MULPOP N      -0.44; H       0.25; H       0.33; H       0.37; H       0.27; O      -0.67; O      -0.67; O      -0.65; O      -0.67; H       0.38; 
@             H       0.35; H       0.38; H       0.37; H       0.34; H       0.35; H       0.37; H       0.34; 

 DIIS Fock eigenvalues in symmetry 1
      -20.67794      -20.65945      -20.64300      -20.60960      -15.71822
       -1.45608       -1.43718       -1.40250       -1.37709       -1.32468
       -0.82964       -0.82186       -0.79536       -0.78618       -0.77153
       -0.75196       -0.74548       -0.69773       -0.68997       -0.64602
       -0.62778       -0.62574       -0.61275       -0.58498       -0.55416
       -0.00005        0.04180        0.08272        0.10411        0.11931
        0.15322        0.17369        0.19173        0.20136        0.23516
        0.24792        0.26633        0.29545        0.34130        0.34722
        0.37294        0.44983        0.47192        0.48667        0.50919
        0.52167        0.53610        0.55098        0.56222        0.60629
        0.80794        0.82063        0.85526        0.87702        0.89113
        0.92179        0.93079        0.97863        0.98698        1.00191
        1.02606        1.04064        1.05275        1.06746        1.10245
        1.16421        1.17069        1.18518        1.25858        1.32207
        1.35066        1.37362        1.38533        1.43235        1.45702
        1.46105        1.46483        1.46853        1.48669        1.55531
        1.58215        1.60798        1.65761        1.67960        1.70102
        1.71547        1.76203        1.77889        1.81236        1.83975
        1.89907        1.98095        2.05496        2.08781        2.09952
        2.12481        2.14615        2.19353        2.22149        2.23610
        2.26443        2.28840        2.29903        2.30965        2.34644
        2.47192        2.55263        2.57156        2.60980        2.63413
        2.64193        2.65640        2.68278        2.68799        2.74723
        2.77563        2.80329        2.89095        2.91387        3.11853
        3.18338        3.26438        3.28742        3.32756        3.36879
        3.38553        3.39882        3.41425        3.46446        3.47231
        3.50047        3.52668        3.56154        3.59038        3.62392
        3.85947        3.88508        3.92101        4.00294        4.07326
        4.11450        4.12530        4.16726        4.98513        5.01196
        5.13030        5.25307        5.26425        5.29410        5.42755
        5.62834        5.67478        5.76460        5.76855        5.91363
        5.93286        6.03299        6.04749       36.87143       51.40528
       51.42074       51.43205       51.45061
 Time used in FCKEIG, thr_jaco:   2.40D-02  9.90D-02  1.01D-07
 CPU and wall times used in FCKEIG, THR_FCKEIG:   2.40D-02  9.90D-02  2.36D-05
 -----------------------------------------------------------------------------

 *** DIIS iteration number    8
 RDSUPM called. NFMAT, ISYMDM(1:NFMAT)                     1
                     1

 ITDIIS, energy, error norm, change in energy, scr.thr., difden:
@ DIIS iter.   8    -361.195209418        4.34408D-04   -6.34D-07  -20    F

 (DIIS_RED) Control Parameters C2DIIS =         F NEVC =    8


 (DIIS_RED) B matrix:

               Column   1     Column   2     Column   3     Column   4     Column   5     Column   6
       1      15.45756918
       2       0.73262087     1.27691703
       3       0.80707982    -0.00928494     0.14235378
       4       0.04970261     0.07743068     0.00391563     0.00886517
       5       0.02209380     0.00777785     0.00582081     0.00078344     0.00095569
       6      -0.00489903    -0.00007107     0.00076807     0.00059162     0.00002269     0.00012594
       7       0.00027671     0.00019246    -0.00000764     0.00000969     0.00005047     0.00000167
       8       0.00012271    -0.00003770     0.00000719     0.00000220     0.00000034     0.00000188

               Column   7     Column   8
       7       0.00000559
       8       0.00000038     0.00000019
    ==== End of matrix output ====

 DIIS C vector; C2DIIS = F, LAMBDA = -1.35D-07
   -0.000023   -0.000122   -0.000027    0.002509    0.004171   -0.027649   -0.078194    1.099334
* Read MO coefficients from SIRIUS.RST with label "NEWORB  " and header info:  7Dec18  DIIS   8
      Virial theorem: -V/T =      2.003507
@      MULPOP N      -0.44; H       0.25; H       0.33; H       0.37; H       0.27; O      -0.67; O      -0.67; O      -0.65; O      -0.67; H       0.38; 
@             H       0.35; H       0.38; H       0.37; H       0.34; H       0.35; H       0.37; H       0.34; 

 DIIS Fock eigenvalues in symmetry 1
      -20.67784      -20.65938      -20.64313      -20.60957      -15.71823
       -1.45604       -1.43715       -1.40254       -1.37708       -1.32469
       -0.82960       -0.82187       -0.79536       -0.78618       -0.77150
       -0.75198       -0.74548       -0.69772       -0.68996       -0.64606
       -0.62775       -0.62575       -0.61273       -0.58502       -0.55414
       -0.00005        0.04180        0.08272        0.10410        0.11931
        0.15322        0.17369        0.19173        0.20136        0.23516
        0.24792        0.26633        0.29545        0.34130        0.34721
        0.37294        0.44984        0.47193        0.48667        0.50919
        0.52167        0.53610        0.55098        0.56222        0.60629
        0.80794        0.82063        0.85526        0.87702        0.89113
        0.92178        0.93079        0.97865        0.98699        1.00190
        1.02607        1.04064        1.05276        1.06745        1.10245
        1.16420        1.17069        1.18519        1.25859        1.32208
        1.35066        1.37362        1.38534        1.43234        1.45703
        1.46103        1.46482        1.46853        1.48670        1.55531
        1.58216        1.60797        1.65761        1.67959        1.70102
        1.71547        1.76202        1.77889        1.81236        1.83975
        1.89908        1.98095        2.05497        2.08780        2.09952
        2.12482        2.14616        2.19352        2.22148        2.23612
        2.26442        2.28841        2.29902        2.30964        2.34643
        2.47192        2.55263        2.57156        2.60979        2.63414
        2.64193        2.65640        2.68278        2.68798        2.74722
        2.77563        2.80329        2.89095        2.91386        3.11852
        3.18337        3.26438        3.28742        3.32760        3.36882
        3.38549        3.39882        3.41428        3.46447        3.47233
        3.50043        3.52672        3.56156        3.59039        3.62387
        3.85949        3.88504        3.92105        4.00295        4.07330
[...]
 | 1 1 1 1 |  26   1   9   1 |     1130        1 |       637886 |    0.129613  |
 | 1 1 1 1 |  11   1  10   1 |     1253        1 |       784379 |    0.111984  |
 | 1 1 1 1 |  14   1  10   1 |     1256        1 |       788141 |   -0.070809  |
 | 1 1 1 1 |  28   1  10   1 |     1270        1 |       805816 |   -0.078850  |
 | 1 1 1 1 |  29   1  10   1 |     1271        1 |       807086 |    0.069518  |
 | 1 1 1 1 |  30   1  10   1 |     1272        1 |       808357 |   -0.135597  |
 | 1 1 1 1 |  27   1  16   1 |     2097        1 |      2197657 |   -0.078231  |
 | 1 1 1 1 |  27   1  20   1 |     2649        1 |      3507277 |   -0.075378  |
 +=============================================================================+


          Norm of Printed Amplitude Vector :             0.8426

          Printed all single excitations greater than 0.380673

          Printed all double excitations greater than 0.064835



+======================================================================+
| contributions of excitation levels to right eigenvectors as computed |
| from the (RE|RE) self overlap                                        |
+----------------------------------------------------------------------+
| sym | multi | state |    E / eV  | % singles | % doubles | % triples |
+======================================================================+
|    1|   1   |   1   |  411.52661 |  88.0927  |  11.9073  |   0.0000  |
+======================================================================+





+======================================================================+
| contributions of excitation levels to excited states as computed     |
| from the (LE|RE) overlap                                             |
+----------------------------------------------------------------------+
| sym | multi | state |    E / eV  | % singles | % doubles | % triples |
+======================================================================+
|    1|   1   |   1   |  411.52661 |  78.9593  |  21.0407  |   0.0000  |
+======================================================================+



 --------------------------
 Symmetry class Nr.:     1
 Multiplicity      :     3
 --------------------------

 Length of Excitation vectors in this class is:   8404200
 No Excitation Energies calculated in this symmetry class
     

   *******************************************************************
   *                                                                 *
   *--------   OUTPUT FROM PROPERTY AND SYMMETRY ANALYSIS   ---------*
   *                                                                 *
   *******************************************************************



                         +-------------------------------+
                         ! REQUESTED PROPERTY OPERATORS: !
                         +-------------------------------+

             Index   Oper. Label  Symmetry  Transp.  PDBS  Atom
             --------------------------------------------------
                1     HAM0            1        1      T      0
                2     XDIPLEN         1        1      F      0
                3     YDIPLEN         1        1      F      0
                4     ZDIPLEN         1        1      F      0
             --------------------------------------------------




                         +-------------------------------+
                         ! REQUESTED EXPECTATION VALUES: !
                         +-------------------------------+

                       Index   Oper. Label  Symmetry
                       -----------------------------
                       -----------------------------




                       +------------------------------------+
                       ! REQUESTED EFFECTIVE FOCK MATRICES: !
                       +------------------------------------+

                       Index   Oper. Label  Symmetry
                       -----------------------------
                       -----------------------------




                        +----------------------------------+
                        ! REQUESTED FIRST ORDER M-VECTORS: !
                        +----------------------------------+

               Index   State Symmetry  Frequency
               --------------------------------------------------
                  1             1    1     1.512333D+01
               --------------------------------------------------


      

    *******************************************************************
    *          SOLVING COUPLED CLUSTER RESPONSE EQUATIONS             *
    *******************************************************************



 
 +======================================================================+
 !                     RHS & ETA VECTORS TO COMPUTE:                    !
 +======================================================================+
 | TYPE | # VEC. |  NEEDED FOR:                                         |
 +----------------------------------------------------------------------+
 +======================================================================+



 +======================================================================+
 !                       LINEAR EQUATIONS TO SOLVE:                     !
 +======================================================================+
 | TYPE | # VEC. |  EQUATION:                                           |
 +----------------------------------------------------------------------+
 |  M1  |    1   |  first-order ground - excited state multipliers      |
 +======================================================================+



 +======================================================================+
 !                F MATRIX TRANSFORMATIONS TO COMPUTE:                  !
 +======================================================================+
 | TYPE | # VEC. |  TRANSFORMED:                                        |
 +----------------------------------------------------------------------+
 |  FR  |    1   |  right eigenvectors (RE)                             |
 +======================================================================+





 Testing R1 list: 

 List nr.  Label     Symmetry      Frequency      T1-norm        T2-norm


 Testing L1 list: 

 List nr.  Label     Symmetry      Frequency      T1-norm        T2-norm
  Solvent 1-order response equations converged in                     0 
  solvent iterations
 SONIAPRI                     0
 CCEQ_STR: CVSEPARATION =  T
 CCEQ_STR: IONIZATION =  T
 CCEQ_STR: REMOVE_CORE =  F
 could not find required file CCM1_1___1
 IOPTSV is    33 ... program continues nevertheless.
 Vector nr.  1 of type M1  and symmetry  1 was not found on file.
     M1  start vector nr.  1 of symmetry  1 generated from gradient
 CCEQ_STR: freeze VALENCE OR VIRT
 CCEQ_SOL: CVSEPARA=     T
 CCEQ_SOL: LIONISAT=     T
 CCEQ_SOL: REMOVE_CORE =  F



 ----- COUPLED CLUSTER RESPONSE SOLVER -----

    Iter  #Vectors  time (min)   residual
    --------------------------------------
 CCRED CVS/IONIS sigma_                     1 
 project out valence occupied or virtual
      1       1         1.55     0.22E+01
 CCRED CVS/IONIS sigma_                     2 
 project out valence occupied or virtual
      2       1         1.57     0.41E+00
 CCRED CVS/IONIS sigma_                     3 
 project out valence occupied or virtual
      3       1         1.49     0.50E-01
 CCRED CVS/IONIS sigma_                     4 
 project out valence occupied or virtual
                    -1  vectors with norm le:  1.000000000000000E-035  REMOVED

 CCORT,**WARNING**  number vectors added is zero after check for vector norm , NBADD :    0

 CCORT, number vectors added is zero , NBADD :    0

 CCORT, number vectors added is zero , NBADD :    0

 CCORT, number vectors added is zero , NBADD :    0

 CCORT, number vectors added is zero , NBADD :    0

 *** MICROITERATIONS STOPPED DUE TO LINEAR DEPENDENCE BETWEEN ALL NEW TRIAL VECTORS
                     0  trial vectors converged
  LINEAR DEPENDENCE BETWEEN                     1  NON CONVERGED TRIAL VECTORS
      4       1         1.49     0.54E-02

 ***  CCEQ_SOL -MICROITERATIONS STOPPED  
     LINEAR DEPENDENCE BETWEEN ALL NEW TRIAL VECTORS
    --------------------------------------
    converged in  4 iterations
    threshold:    0.10E-08


         Routine          Time (min)
         ---------------------------
         CC_TRDRV            6.10
         CCRED               0.03
         CCNEX               0.05
         ---------------------------
         Total time          6.18


  Total CPU  time used in CCEQ_SOLV:  6 minutes 11 seconds
  Total wall time used in CCEQ_SOLV:  8 minutes 46 seconds


 xxxxxxxxxxxxxxxxxxxxxxxxxxxxxxxxxxxxx

 
 Solution of CC response equations completed.
 

 *******************************************************************
 *                                                                 *
 *--------  OUTPUT FROM COUPLED CLUSTER LINEAR RESPONSE   ---------*
 *                                                                 *
 *--------      CALCULATION OF SECOND ORDER RESIDUES      ---------*
 *                                                                 *
 *******************************************************************



                  +---------------------------------------------+
                  ! CC_SOPR: Calculation of CCSD       Residues !
                  +---------------------------------------------+

 Doing the Mf*CsiA
 Doing the Mf*CsiA
 Doing the Mf*CsiA


 CCSD  Right transition moments in atomic units:
 -----------------------------------------------

  1      15.123325  <XDIPLEN |f> =       0.00000003
  1      15.123325  <YDIPLEN |f> =       0.00000005
  1      15.123325  <ZDIPLEN |f> =       0.00000005


 CCSD  Left  transition moments in atomic units:
 -----------------------------------------------

  1      15.123325  <f|XDIPLEN > =       0.00000001
  1      15.123325  <f|YDIPLEN > =       0.00000002
  1      15.123325  <f|ZDIPLEN > =       0.00000002


 CCSD  linear response residue property in atomic units:
 -------------------------------------------------------

 RES{<<XDIPLEN ,XDIPLEN >>(15.123325)} =     0.00000000 (   0.00000002)
 RES{<<XDIPLEN ,YDIPLEN >>(15.123325)} =     0.00000000 (   0.00000003)
 RES{<<XDIPLEN ,ZDIPLEN >>(15.123325)} =     0.00000000 (   0.00000003)
 RES{<<YDIPLEN ,XDIPLEN >>(15.123325)} =     0.00000000 (   0.00000003)
 RES{<<YDIPLEN ,YDIPLEN >>(15.123325)} =     0.00000000 (   0.00000003)
 RES{<<YDIPLEN ,ZDIPLEN >>(15.123325)} =     0.00000000 (   0.00000003)
 RES{<<ZDIPLEN ,XDIPLEN >>(15.123325)} =     0.00000000 (   0.00000003)
 RES{<<ZDIPLEN ,YDIPLEN >>(15.123325)} =     0.00000000 (   0.00000003)
 RES{<<ZDIPLEN ,ZDIPLEN >>(15.123325)} =     0.00000000 (   0.00000004)


 CCSD  Transition strength matrix for state nr.  1 of symmetry 1
 CCSD  excitation energy:15.12332512

 Gauge: length

               Column   1     Column   2     Column   3
       1     4.740032D-16   7.351009D-16   7.858970D-16
       2     7.351009D-16   1.139984D-15   1.218801D-15
       3     7.858970D-16   1.218801D-15   1.303016D-15
    ==== End of matrix output ====

 Principal values of diagonalized transition strength matrix:

             a.u.               
 1       0.00000000
 2       0.00000000
 3       0.00000000

 Principal axis of diagonalized transition strength matrix:


               Column   1     Column   2     Column   3
       1       1.00000000     0.00000000     0.00000000
       2       0.00000000     1.00000000     0.00000000
       3       0.00000000     0.00000000     1.00000000
    ==== End of matrix output ====


 CCSD   oscillator strength matrix for state nr.  1 of symmetry 1
 CCSD  excitation energy:15.12332512


               Column   1     Column   2     Column   3
       1     4.779003D-15   7.411447D-15   7.923584D-15
       2     7.411447D-15   1.149357D-14   1.228822D-14
       3     7.923584D-15   1.228822D-14   1.313729D-14
    ==== End of matrix output ====

 Principal values of diagonalized oscillator strength matrix:

             a.u.               
 1       0.00000000
 2       0.00000000
 3       0.00000000

 Principal axis of diagonalized oscillator strength matrix:


               Column   1     Column   2     Column   3
       1       1.00000000     0.00000000     0.00000000
       2       0.00000000     1.00000000     0.00000000
       3       0.00000000     0.00000000     1.00000000
    ==== End of matrix output ====

  Total time for      9 linear response residues:       2.91 seconds.
  

 *******************************************************************************
 *******************************************************************************
 *                                                                             *
 *                                                                             *
 *                   SUMMARY OF COUPLED CLUSTER CALCULATION                    *
 *                                                                             *
 *                                                                             *
 *******************************************************************************
 *******************************************************************************

                                                                                
                                                                                
            Total SCF   energy:                  -361.1952094418                
            Total MP2   energy:                  -362.3071579073                
            Total CCSD  energy:                  -362.3472522533                
                                                                                
                                                                                
            Total SCF   energy:                  -361.1952094418                
            Total RSTAR energy:                  -362.3472522533                
            Total CCSD  energy:                  -362.3473847208                
                                                                                
                                                                                
            Total SCF   energy:                  -361.1952094418                
            Total RSTAR energy:                  -362.3473847208                
            Total CCSD  energy:                  -362.3473840402                
                                                                                
                                                                                
            Total SCF   energy:                  -361.1952094418                
            Total RSTAR energy:                  -362.3473840402                
            Total CCSD  energy:                  -362.3473841543                
                                                                                
                                                                                
            Total SCF   energy:                  -361.1952094418                
            Total RSTAR energy:                  -362.3473841543                
            Total CCSD  energy:                  -362.3473841539                
                                                                                
                                                                                
            Total SCF   energy:                  -361.1952094418                
            Total RSTAR energy:                  -362.3473841539                
            Total CCSD  energy:                  -362.3473841539                
            CCSD Total  energy:                  -362.7604580984                
            CCSD E(QM/MM)     :                    -0.4088670328                
                                                                                
                                                                                
                                                                                
 +=============================================================================+
 |  sym. | Exci.  |        CCSD       Excitation energies            | ||T1||  |
 |(spin, |        +------------------------------------------------------------+
 | spat) |        |     Hartree    |       eV.      |     cm-1       |    %    |
 +=============================================================================+
 | ^1A   |    1   |    15.1233251  |     411.52661  |   3319186.176  |  88.09  |
 +=============================================================================+
                                                                                
                                                                                
     Total energies in Hartree:                                                 
             1 ^1A       -347.2282659424                                        
                                                                                
                                                                                
 +=============================================================================+
 |  sym. | Exci.  |        CCSD       Length   Gauge Oscillator Strength       |
 |(spin, |        +------------------------------------------------------------+
 | spat) |        | Dipole Strength(a.u.) | Oscillator strength  | Direction   |
 +=============================================================================+
 | ^1A   |    1   |        0.0000000      |      0.0000000       |    -        |
 +=============================================================================+

  1 a.u. =        27.21138 eV.  
  1 a.u. =    219474.62934 cm-1.
  

 *******************************************************************************
 *******************************************************************************
 *                                                                             *
 *                                                                             *
 *                      END OF COUPLED CLUSTER CALCULATION                     *
 *                                                                             *
 *                                                                             *
 *******************************************************************************
 *******************************************************************************


 CPU and wall time for CC :    7105.489    9982.656

 
     Date and time (Linux)  : Fri Dec  7 16:33:04 2018
     Host name              : n-62-23-16                              


                      .-------------------------------------.
                      | End of Coupled Cluster Section (CC) |
                      `-------------------------------------'

  Total CPU  time used in DALTON:   2 hours  0 minutes 40 seconds
  Total wall time used in DALTON:   2 hours 52 minutes  8 seconds

 
     Date and time (Linux)  : Fri Dec  7 16:33:04 2018
     Host name              : n-62-23-16                              
  

 +---------------------------------------------------------+ 
 | List of selected calculated molecular properties (a.u.) | 
 +---------------------------------------------------------+ 

  Properties are read from unit number                      4

 CCSD       properties :
 #  1 1 CCSD/MM  Ground state Energy =    -362.7604580984
 #  2 1 E_QM/MM  Ground state Energy =      -0.4088670328
 #  3 1 Sy: 1 Sp: 1 Exc:  1 E_tot:   -347.2282659424 w:     15.1233251232 E_grs:   -362.3515910656
 #  4 1 Exctot   Excited state Energy =    -347.2282659424
 #  5 1 |<O|XDIPLEN |i(15.123325)>| =     0.00000002
 #  7 1 |<O|YDIPLEN |i(15.123325)>| =     0.00000003
 #  9 1 |<O|ZDIPLEN |i(15.123325)>| =     0.00000004

 THE_END   
