

     ************************************************************************
     *************** Dalton - An Electronic Structure Program ***************
     ************************************************************************

    This is output from DALTON release Dalton2017.alpha (2016)
         ( Web site: http://daltonprogram.org )

   ----------------------------------------------------------------------------

    NOTE:
     
    Dalton is an experimental code for the evaluation of molecular
    properties using (MC)SCF, DFT, CI, and CC wave functions.
    The authors accept no responsibility for the performance of
    the code or for the correctness of the results.
     
    The code (in whole or part) is provided under a licence and
    is not to be reproduced for further distribution without
    the written permission of the authors or their representatives.
     
    See the home page "http://daltonprogram.org" for further information.
     
    If results obtained with this code are published,
    the appropriate citations would be both of:
     
       K. Aidas, C. Angeli, K. L. Bak, V. Bakken, R. Bast,
       L. Boman, O. Christiansen, R. Cimiraglia, S. Coriani,
       P. Dahle, E. K. Dalskov, U. Ekstroem,
       T. Enevoldsen, J. J. Eriksen, P. Ettenhuber, B. Fernandez,
       L. Ferrighi, H. Fliegl, L. Frediani, K. Hald, A. Halkier,
       C. Haettig, H. Heiberg, T. Helgaker, A. C. Hennum,
       H. Hettema, E. Hjertenaes, S. Hoest, I.-M. Hoeyvik,
       M. F. Iozzi, B. Jansik, H. J. Aa. Jensen, D. Jonsson,
       P. Joergensen, J. Kauczor, S. Kirpekar,
       T. Kjaergaard, W. Klopper, S. Knecht, R. Kobayashi, H. Koch,
       J. Kongsted, A. Krapp, K. Kristensen, A. Ligabue,
       O. B. Lutnaes, J. I. Melo, K. V. Mikkelsen, R. H. Myhre,
       C. Neiss, C. B. Nielsen, P. Norman, J. Olsen,
       J. M. H. Olsen, A. Osted, M. J. Packer, F. Pawlowski,
       T. B. Pedersen, P. F. Provasi, S. Reine, Z. Rinkevicius,
       T. A. Ruden, K. Ruud, V. Rybkin, P. Salek, C. C. M. Samson,
       A. Sanchez de Meras, T. Saue, S. P. A. Sauer,
       B. Schimmelpfennig, K. Sneskov, A. H. Steindal,
       K. O. Sylvester-Hvid, P. R. Taylor, A. M. Teale,
       E. I. Tellgren, D. P. Tew, A. J. Thorvaldsen, L. Thoegersen,
       O. Vahtras, M. A. Watson, D. J. D. Wilson, M. Ziolkowski
       and H. Agren,
       "The Dalton quantum chemistry program system",
       WIREs Comput. Mol. Sci. 2014, 4:269–284 (doi: 10.1002/wcms.1172)
     
    and
     
       Dalton, a Molecular Electronic Structure Program,
       Release Dalton2017.alpha (2016), see http://daltonprogram.org
   ----------------------------------------------------------------------------

    Authors in alphabetical order (major contribution(s) in parenthesis):

  Kestutis Aidas,           Vilnius University,           Lithuania   (QM/MM)
  Celestino Angeli,         University of Ferrara,        Italy       (NEVPT2)
  Keld L. Bak,              UNI-C,                        Denmark     (AOSOPPA, non-adiabatic coupling, magnetic properties)
  Vebjoern Bakken,          University of Oslo,           Norway      (DALTON; geometry optimizer, symmetry detection)
  Radovan Bast,             UiT The Arctic U. of Norway,  Norway      (DALTON installation and execution frameworks)
  Pablo Baudin,             University of Valencia,       Spain       (Cholesky excitation energies)
  Linus Boman,              NTNU,                         Norway      (Cholesky decomposition and subsystems)
  Ove Christiansen,         Aarhus University,            Denmark     (CC module)
  Renzo Cimiraglia,         University of Ferrara,        Italy       (NEVPT2)
  Sonia Coriani,            University of Trieste,        Italy       (CC module, MCD in RESPONS)
  Janusz Cukras,            University of Trieste,        Italy       (MChD in RESPONS)
  Paal Dahle,               University of Oslo,           Norway      (Parallelization)
  Erik K. Dalskov,          UNI-C,                        Denmark     (SOPPA)
  Thomas Enevoldsen,        Univ. of Southern Denmark,    Denmark     (SOPPA)
  Janus J. Eriksen,         Aarhus University,            Denmark     (Polarizable embedding model, TDA)
  Rasmus Faber,             University of Copenhagen,     Denmark     (Vib.avg. NMR with SOPPA, parallel AO-SOPPA)
  Berta Fernandez,          U. of Santiago de Compostela, Spain       (doublet spin, ESR in RESPONS)
  Lara Ferrighi,            Aarhus University,            Denmark     (PCM Cubic response)
  Heike Fliegl,             University of Oslo,           Norway      (CCSD(R12))
  Luca Frediani,            UiT The Arctic U. of Norway,  Norway      (PCM)
  Bin Gao,                  UiT The Arctic U. of Norway,  Norway      (Gen1Int library)
  Christof Haettig,         Ruhr-University Bochum,       Germany     (CC module)
  Kasper Hald,              Aarhus University,            Denmark     (CC module)
  Asger Halkier,            Aarhus University,            Denmark     (CC module)
  Frederik Beyer Hansen,    University of Copenhagen,     Denmark     (Parallel AO-SOPPA)
  Erik D. Hedegaard,        Univ. of Southern Denmark,    Denmark     (Polarizable embedding model, QM/MM)
  Hanne Heiberg,            University of Oslo,           Norway      (geometry analysis, selected one-electron integrals)
  Trygve Helgaker,          University of Oslo,           Norway      (DALTON; ABACUS, ERI, DFT modules, London, and much more)
  Alf Christian Hennum,     University of Oslo,           Norway      (Parity violation)
  Hinne Hettema,            University of Auckland,       New Zealand (quadratic response in RESPONS; SIRIUS supersymmetry)
  Eirik Hjertenaes,         NTNU,                         Norway      (Cholesky decomposition)
  Pi A. B. Haase,           University of Copenhagen,     Denmark     (Triplet AO-SOPPA)
  Maria Francesca Iozzi,    University of Oslo,           Norway      (RPA)
  Brano Jansik              Technical Univ. of Ostrava    Czech Rep.  (DFT cubic response)
  Hans Joergen Aa. Jensen,  Univ. of Southern Denmark,    Denmark     (DALTON; SIRIUS, RESPONS, ABACUS modules, London, and much more)
  Dan Jonsson,              UiT The Arctic U. of Norway,  Norway      (cubic response in RESPONS module)
  Poul Joergensen,          Aarhus University,            Denmark     (RESPONS, ABACUS, and CC modules)
  Maciej Kaminski,          University of Warsaw,         Poland      (CPPh in RESPONS)
  Joanna Kauczor,           Linkoeping University,        Sweden      (Complex polarization propagator (CPP) module)
  Sheela Kirpekar,          Univ. of Southern Denmark,    Denmark     (Mass-velocity & Darwin integrals)
  Wim Klopper,              KIT Karlsruhe,                Germany     (R12 code in CC, SIRIUS, and ABACUS modules)
  Stefan Knecht,            ETH Zurich,                   Switzerland (Parallel CI and MCSCF)
  Rika Kobayashi,           Australian National Univ.,    Australia   (DIIS in CC, London in MCSCF)
  Henrik Koch,              NTNU,                         Norway      (CC module, Cholesky decomposition)
  Jacob Kongsted,           Univ. of Southern Denmark,    Denmark     (Polarizable embedding model, QM/MM)
  Andrea Ligabue,           University of Modena,         Italy       (CTOCD, AOSOPPA)
  Nanna H. List             Univ. of Southern Denmark,    Denmark     (Polarizable embedding model)
  Ola B. Lutnaes,           University of Oslo,           Norway      (DFT Hessian)
  Juan I. Melo,             University of Buenos Aires,   Argentina   (LRESC, Relativistic Effects on NMR Shieldings)
  Kurt V. Mikkelsen,        University of Copenhagen,     Denmark     (MC-SCRF and QM/MM)
  Rolf H. Myhre,            NTNU,                         Norway      (Cholesky, subsystems and ECC2)
  Christian Neiss,          Univ. Erlangen-Nuernberg,     Germany     (CCSD(R12))
  Christian B. Nielsen,     University of Copenhagen,     Denmark     (QM/MM)
  Patrick Norman,           Linkoeping University,        Sweden      (Cubic response and complex frequency response in RESPONS)
  Jeppe Olsen,              Aarhus University,            Denmark     (SIRIUS CI/density modules)
  Jogvan Magnus H. Olsen,   Univ. of Southern Denmark,    Denmark     (Polarizable embedding model, QM/MM)
  Anders Osted,             Copenhagen University,        Denmark     (QM/MM)
  Martin J. Packer,         University of Sheffield,      UK          (SOPPA)
  Filip Pawlowski,          Kazimierz Wielki University,  Poland      (CC3)
  Morten N. Pedersen,       Univ. of Southern Denmark,    Denmark     (Polarizable embedding model)
  Thomas B. Pedersen,       University of Oslo,           Norway      (Cholesky decomposition)
  Patricio F. Provasi,      University of Northeastern,   Argentina   (Analysis of coupling constants in localized orbitals)
  Zilvinas Rinkevicius,     KTH Stockholm,                Sweden      (open-shell DFT, ESR)
  Elias Rudberg,            KTH Stockholm,                Sweden      (DFT grid and basis info)
  Torgeir A. Ruden,         University of Oslo,           Norway      (Numerical derivatives in ABACUS)
  Kenneth Ruud,             UiT The Arctic U. of Norway,  Norway      (DALTON; ABACUS magnetic properties and much more)
  Pawel Salek,              KTH Stockholm,                Sweden      (DALTON; DFT code)
  Claire C. M. Samson       University of Karlsruhe       Germany     (Boys localization, r12 integrals in ERI)
  Alfredo Sanchez de Meras, University of Valencia,       Spain       (CC module, Cholesky decomposition)
  Trond Saue,               Paul Sabatier University,     France      (direct Fock matrix construction)
  Stephan P. A. Sauer,      University of Copenhagen,     Denmark     (SOPPA(CCSD), SOPPA prop., AOSOPPA, vibrational g-factors)
  Bernd Schimmelpfennig,    Forschungszentrum Karlsruhe,  Germany     (AMFI module)
  Kristian Sneskov,         Aarhus University,            Denmark     (Polarizable embedding model, QM/MM)
  Arnfinn H. Steindal,      UiT The Arctic U. of Norway,  Norway      (parallel QM/MM, Polarizable embedding model)
  Casper Steinmann,         Univ. of Southern Denmark,    Denmark     (QFIT, Polarizable embedding model)
  K. O. Sylvester-Hvid,     University of Copenhagen,     Denmark     (MC-SCRF)
  Peter R. Taylor,          VLSCI/Univ. of Melbourne,     Australia   (Symmetry handling ABACUS, integral transformation)
  Andrew M. Teale,          University of Nottingham,     England     (DFT-AC, DFT-D)
  David P. Tew,             University of Bristol,        England     (CCSD(R12))
  Olav Vahtras,             KTH Stockholm,                Sweden      (triplet response, spin-orbit, ESR, TDDFT, open-shell DFT)
  David J. Wilson,          La Trobe University,          Australia   (DFT Hessian and DFT magnetizabilities)
  Hans Agren,               KTH Stockholm,                Sweden      (SIRIUS module, RESPONS, MC-SCRF solvation model)
 --------------------------------------------------------------------------------

     Date and time (Linux)  : Fri Dec  7 16:46:28 2018
     Host name              : n-62-30-11                              

 * Work memory size             :  1280000000 =  9.537 gigabytes.

 * Directories for basis set searches:
   1) /zhome/d7/7/119775/My_Codes/dalton-private/build2016/basis/diffs
   2) /zhome/37/3/129401/NH3NH4/CCSD/AIMD_SAMPLING/nh4_4h2o_nd
   3) /zhome/9a/4/124800/source/dalton/build-mlcc/basis


Compilation information
-----------------------

 Who compiled             | rfaber
 Host                     | hpclogin1
 System                   | Linux-2.6.32-696.1.1.el6.x86_64
 CMake generator          | Unix Makefiles
 Processor                | x86_64
 64-bit integers          | ON
 MPI                      | OFF
 Fortran compiler         | /opt/intel/2016update2/compilers_and_libraries_201
                          | 6.2.181/linux/bin/intel64/ifort
 Fortran compiler version | ifort (IFORT) 16.0.2 20160204
 C compiler               | /opt/intel/2016update2/compilers_and_libraries_201
                          | 6.2.181/linux/bin/intel64/icc
 C compiler version       | icc (ICC) 16.0.2 20160204
 C++ compiler             | /opt/intel/2016update2/compilers_and_libraries_201
                          | 6.2.181/linux/bin/intel64/icpc
 C++ compiler version     | icpc (ICC) 16.0.2 20160204
 Static linking           | OFF
 Last Git revision        | bb4d1599ca5680a9f3980451fc8bbefdba436d59
 Git branch               | mlcc
 Configuration time       | 2017-06-13 16:11:03.928841


   Content of the .dal input file
 ----------------------------------

**DALTON
.RUN WAVE FUNCTIONS
*QMMM
.QMMM
**INTEGRALS
.DIPLEN
**WAVE FUNCTIONS
.CC
*PRINT
!To check the origin of excit
.PRINTL
   0 11
*SCF INP
.THRESH
1.0D-7
!*ORBITAL INPUT
!.MOSTART
!NEWORB
*CC INP
!.RESTART
.CCSD
.THRLEQ
 1.0D-9
.THRENR
 1.0D-10
.FROIMP
4
0
.PRINT
 1
.MAX IT
 1200
.MAXRED
 1200
.MXLRV
1199
*CCSLV
.CCMM
.MXSLIT
200
.MXINIT
4 5
*CCEXCI
.NCCEXC
 1
.IONISATION
1
1
.CVSEPARA
1
1
*CCLRSD
.DIPOLE
**END OF DALTON INPUT


   Content of the .mol file
 ----------------------------

ATOMBASIS


Atomtypes=5 Charge=1 Nosymm Angstrom
   7.00000    1    Basis=6-311G**
N          0.000000        0.000000        0.000000
   1.00000    4    Basis=6-311G**
H         -0.792838        0.337798        0.594189
H         -0.181500       -0.291014       -0.986558
H          0.192944       -0.910749        0.421536
H          0.841013        0.631162        0.113505
   8.00000    4    Basis=6-311G**
O          1.058668        2.481546        0.589542
O         -0.931258       -0.729046       -2.545045
O         -1.868086        0.057611        1.946941
O          1.392960       -2.761404        0.995683
   1.00000    8    Basis=6-311G**
H          0.640095        2.979098        1.284752
H          2.010081        2.789262        0.678234
H         -0.444984       -0.903476       -3.393348
H         -1.860539       -0.631918       -2.796543
H         -2.500942        0.825769        2.185709
H         -2.409718       -0.759243        1.893626
H          0.787826       -2.938180        1.744174
H          1.915120       -1.933719        1.206135
   0.00000    1    Basis=diffs
X          0.000000        0.000000        0.000000


       *******************************************************************
       *********** Output from DALTON general input processing ***********
       *******************************************************************

 --------------------------------------------------------------------------------
   Overall default print level:    0
   Print level for DALTON.STAT:    1

    HERMIT 1- and 2-electron integral sections will be executed
    "Old" integral transformation used (limited to max 255 basis functions)
    Wave function sections will be executed (SIRIUS module)
 --------------------------------------------------------------------------------


 Changes of defaults for *QMMM  :
 --------------------------------

 +------------------+
 |  WORD: | CHANGE: |
 +------------------+
 |   QMMM |       T |
 +------------------+
 


   ****************************************************************************
   *************** Output of molecule and basis set information ***************
   ****************************************************************************


    The two title cards from your ".mol" input:
    ------------------------------------------------------------------------
 1:                                                                         
 2:                                                                         
    ------------------------------------------------------------------------

  Coordinates are entered in Angstrom and converted to atomic units.
          - Conversion factor : 1 bohr = 0.52917721 A

  Atomic type no.    1
  --------------------
  Nuclear charge:   7.00000
  Number of symmetry independent centers:    1
  Number of basis sets to read;    2
  The basis set is "6-311G**" from the basis set library.
  Basis set file used for this atomic type with Z =   7 :
     "/zhome/9a/4/124800/source/dalton/build-mlcc/basis/6-311G**"

  Info about the basis set file: your basis has no documentation.
  Basis set: 6-311G**                                                                        

  Atomic type no.    2
  --------------------
  Nuclear charge:   1.00000
  Number of symmetry independent centers:    4
  Number of basis sets to read;    2
  The basis set is "6-311G**" from the basis set library.
  Basis set file used for this atomic type with Z =   1 :
     "/zhome/9a/4/124800/source/dalton/build-mlcc/basis/6-311G**"

  Info about the basis set file: your basis has no documentation.
  Basis set: 6-311G**                                                                        

  Atomic type no.    3
  --------------------
  Nuclear charge:   8.00000
  Number of symmetry independent centers:    4
  Number of basis sets to read;    2
  The basis set is "6-311G**" from the basis set library.
  Basis set file used for this atomic type with Z =   8 :
     "/zhome/9a/4/124800/source/dalton/build-mlcc/basis/6-311G**"

  Info about the basis set file: your basis has no documentation.
  Basis set: 6-311G**                                                                        

  Atomic type no.    4
  --------------------
  Nuclear charge:   1.00000
  Number of symmetry independent centers:    8
  Number of basis sets to read;    2
  The basis set is "6-311G**" from the basis set library.
  Basis set file used for this atomic type with Z =   1 :
     "/zhome/9a/4/124800/source/dalton/build-mlcc/basis/6-311G**"

  Info about the basis set file: your basis has no documentation.
  Basis set: 6-311G**                                                                        

  Atomic type no.    5
  --------------------
  Nuclear charge:   0.00000
  Number of symmetry independent centers:    1
  Number of basis sets to read;    2
  The basis set is "diffs" from the basis set library.
  Basis set file used for this atomic type with Z =   0 :
     "/zhome/9a/4/124800/source/dalton/build-mlcc/basis/diffs"

  Info about the basis set file: your basis has no documentation.
  Basis set: diffs                                                                           


                         SYMGRP: Point group information
                         -------------------------------

@    Point group: C1 


                                 Isotopic Masses
                                 ---------------

                           N          14.003074
                           H           1.007825
                           H           1.007825
                           H           1.007825
                           H           1.007825
                           O          15.994915
                           O          15.994915
                           O          15.994915
                           O          15.994915
                           H           1.007825
                           H           1.007825
                           H           1.007825
                           H           1.007825
                           H           1.007825
                           H           1.007825
                           H           1.007825
                           H           1.007825

                       Total mass:    90.076634 amu
                       Natural abundance:  98.500 %

 Center-of-mass coordinates (a.u.):   -0.154810   -0.336240    0.393513


  Atoms and basis sets
  --------------------

  Number of atom types :    5
  Total number of atoms:   18

  label    atoms   charge   prim   cont     basis
  ----------------------------------------------------------------------
  N           1    7.0000    31    18      [11s5p1d|4s3p1d]                                   
  H           4    1.0000     8     6      [5s1p|3s1p]                                        
  O           4    8.0000    31    18      [11s5p1d|4s3p1d]                                   
  H           8    1.0000     8     6      [5s1p|3s1p]                                        
  X           1    0.0000     1     1      [1s|1s]                                            
  ----------------------------------------------------------------------
  total:     18   51.0000   252   163
  ----------------------------------------------------------------------
  Spherical harmonic basis used.

  Threshold for neglecting AO integrals:  1.00D-12


  Cartesian Coordinates (a.u.)
  ----------------------------

  Total number of coordinates:   54
  N       :     1  x   0.0000000000    2  y   0.0000000000    3  z   0.0000000000
  H       :     4  x  -1.4982466815    5  y   0.6383457056    6  z   1.1228544765
  H       :     7  x  -0.3429852917    8  y  -0.5499367585    9  z  -1.8643244264
  H       :    10  x   0.3646113175   11  y  -1.7210661786   12  z   0.7965875918
  H       :    13  x   1.5892842376   14  y   1.1927233205   15  z   0.2144933638
  O       :    16  x   2.0005925773   17  y   4.6894423066   18  z   1.1140729192
  O       :    19  x  -1.7598225717   20  y  -1.3776972725   21  z  -4.8094380258
  O       :    22  x  -3.5301709179   23  y   0.1088690118   24  z   3.6791852715
  O       :    25  x   2.6323129031   26  y  -5.2182972805   27  z   1.8815681773
  H       :    28  x   1.2096042440   29  y   5.6296793195   30  z   2.4278294185
  H       :    31  x   3.7985025791   32  y   5.2709412709   33  z   1.2816765087
  H       :    34  x  -0.8408978900   35  y  -1.7073222005   36  z  -6.4124983668
  H       :    37  x  -3.5159091549   38  y  -1.1941519535   39  z  -5.2847003668
  H       :    40  x  -4.7260954345   41  y   1.5604772525   42  z   4.1303913989
  H       :    43  x  -4.5537070585   44  y  -1.4347613323   45  z   3.5784345232
  H       :    46  x   1.4887753741   47  y  -5.5523555059   48  z   3.2960111743
  H       :    49  x   3.6190522965   50  y  -3.6541993127   51  z   2.2792648198
  X       :    52  x   0.0000000000   53  y   0.0000000000   54  z   0.0000000000

  Max    interatomic separation is    6.2258 Angstrom (   11.7650 Bohr)
  between atoms   13 and   11, "H     " and "H     ".

  Min HX interatomic separation is    0.9519 Angstrom (    1.7988 Bohr)

  Min YX interatomic separation is    2.6988 Angstrom (    5.1000 Bohr)


  Bond distances (Angstrom):
  --------------------------

                  atom 1     atom 2       distance
                  ------     ------       --------
  bond distance:  H          N            1.046786
  bond distance:  H          N            1.044475
  bond distance:  H          N            1.021951
  bond distance:  H          N            1.057616
  bond distance:  H          O            0.951881
  bond distance:  H          O            1.003864
  bond distance:  H          O            0.993230
  bond distance:  H          O            0.967599
  bond distance:  H          O            1.023515
  bond distance:  H          O            0.981559
  bond distance:  H          O            0.978609
  bond distance:  H          O            1.001001


  Bond angles (degrees):
  ----------------------

                  atom 1     atom 2     atom 3         angle
                  ------     ------     ------         -----
  bond angle:     H          N          H            119.634
  bond angle:     H          N          H            101.329
  bond angle:     H          N          H            110.413
  bond angle:     H          N          H            100.027
  bond angle:     H          N          H            113.943
  bond angle:     H          N          H            109.721
  bond angle:     H          O          H            101.070
  bond angle:     H          O          H            105.417
  bond angle:     H          O          H            107.221
  bond angle:     H          O          H            108.127




 Principal moments of inertia (u*A**2) and principal axes
 --------------------------------------------------------

   IA     355.252170         -0.022362    0.939641    0.341430
   IB     405.639452          0.242513   -0.326217    0.913657
   IC     481.738442          0.969890    0.103232   -0.220581


 Rotational constants
 --------------------

               A                   B                   C

           1422.5923           1245.8823           1049.0734 MHz
            0.047453            0.041558            0.034993 cm-1


@  Nuclear repulsion energy :  198.082127285902 Hartree

  Number of floating/multiple basis set orbitals :    1


                     .---------------------------------------.
                     | Starting in Integral Section (HERMIT) |
                     `---------------------------------------'



 ***************************************************************************************
 ****************** Output from **INTEGRALS input processing (HERMIT) ******************
 ***************************************************************************************



    *************************************************************************
    ****************** Output from HERMIT input processing ******************
    *************************************************************************


 Default print level:        1

 * Nuclear model: Point charge

 Calculation of one- and two-electron Hamiltonian integrals.

 The following one-electron property integrals are calculated as requested:
          - overlap integrals
          - dipole length integrals

 Center of mass  (bohr):     -0.154809803483     -0.336239513948      0.393512730492
 Operator center (bohr):      0.000000000000      0.000000000000      0.000000000000
 Gauge origin    (bohr):      0.000000000000      0.000000000000      0.000000000000
 Dipole origin   (bohr):      0.000000000000      0.000000000000      0.000000000000
 
  *********************************** 
  QMMM electrostatic potential: 
  Multipole order                                    0
  Isotropic polarization  
  *********************************** 
 
  ---------------- 
  QMMM information 
  ---------------- 
 
  MM coordinates in au 
  -------------------- 
     1     -1.712277      5.573609     -2.318462
     2     -0.266138      5.904406     -1.105584
     3     -1.715236      6.864515     -3.651317
     4      7.810077      5.865528     -7.973560
     5      6.254444      5.807765     -6.923790
     6      8.372622      4.015606     -8.211554
     7      3.669192      5.946327     -4.784373
     8      3.819089      7.116144     -3.361700
     9      3.778360      4.146717     -4.263073
    10     -6.992270     -1.010862     -1.580824
    11     -7.223457     -2.396260     -0.346512
    12     -8.278333      0.350548     -1.324307
    13      5.267889     10.280244     -1.467066
    14      4.988563      9.350512      0.035162
    15      6.866768      9.744382     -2.381966
    16     -9.149863     -9.470039     -2.772376
    17     -7.563551    -10.442198     -2.611021
    18     -9.356913     -9.284073     -4.656533
    19      9.422456      9.411938     -4.429548
    20      9.281662      8.008920     -5.658050
    21      9.877969     11.035245     -5.263637
    22     -5.523282     -9.184086      4.169373
    23     -5.167917    -10.343144      2.768821
    24     -5.649637    -10.064509      5.772429
    25      2.849471     -2.162531     -7.734832
    26      2.682359     -3.945629     -7.322222
    27      3.993303     -1.710179     -9.212294
    28      2.462661     11.663711      6.075624
    29      3.780204     12.432249      5.143661
    30      3.202096     10.609176      7.516002
    31     -3.495517      3.093310     -7.253632
    32     -4.170183      1.586820     -8.005677
    33     -2.094431      2.671406     -6.145336
    34    -11.202434      2.649587     -0.943835
    35    -11.986561      2.262588      0.612192
    36    -10.372083      4.315473     -0.879624
    37      7.917603     -8.854550     -5.477205
    38      9.256835     -7.731850     -5.918239
    39      6.945189     -8.231515     -4.164287
    40      9.118628     -0.463011     -3.257606
    41      9.629007     -1.760701     -1.948680
    42     10.310843      0.932937     -2.990106
    43     10.774274     -4.295159     -0.748350
    44     10.022047     -5.890637     -1.324819
    45     11.092632     -4.256087      1.099541
    46      6.345619      6.948411      2.919753
    47      5.619403      7.094843      4.706421
    48      7.929971      7.861336      2.814579
    49      4.702088    -10.658329     -9.535324
    50      3.558118    -11.993120     -8.746526
    51      5.764199    -10.029891     -8.134430
    52     -5.168327      7.632598      1.274061
    53     -4.111118      6.836371      0.036738
    54     -6.637620      8.355212      0.362028
    55      9.655769      1.657513      3.755506
    56      7.802220      1.441434      3.263665
    57      9.748273      3.186898      4.836127
    58     -3.872531     10.839548     -4.425928
    59     -2.300296     10.466263     -5.419929
    60     -5.191061      9.580813     -4.838825
    61     -9.864737     -0.282542     11.270257
    62     -8.349504     -0.243142     12.210811
    63    -10.002662     -2.028237     10.772835
    64      1.033346     -0.357780      6.545297
    65      0.959138     -1.328236      8.073156
    66     -0.688837     -0.287452      5.874703
    67     10.110781    -10.171969      0.504447
    68     11.740058     -9.541046     -0.154727
    69      9.066343    -10.592867     -0.964909
    70     -7.221001      7.049635     -6.024687
    71     -7.667426      7.074046     -4.215524
    72     -6.054879      5.622166     -6.423085
    73    -10.692979     -5.482746     10.359766
    74     -9.408746     -6.774379     11.002290
    75    -12.298358     -6.427917     10.060635
    76     -7.226231     -8.947088    -11.101071
    77     -8.002790    -10.336966    -10.150099
    78     -6.418683     -8.119388     -9.613481
    79     -0.227472      8.464516      3.976823
    80      1.145015      9.792636      4.334635
    81     -1.300014      9.072150      2.587341
    82     -7.325106     -3.943923     -5.811463
    83     -6.514408     -5.529752     -5.442870
    84     -7.328020     -2.962486     -4.271907
    85      2.139038      3.654269     10.054823
    86      1.499301      2.418239      8.772071
    87      0.622948      4.280855     11.119927
    88      0.970327     -7.029963     -6.883486
    89      1.767251     -8.249934     -8.077973
    90      1.393866     -7.831490     -5.219420
    91     -1.089465     -2.710071    -11.541610
    92     -1.678368     -4.479951    -11.864608
    93      0.523809     -2.798660    -10.586507
    94     -1.555675      6.265022    -11.036783
    95     -2.616959      6.584807    -12.530653
    96     -2.490725      5.014031     -9.913991
    97    -11.328233      9.028762      7.837562
    98    -12.735558      9.460976      8.889111
    99    -10.953873      7.195624      8.354226
   100    -11.303032     -3.059758      5.163499
   101    -11.623524     -3.577320      6.921400
   102    -12.325911     -1.495030      4.975808
   103    -10.089414     11.340615     -8.606132
   104    -11.663989     10.989621     -9.586930
   105     -9.506815      9.611332     -8.193153
   106      7.962592     -8.263557      9.532075
   107      6.655179     -8.619681     10.700336
   108      7.837737     -9.512785      8.108021
   109      8.358765      9.542182    -11.439404
   110      7.964392      8.086847    -10.292652
   111      7.160700     10.944944    -11.133250
   112     -7.175496     -4.245302      2.545387
   113     -6.521458     -5.898729      3.071895
   114     -8.520539     -3.968678      3.783731
   115      5.533957      0.185392    -11.176800
   116      6.976035      0.519096     -9.997180
   117      4.449923      1.469319    -11.712625
   118      6.854855     -3.272667      7.676393
   119      6.712638     -5.082415      8.041327
   120      6.416905     -2.241642      9.180029
   121     -3.498907      7.037629      7.518827
   122     -2.034113      7.315689      6.279690
   123     -4.232639      8.743876      7.749997
   124      5.180476     -1.039085      3.322713
   125      6.194915     -1.988009      4.468839
   126      3.660766     -0.478139      4.272298
   127    -10.562864      4.179086      8.251230
   128     -9.085875      4.103518      7.115577
   129    -10.292985      2.996684      9.762454
   130      9.820944      0.840868     -8.425703
   131     10.137232      0.206237     -6.649255
   132     11.164681      0.280441     -9.702644
   133      4.243098      1.043618     -3.763337
   134      3.656486     -0.016263     -5.246277
   135      6.040759      0.556282     -3.482841
   136     -6.503884      3.991929      5.169268
   137     -6.771236      5.192816      3.770200
   138     -5.224845      5.113283      6.294028
   139     -5.922923     -0.783027     -9.421944
   140     -4.540269     -1.128102    -10.572451
   141     -6.304170     -2.307911     -8.491167
   142     -2.227086     -7.478328     10.281025
   143     -1.483588     -7.003627      8.423517
   144     -4.085418     -7.633305     10.217248
   145     -4.248528     -7.974877     -6.804603
   146     -4.157295     -9.711628     -6.240630
   147     -2.525884     -7.601588     -7.253995
   148    -11.216993     -7.014779     -6.968656
   149    -10.960565     -6.568834     -8.694628
   150    -10.004036     -5.699609     -6.170213
   151      0.479930      9.320743     -7.286363
   152     -0.030544      8.721901     -9.036389
   153      1.567996      8.051465     -6.569062
   154      4.340491      7.650430      7.875611
   155      3.209307      6.336690      8.445226
   156      5.839424      7.504116      8.918787
   157      2.561603     -9.041754     -2.333046
   158      2.697361     -7.878433     -0.949427
   159      3.305991    -10.656368     -1.759749
   160     -0.801106     -7.217879      5.471315
   161      0.070464     -8.947957      5.591703
   162     -2.450013     -7.720567      4.854438
   163      5.983207     -9.142510      3.638498
   164      5.117637     -7.631481      3.032118
   165      7.622636     -9.257251      2.782856
   166     -9.726059      8.022375     -1.333963
   167    -11.159388      8.235946     -2.507275
   168    -10.694191      8.100984      0.303564
   169     -6.481645     11.203047      8.154095
   170     -8.289149     10.752457      8.135828
   171     -6.115078     12.353852      9.526939
   172     11.253141      8.784921      2.982581
   173     11.298676     10.512909      2.302890
   174     11.857448      9.065978      4.683794
   175     -2.100894    -11.526360      0.128554
   176     -2.984785    -11.981992     -1.431354
   177     -0.854014    -10.396485     -0.699459
 
  MM charges 
  ---------- 
     1     -0.674440
     2      0.337220
     3      0.337220
     4     -0.674440
     5      0.337220
     6      0.337220
     7     -0.674440
     8      0.337220
     9      0.337220
    10     -0.674440
    11      0.337220
    12      0.337220
    13     -0.674440
    14      0.337220
    15      0.337220
    16     -0.674440
    17      0.337220
    18      0.337220
    19     -0.674440
    20      0.337220
    21      0.337220
    22     -0.674440
    23      0.337220
    24      0.337220
    25     -0.674440
    26      0.337220
    27      0.337220
    28     -0.674440
    29      0.337220
    30      0.337220
    31     -0.674440
    32      0.337220
    33      0.337220
    34     -0.674440
    35      0.337220
    36      0.337220
    37     -0.674440
    38      0.337220
    39      0.337220
    40     -0.674440
    41      0.337220
    42      0.337220
    43     -0.674440
    44      0.337220
    45      0.337220
    46     -0.674440
    47      0.337220
    48      0.337220
    49     -0.674440
    50      0.337220
    51      0.337220
    52     -0.674440
    53      0.337220
    54      0.337220
    55     -0.674440
    56      0.337220
    57      0.337220
    58     -0.674440
    59      0.337220
    60      0.337220
    61     -0.674440
    62      0.337220
    63      0.337220
    64     -0.674440
    65      0.337220
    66      0.337220
    67     -0.674440
    68      0.337220
    69      0.337220
    70     -0.674440
    71      0.337220
    72      0.337220
    73     -0.674440
    74      0.337220
    75      0.337220
    76     -0.674440
    77      0.337220
    78      0.337220
    79     -0.674440
    80      0.337220
    81      0.337220
    82     -0.674440
    83      0.337220
    84      0.337220
    85     -0.674440
    86      0.337220
    87      0.337220
    88     -0.674440
    89      0.337220
    90      0.337220
    91     -0.674440
    92      0.337220
    93      0.337220
    94     -0.674440
    95      0.337220
    96      0.337220
    97     -0.674440
    98      0.337220
    99      0.337220
   100     -0.674440
   101      0.337220
   102      0.337220
   103     -0.674440
   104      0.337220
   105      0.337220
   106     -0.674440
   107      0.337220
   108      0.337220
   109     -0.674440
   110      0.337220
   111      0.337220
   112     -0.674440
   113      0.337220
   114      0.337220
   115     -0.674440
   116      0.337220
   117      0.337220
   118     -0.674440
   119      0.337220
   120      0.337220
   121     -0.674440
   122      0.337220
   123      0.337220
   124     -0.674440
   125      0.337220
   126      0.337220
   127     -0.674440
   128      0.337220
   129      0.337220
   130     -0.674440
   131      0.337220
   132      0.337220
   133     -0.674440
   134      0.337220
   135      0.337220
   136     -0.674440
   137      0.337220
   138      0.337220
   139     -0.674440
   140      0.337220
   141      0.337220
   142     -0.674440
   143      0.337220
   144      0.337220
   145     -0.674440
   146      0.337220
   147      0.337220
   148     -0.674440
   149      0.337220
   150      0.337220
   151     -0.674440
   152      0.337220
   153      0.337220
   154     -0.674440
   155      0.337220
   156      0.337220
   157     -0.674440
   158      0.337220
   159      0.337220
   160     -0.674440
   161      0.337220
   162      0.337220
   163     -0.674440
   164      0.337220
   165      0.337220
   166     -0.674440
   167      0.337220
   168      0.337220
   169     -0.674440
   170      0.337220
   171      0.337220
   172     -0.674440
   173      0.337220
   174      0.337220
   175     -0.674440
   176      0.337220
   177      0.337220
 
  MM isotropic polarizabilities in au 
  ----------------------------------- 
     1      5.739350
     2      2.308390
     3      2.308390
     4      5.739350
     5      2.308390
     6      2.308390
     7      5.739350
     8      2.308390
     9      2.308390
    10      5.739350
    11      2.308390
    12      2.308390
    13      5.739350
    14      2.308390
    15      2.308390
    16      5.739350
    17      2.308390
    18      2.308390
    19      5.739350
    20      2.308390
    21      2.308390
    22      5.739350
    23      2.308390
    24      2.308390
    25      5.739350
    26      2.308390
    27      2.308390
    28      5.739350
    29      2.308390
    30      2.308390
    31      5.739350
    32      2.308390
    33      2.308390
    34      5.739350
    35      2.308390
    36      2.308390
    37      5.739350
    38      2.308390
    39      2.308390
    40      5.739350
    41      2.308390
    42      2.308390
    43      5.739350
    44      2.308390
    45      2.308390
    46      5.739350
    47      2.308390
    48      2.308390
    49      5.739350
    50      2.308390
    51      2.308390
    52      5.739350
    53      2.308390
    54      2.308390
    55      5.739350
    56      2.308390
    57      2.308390
    58      5.739350
    59      2.308390
    60      2.308390
    61      5.739350
    62      2.308390
    63      2.308390
    64      5.739350
    65      2.308390
    66      2.308390
    67      5.739350
    68      2.308390
    69      2.308390
    70      5.739350
    71      2.308390
    72      2.308390
    73      5.739350
    74      2.308390
    75      2.308390
    76      5.739350
    77      2.308390
    78      2.308390
    79      5.739350
    80      2.308390
    81      2.308390
    82      5.739350
    83      2.308390
    84      2.308390
    85      5.739350
    86      2.308390
    87      2.308390
    88      5.739350
    89      2.308390
    90      2.308390
    91      5.739350
    92      2.308390
    93      2.308390
    94      5.739350
    95      2.308390
    96      2.308390
    97      5.739350
    98      2.308390
    99      2.308390
   100      5.739350
   101      2.308390
   102      2.308390
   103      5.739350
   104      2.308390
   105      2.308390
   106      5.739350
   107      2.308390
   108      2.308390
   109      5.739350
   110      2.308390
   111      2.308390
   112      5.739350
   113      2.308390
   114      2.308390
   115      5.739350
   116      2.308390
   117      2.308390
   118      5.739350
   119      2.308390
   120      2.308390
   121      5.739350
   122      2.308390
   123      2.308390
   124      5.739350
   125      2.308390
   126      2.308390
   127      5.739350
   128      2.308390
   129      2.308390
   130      5.739350
   131      2.308390
   132      2.308390
   133      5.739350
   134      2.308390
   135      2.308390
   136      5.739350
   137      2.308390
   138      2.308390
   139      5.739350
   140      2.308390
   141      2.308390
   142      5.739350
   143      2.308390
   144      2.308390
   145      5.739350
   146      2.308390
   147      2.308390
   148      5.739350
   149      2.308390
   150      2.308390
   151      5.739350
   152      2.308390
   153      2.308390
   154      5.739350
   155      2.308390
   156      2.308390
   157      5.739350
   158      2.308390
   159      2.308390
   160      5.739350
   161      2.308390
   162      2.308390
   163      5.739350
   164      2.308390
   165      2.308390
   166      5.739350
   167      2.308390
   168      2.308390
   169      5.739350
   170      2.308390
   171      2.308390
   172      5.739350
   173      2.308390
   174      2.308390
   175      5.739350
   176      2.308390
   177      2.308390


     ************************************************************************
     ************************** Output from HERINT **************************
     ************************************************************************



                      Nuclear contribution to dipole moments
                      --------------------------------------

                 au               Debye          C m (/(10**-30)

      x     -8.66471554       -22.02350872       -73.46251760
      y    -15.90309225       -40.42162601      -134.83203106
      z     20.48912685        52.07816253       173.71405163



 Threshold for neglecting two-electron integrals:  1.00D-12
 HERMIT - Number of two-electron integrals written:    36785448 ( 41.2% )
 HERMIT - Megabytes written:                            421.216

  Time used in TWOINT     is       6.84 seconds
  Total CPU  time used in HERMIT:   7.03 seconds
  Total wall time used in HERMIT:  14.32 seconds


                        .----------------------------------.
                        | End of Integral Section (HERMIT) |
                        `----------------------------------'



                   .--------------------------------------------.
                   | Starting in Wave Function Section (SIRIUS) |
                   `--------------------------------------------'

NCCEXCI for singlet:    1
 CCSD_INPUT: core-val requested
 Requested number of virtual orbs per sym
                     1
 Indices of requested virtual orbs
                     1
 CCSD_INPUT: core-val requested
 Requested number of core orbs per sym
                     1
 Indices of requested core orbs
                     1

 *** Output from Huckel module :

     Using EWMO model:          T
     Using EHT  model:          F
     Number of Huckel orbitals each symmetry:   37

 EWMO - Energy Weighted Maximum Overlap - is a Huckel type method,
        which normally is better than Extended Huckel Theory.
 Reference: Linderberg and Ohrn, Propagators in Quantum Chemistry (Wiley, 1973)

 Huckel EWMO eigenvalues for symmetry :  1
          -20.684747     -20.684708     -20.684502     -20.684405     -15.675498
           -1.802098      -1.616770      -1.605936      -1.593490      -1.492521
           -0.829043      -0.812041      -0.794118      -0.783702      -0.777851
           -0.756297      -0.726935      -0.683019      -0.662846      -0.651199
           -0.629647      -0.613517      -0.582209      -0.578150      -0.568072
           -0.261215      -0.242260      -0.240556      -0.236474      -0.182498
           -0.180197      -0.176338      -0.175132      -0.171950      -0.151237
           -0.146999      -0.137626

 **********************************************************************
 *SIRIUS* a direct, restricted step, second order MCSCF program       *
 **********************************************************************

 
     Date and time (Linux)  : Fri Dec  7 16:46:48 2018
     Host name              : n-62-30-11                              

 Title lines from ".mol" input file:
                                                                             
                                                                             

 Print level on unit LUPRI =   2 is   0
 Print level on unit LUW4  =   2 is  11

@    (Integral direct) CC calculation.

@    This is a combination run starting with
@              a restricted, closed shell Hartree-Fock calculation


 Initial molecular orbitals are obtained according to
 ".MOSTART EWMO  " input option

@    QM part is embedded in an environment :

@         Model: QMMM

     Wave function specification
     ============================

     For the specification of the Coupled Cluster: see later.

@    Wave function type        --- CC ---
@    Number of closed shell electrons          50
@    Number of electrons in active shells       0
@    Total charge of the molecule               1

@    Spin multiplicity and 2 M_S                1         0
@    Total number of symmetries                 1 (point group: C1 )
@    Reference state symmetry                   1 (irrep name : A  )

     Orbital specifications
     ======================
@    Abelian symmetry species          All |    1
@                                          |  A  
                                       --- |  ---
@    Occupied SCF orbitals              25 |   25
@    Secondary orbitals                138 |  138
@    Total number of orbitals          163 |  163
@    Number of basis functions         163 |  163

     Optimization information
     ========================
@    Number of configurations                 1
@    Number of orbital rotations           3450
     ------------------------------------------
@    Total number of variables             3451

     Maximum number of Fock   iterations      0
     Maximum number of DIIS   iterations     60
     Maximum number of QC-SCF iterations     60
     Threshold for SCF convergence     1.00D-07


 Changes of defaults for CC:
 ---------------------------


 -Implicit frozen core calculation
 -Excitation energies calculated
 -One-photon absorption strengths will be calculated
 -Oscillator strengths calculated
  
* Read MO coefficients from SIRIUS.RST with label "NEWORB  " and header info:  7Dec18  REORTHO 


 ***********************************************
 ***** DIIS acceleration of SCF iterations *****
 ***********************************************

 C1-DIIS algorithm; max error vectors =    8
 -----------------------------------------------------------------------------

 *** DIIS iteration number    1
 RDSUPM called. NFMAT, ISYMDM(1:NFMAT)                     1
                     1

Calculating AOSUPINT
     (Precalculated two-electron integrals are transformed to P-supermatrix elements.
      Threshold for discarding integrals :  1.00D-12 )
  CPU  time used in FORMSUP    is   5.11 seconds
  WALL time used in FORMSUP    is  56.58 seconds

 ITDIIS, energy, error norm, change in energy, scr.thr., difden:
@ DIIS iter.   1    -360.235114155        4.03040D+00   -3.60D+02  -20    F

 (DIIS_RED) Control Parameters C2DIIS =         F NEVC =    1


 (DIIS_RED) B matrix:

               Column   1
       1      16.24411108
    ==== End of matrix output ====

 DIIS C vector; C2DIIS = F, LAMBDA = -1.62D+01
    1.000000
* Read MO coefficients from SIRIUS.RST with label "NEWORB  " and header info:  7Dec18  DIIS   1
      Virial theorem: -V/T =      2.003112
@      MULPOP N       0.13; H       0.18; H       0.16; H       0.17; H       0.16; O      -0.58; O      -0.56; O      -0.56; O      -0.64; H       0.31; 
@             H       0.31; H       0.31; H       0.31; H       0.31; H       0.32; H       0.33; H       0.34; 
   1  Level shift: doubly occupied orbital energies shifted by -2.00D-01

 DIIS Fock eigenvalues in symmetry 1
      -20.84679      -20.84086      -20.82435      -20.80653      -16.46386
       -1.72487       -1.67199       -1.64705       -1.64308       -1.63294
       -1.20599       -1.19403       -1.17483       -1.05485       -1.02249
       -1.02116       -0.99995       -0.92099       -0.90352       -0.88936
       -0.88123       -0.87636       -0.86399       -0.84253       -0.83661
       -0.01942       -0.00005        0.04903        0.06650        0.07366
        0.10709        0.13108        0.14534        0.16533        0.17289
        0.19512        0.21407        0.21787        0.27111        0.28782
        0.30743        0.40875        0.44099        0.45455        0.46231
        0.48205        0.48515        0.49391        0.51377        0.54846
        0.66905        0.69305        0.72302        0.82313        0.82826
        0.84390        0.87437        0.91318        0.92199        0.94311
        0.96969        0.99497        1.00716        1.02201        1.04287
        1.05836        1.07767        1.12447        1.21822        1.28572
        1.29221        1.32641        1.35224        1.36439        1.36815
        1.36964        1.39488        1.40455        1.42011        1.47478
        1.52189        1.53430        1.55447        1.56349        1.58516
        1.62258        1.70099        1.72869        1.75890        1.79339
        1.79754        1.86909        1.89135        2.00073        2.07342
        2.08411        2.08733        2.09888        2.11363        2.16756
        2.17775        2.20679        2.21996        2.26075        2.27386
        2.38924        2.45250        2.46896        2.47383        2.49977
        2.52014        2.54205        2.58710        2.64209        2.68330
        2.69186        2.71229        2.72543        2.74972        2.97028
        3.00095        3.03906        3.10370        3.28857        3.33723
        3.34932        3.35815        3.36246        3.37512        3.39798
        3.42397        3.49778        3.50082        3.56177        3.58179
        3.86206        3.87516        3.88234        3.88414        4.03887
        4.06471        4.11021        4.16472        4.64374        4.74555
        4.83301        5.21411        5.22987        5.24366        5.31405
        5.54843        5.66795        5.73992        5.75770        5.94597
        5.96809        6.00232        6.00451       36.34970       51.42046
       51.43353       51.47455       51.48014
 Time used in FCKEIG, thr_jaco:   5.10D-02  8.70D-02  1.72D-04
 CPU and wall times used in FCKEIG, THR_FCKEIG:   5.10D-02  8.70D-02  4.03D-02
 -----------------------------------------------------------------------------

 *** DIIS iteration number    2
 RDSUPM called. NFMAT, ISYMDM(1:NFMAT)                     1
                     1

 ITDIIS, energy, error norm, change in energy, scr.thr., difden:
@ DIIS iter.   2    -361.150085129        1.15735D+00   -9.15D-01  -20    F

 (DIIS_RED) Control Parameters C2DIIS =         F NEVC =    2


 (DIIS_RED) B matrix:

               Column   1     Column   2
       1      16.24411108
       2       0.70718937     1.33945602
    ==== End of matrix output ====

 DIIS C vector; C2DIIS = F, LAMBDA = -1.31D+00
    0.039103    0.960897
* Read MO coefficients from SIRIUS.RST with label "NEWORB  " and header info:  7Dec18  DIIS   2
      Virial theorem: -V/T =      2.002111
@      MULPOP N      -0.52; H       0.35; H       0.35; H       0.26; H       0.36; O      -0.57; O      -0.52; O      -0.61; O      -0.60; H       0.31; 
@             H       0.31; H       0.30; H       0.28; H       0.37; H       0.30; H       0.30; H       0.34; 
   2  Level shift: doubly occupied orbital energies shifted by -1.00D-01

 DIIS Fock eigenvalues in symmetry 1
      -20.80748      -20.77450      -20.76749      -20.74729      -15.62965
       -1.56717       -1.53443       -1.53366       -1.52142       -1.37868
       -0.93413       -0.89831       -0.89629       -0.89131       -0.87710
       -0.86641       -0.84453       -0.81874       -0.78000       -0.76635
       -0.75494       -0.75214       -0.72016       -0.71875       -0.70576
       -0.00005        0.04274        0.08934        0.10474        0.11376
        0.16076        0.17833        0.18132        0.19407        0.23278
        0.24544        0.26266        0.28766        0.35101        0.37295
        0.41050        0.44043        0.48722        0.50120        0.50544
        0.52272        0.52549        0.53614        0.56585        0.62346
        0.80369        0.84175        0.84223        0.86342        0.88061
        0.89017        0.91335        0.96235        0.97778        0.99504
        1.01247        1.02500        1.05248        1.05932        1.07474
        1.16495        1.16793        1.20229        1.27558        1.32656
        1.34923        1.38441        1.39805        1.42359        1.42366
        1.42604        1.45612        1.46491        1.47842        1.54747
        1.59791        1.60876        1.62582        1.63239        1.67582
        1.71646        1.75662        1.79882        1.85309        1.86702
        1.88363        1.97132        1.98622        2.09991        2.12005
        2.13164        2.14140        2.15840        2.22998        2.23246
        2.25918        2.28597        2.33351        2.33772        2.39337
        2.50728        2.52303        2.53787        2.55142        2.58565
        2.60715        2.64606        2.67078        2.73515        2.75625
        2.77088        2.80464        2.93121        2.96315        3.13520
        3.23241        3.29499        3.30526        3.35469        3.37885
        3.38737        3.39729        3.40456        3.42104        3.45375
        3.46267        3.53048        3.53500        3.60719        3.61133
        3.89162        3.90048        3.90626        3.90691        4.05718
        4.09728        4.13424        4.19024        5.03563        5.13320
        5.21465        5.22219        5.24862        5.25098        5.32216
        5.54295        5.68030        5.74482        5.76358        5.97056
        5.97963        6.02162        6.02558       37.06696       51.36252
       51.40191       51.43384       51.44156
 Time used in FCKEIG, thr_jaco:   3.70D-02  1.08D-01  4.93D-05
 CPU and wall times used in FCKEIG, THR_FCKEIG:   3.70D-02  1.08D-01  1.16D-02
 -----------------------------------------------------------------------------

 *** DIIS iteration number    3
 RDSUPM called. NFMAT, ISYMDM(1:NFMAT)                     1
                     1

 ITDIIS, energy, error norm, change in energy, scr.thr., difden:
@ DIIS iter.   3    -361.227897759        3.77977D-01   -7.78D-02  -20    F

 (DIIS_RED) Control Parameters C2DIIS =         F NEVC =    3


 (DIIS_RED) B matrix:

               Column   1     Column   2     Column   3
       1      16.24411108
       2       0.70718937     1.33945602
       3       0.82418235    -0.00131224     0.14286676
    ==== End of matrix output ====

 DIIS C vector; C2DIIS = F, LAMBDA = -9.71D-02
   -0.046407    0.097943    0.948464
* Read MO coefficients from SIRIUS.RST with label "NEWORB  " and header info:  7Dec18  DIIS   3
      Virial theorem: -V/T =      2.003188
@      MULPOP N      -0.31; H       0.32; H       0.32; H       0.20; H       0.32; O      -0.64; O      -0.58; O      -0.68; O      -0.66; H       0.33; 
@             H       0.34; H       0.32; H       0.30; H       0.40; H       0.33; H       0.33; H       0.37; 
   3  Level shift: doubly occupied orbital energies shifted by -5.00D-02

 DIIS Fock eigenvalues in symmetry 1
      -20.71797      -20.68675      -20.67730      -20.66388      -15.79215
       -1.49856       -1.46660       -1.46534       -1.45652       -1.38077
       -0.87174       -0.86500       -0.85195       -0.82801       -0.82655
       -0.82010       -0.80573       -0.74763       -0.71492       -0.70321
       -0.69626       -0.67967       -0.64942       -0.64162       -0.63352
       -0.00005        0.04914        0.09569        0.11107        0.11838
        0.16658        0.18179        0.18637        0.19688        0.23793
        0.24557        0.26305        0.28880        0.35137        0.37267
        0.40815        0.45327        0.49907        0.50877        0.51469
        0.53341        0.53625        0.54486        0.57392        0.62357
        0.79448        0.82793        0.84766        0.86698        0.89185
        0.89823        0.92420        0.97261        0.99051        1.00616
        1.01736        1.03994        1.06743        1.07211        1.08632
        1.16144        1.16913        1.20742        1.28179        1.33504
        1.35975        1.39862        1.40884        1.43561        1.43843
        1.43964        1.46721        1.47712        1.48973        1.55313
        1.60736        1.61868        1.63380        1.64375        1.67993
        1.72192        1.77100        1.80890        1.86060        1.87469
        1.88987        1.97241        1.98679        2.10303        2.13694
        2.14715        2.15826        2.17267        2.22661        2.24860
        2.27530        2.29659        2.33468        2.35021        2.39028
        2.51164        2.53819        2.54926        2.56300        2.59201
        2.61409        2.65198        2.68085        2.74394        2.76677
        2.78160        2.81553        2.89745        2.92847        3.12685
        3.20344        3.26312        3.31912        3.35153        3.39848
        3.40688        3.41200        3.41813        3.44687        3.46077
        3.47466        3.55379        3.55981        3.62731        3.63416
        3.91609        3.92261        3.93088        3.93216        4.08485
        4.12403        4.16202        4.21391        4.95358        5.05458
        5.14190        5.24821        5.27214        5.27717        5.34536
        5.57306        5.70974        5.77388        5.79213        6.00081
        6.01099        6.05244        6.05331       36.86082       51.40222
       51.43986       51.47305       51.47629
 Time used in FCKEIG, thr_jaco:   3.10D-02  6.60D-02  1.61D-05
 CPU and wall times used in FCKEIG, THR_FCKEIG:   3.10D-02  6.60D-02  3.78D-03
 -----------------------------------------------------------------------------

 *** DIIS iteration number    4
 RDSUPM called. NFMAT, ISYMDM(1:NFMAT)                     1
                     1

 ITDIIS, energy, error norm, change in energy, scr.thr., difden:
@ DIIS iter.   4    -361.238493339        9.42769D-02   -1.06D-02  -20    F

 (DIIS_RED) Control Parameters C2DIIS =         F NEVC =    4


 (DIIS_RED) B matrix:

               Column   1     Column   2     Column   3     Column   4
       1      16.24411108
       2       0.70718937     1.33945602
       3       0.82418235    -0.00131224     0.14286676
       4       0.06003645     0.07985060     0.00623359     0.00888814
    ==== End of matrix output ====

 DIIS C vector; C2DIIS = F, LAMBDA = -4.62D-03
   -0.000413   -0.060338   -0.012678    1.073428
* Read MO coefficients from SIRIUS.RST with label "NEWORB  " and header info:  7Dec18  DIIS   4
      Virial theorem: -V/T =      2.003016
@      MULPOP N      -0.38; H       0.33; H       0.34; H       0.21; H       0.34; O      -0.65; O      -0.59; O      -0.70; O      -0.68; H       0.34; 
@             H       0.35; H       0.32; H       0.31; H       0.42; H       0.33; H       0.33; H       0.38; 
   4  Level shift: doubly occupied orbital energies shifted by -1.25D-02

 DIIS Fock eigenvalues in symmetry 1
      -20.69077      -20.66367      -20.65281      -20.63712      -15.71983
       -1.46475       -1.43356       -1.43220       -1.42285       -1.33050
       -0.83070       -0.82326       -0.80407       -0.79288       -0.79195
       -0.77429       -0.76968       -0.71125       -0.67907       -0.66653
       -0.65879       -0.64111       -0.61229       -0.60429       -0.59535
       -0.00005        0.04964        0.09558        0.11022        0.11800
        0.16642        0.18287        0.18633        0.19854        0.23747
        0.24913        0.26674        0.29235        0.35718        0.37828
        0.41485        0.45331        0.49839        0.51018        0.51472
        0.53155        0.53515        0.54476        0.57333        0.62771
        0.80149        0.83535        0.85188        0.87025        0.89455
        0.90007        0.92571        0.97370        0.99030        1.00621
        1.01999        1.03972        1.06527        1.07104        1.08519
        1.16504        1.17216        1.21005        1.28391        1.33710
        1.36091        1.39789        1.40964        1.43463        1.43671
        1.43800        1.46737        1.47544        1.48934        1.55512
        1.60840        1.61929        1.63463        1.64466        1.68394
        1.72737        1.76967        1.80831        1.86229        1.87571
        1.89379        1.97745        1.99111        2.10797        2.13452
        2.14450        2.15599        2.17000        2.23389        2.24619
        2.27257        2.29766        2.34088        2.34712        2.39625
        2.51560        2.53691        2.55068        2.56175        2.59506
        2.61802        2.65622        2.68174        2.74692        2.76611
        2.78323        2.81368        2.90958        2.94086        3.13562
        3.21414        3.27497        3.32180        3.35638        3.39856
        3.40515        3.41073        3.41535        3.44411        3.46282
        3.47283        3.55224        3.55621        3.62612        3.63197
        3.91204        3.91979        3.92845        3.92932        4.08266
        4.12012        4.15920        4.21162        4.97219        5.07302
        5.16106        5.24240        5.26559        5.27219        5.34199
        5.56884        5.70297        5.76876        5.78694        5.99329
        6.00581        6.04677        6.04710       36.89521       51.39222
       51.42583       51.46106       51.46519
 Time used in FCKEIG, thr_jaco:   3.00D-02  1.78D-01  4.01D-06
 CPU and wall times used in FCKEIG, THR_FCKEIG:   3.00D-02  1.78D-01  9.43D-04
 -----------------------------------------------------------------------------

 *** DIIS iteration number    5
 RDSUPM called. NFMAT, ISYMDM(1:NFMAT)                     1
                     1

 ITDIIS, energy, error norm, change in energy, scr.thr., difden:
@ DIIS iter.   5    -361.239560928        2.92258D-02   -1.07D-03  -20    F

 (DIIS_RED) Control Parameters C2DIIS =         F NEVC =    5


 (DIIS_RED) B matrix:

               Column   1     Column   2     Column   3     Column   4     Column   5
       1      16.24411108
       2       0.70718937     1.33945602
       3       0.82418235    -0.00131224     0.14286676
       4       0.06003645     0.07985060     0.00623359     0.00888814
       5       0.02178703     0.00682869     0.00594840     0.00098476     0.00085415
    ==== End of matrix output ====

 DIIS C vector; C2DIIS = F, LAMBDA = -5.94D-04
    0.001269   -0.009101   -0.047306    0.063264    0.991875
* Read MO coefficients from SIRIUS.RST with label "NEWORB  " and header info:  7Dec18  DIIS   5
      Virial theorem: -V/T =      2.002717
@      MULPOP N      -0.36; H       0.33; H       0.34; H       0.20; H       0.34; O      -0.67; O      -0.60; O      -0.72; O      -0.69; H       0.35; 
@             H       0.35; H       0.33; H       0.31; H       0.42; H       0.34; H       0.34; H       0.39; 

 DIIS Fock eigenvalues in symmetry 1
      -20.67244      -20.64277      -20.63279      -20.61899      -15.70486
       -1.44995       -1.41817       -1.41696       -1.40835       -1.31678
       -0.81671       -0.80966       -0.79036       -0.77844       -0.77750
       -0.76026       -0.75574       -0.69686       -0.66446       -0.65226
       -0.64463       -0.62546       -0.59624       -0.58833       -0.58008
       -0.00005        0.05020        0.09598        0.11053        0.11824
        0.16676        0.18333        0.18668        0.19922        0.23774
        0.24982        0.26742        0.29305        0.35807        0.37919
        0.41585        0.45412        0.49913        0.51090        0.51537
        0.53208        0.53572        0.54532        0.57374        0.62851
        0.80257        0.83642        0.85326        0.87181        0.89638
        0.90223        0.92760        0.97527        0.99161        1.00757
        1.02130        1.04141        1.06651        1.07242        1.08632
        1.16614        1.17335        1.21133        1.28535        1.33839
        1.36244        1.39871        1.41088        1.43512        1.43724
        1.43860        1.46826        1.47582        1.49005        1.55599
        1.60898        1.61992        1.63530        1.64544        1.68467
        1.72829        1.76998        1.80859        1.86272        1.87608
        1.89474        1.97829        1.99177        2.10893        2.13531
        2.14527        2.15694        2.17057        2.23496        2.24706
        2.27358        2.29867        2.34180        2.34779        2.39725
        2.51633        2.53745        2.55142        2.56204        2.59571
        2.61866        2.65712        2.68203        2.74755        2.76613
        2.78362        2.81354        2.91070        2.94199        3.13670
        3.21572        3.27644        3.32406        3.35845        3.40105
        3.40741        3.41295        3.41821        3.44689        3.46537
        3.47485        3.55451        3.55915        3.62875        3.63390
        3.91491        3.92185        3.93092        3.93185        4.08514
        4.12336        4.16214        4.21376        4.97381        5.07467
        5.16261        5.24696        5.27046        5.27574        5.34564
        5.57221        5.70751        5.77241        5.79060        5.99762
        6.00894        6.04972        6.05090       36.89763       51.39797
       51.43410       51.46797       51.47127
 Time used in FCKEIG, thr_jaco:   2.50D-02  2.62D-01  1.24D-06
 CPU and wall times used in FCKEIG, THR_FCKEIG:   2.50D-02  2.62D-01  2.92D-04
 -----------------------------------------------------------------------------

 *** DIIS iteration number    6
 RDSUPM called. NFMAT, ISYMDM(1:NFMAT)                     1
                     1

 ITDIIS, energy, error norm, change in energy, scr.thr., difden:
@ DIIS iter.   6    -361.239651224        1.08690D-02   -9.03D-05  -20    F

 (DIIS_RED) Control Parameters C2DIIS =         F NEVC =    6


 (DIIS_RED) B matrix:

               Column   1     Column   2     Column   3     Column   4     Column   5     Column   6
       1      16.24411108
       2       0.70718937     1.33945602
       3       0.82418235    -0.00131224     0.14286676
       4       0.06003645     0.07985060     0.00623359     0.00888814
       5       0.02178703     0.00682869     0.00594840     0.00098476     0.00085415
       6      -0.00531118    -0.00034741     0.00072419     0.00052602     0.00002910     0.00011813
    ==== End of matrix output ====

 DIIS C vector; C2DIIS = F, LAMBDA = -3.72D-05
    0.000810    0.006852   -0.010083   -0.130896    0.155903    0.977414
* Read MO coefficients from SIRIUS.RST with label "NEWORB  " and header info:  7Dec18  DIIS   6
      Virial theorem: -V/T =      2.002955
@      MULPOP N      -0.36; H       0.33; H       0.34; H       0.20; H       0.34; O      -0.67; O      -0.60; O      -0.72; O      -0.69; H       0.35; 
@             H       0.35; H       0.33; H       0.31; H       0.43; H       0.34; H       0.34; H       0.39; 

 DIIS Fock eigenvalues in symmetry 1
      -20.67409      -20.64573      -20.63526      -20.62081      -15.70686
       -1.45031       -1.41902       -1.41771       -1.40886       -1.31734
       -0.81721       -0.81034       -0.79095       -0.77929       -0.77819
       -0.76074       -0.75626       -0.69746       -0.66547       -0.65317
       -0.64554       -0.62552       -0.59689       -0.58883       -0.58034
       -0.00005        0.05013        0.09584        0.11034        0.11809
        0.16665        0.18322        0.18655        0.19911        0.23755
        0.24966        0.26724        0.29287        0.35791        0.37901
        0.41556        0.45399        0.49891        0.51062        0.51512
        0.53172        0.53542        0.54507        0.57344        0.62828
        0.80216        0.83599        0.85295        0.87151        0.89601
        0.90196        0.92733        0.97489        0.99124        1.00714
        1.02088        1.04108        1.06600        1.07202        1.08586
        1.16577        1.17301        1.21104        1.28503        1.33803
        1.36198        1.39843        1.41049        1.43470        1.43688
        1.43825        1.46798        1.47546        1.48966        1.55563
        1.60869        1.61962        1.63496        1.64515        1.68439
        1.72814        1.76980        1.80826        1.86245        1.87579
        1.89454        1.97809        1.99151        2.10867        2.13486
        2.14473        2.15639        2.17005        2.23465        2.24671
        2.27299        2.29828        2.34150        2.34734        2.39692
        2.51606        2.53710        2.55126        2.56171        2.59539
        2.61839        2.65697        2.68178        2.74736        2.76577
        2.78338        2.81320        2.91015        2.94139        3.13645
        3.21494        3.27571        3.32347        3.35780        3.40029
        3.40672        3.41231        3.41717        3.44598        3.46445
        3.47417        3.55401        3.55812        3.62788        3.63322
        3.91385        3.92113        3.93023        3.93109        4.08458
        4.12223        4.16118        4.21303        4.97284        5.07370
        5.16158        5.24562        5.26890        5.27470        5.34481
        5.57134        5.70589        5.77120        5.78938        5.99598
        6.00805        6.04867        6.04955       36.89567       51.39635
       51.43118       51.46574       51.46924
 Time used in FCKEIG, thr_jaco:   2.60D-02  1.58D-01  4.63D-07
 CPU and wall times used in FCKEIG, THR_FCKEIG:   2.60D-02  1.58D-01  1.09D-04
 -----------------------------------------------------------------------------

 *** DIIS iteration number    7
 RDSUPM called. NFMAT, ISYMDM(1:NFMAT)                     1
                     1

 ITDIIS, energy, error norm, change in energy, scr.thr., difden:
@ DIIS iter.   7    -361.239663098        2.37139D-03   -1.19D-05  -20    F

 (DIIS_RED) Control Parameters C2DIIS =         F NEVC =    7


 (DIIS_RED) B matrix:

               Column   1     Column   2     Column   3     Column   4     Column   5     Column   6
       1      16.24411108
       2       0.70718937     1.33945602
       3       0.82418235    -0.00131224     0.14286676
       4       0.06003645     0.07985060     0.00623359     0.00888814
       5       0.02178703     0.00682869     0.00594840     0.00098476     0.00085415
       6      -0.00531118    -0.00034741     0.00072419     0.00052602     0.00002910     0.00011813
       7       0.00043975     0.00023191    -0.00001410     0.00001158     0.00004750    -0.00000130

               Column   7
       7       0.00000562
    ==== End of matrix output ====

 DIIS C vector; C2DIIS = F, LAMBDA = -1.24D-06
   -0.000250   -0.000772    0.005824    0.021143   -0.113388   -0.091926    1.179369
* Read MO coefficients from SIRIUS.RST with label "NEWORB  " and header info:  7Dec18  DIIS   7
      Virial theorem: -V/T =      2.002888
@      MULPOP N      -0.36; H       0.33; H       0.34; H       0.20; H       0.34; O      -0.67; O      -0.60; O      -0.72; O      -0.69; H       0.35; 
@             H       0.35; H       0.33; H       0.31; H       0.43; H       0.34; H       0.34; H       0.39; 

 DIIS Fock eigenvalues in symmetry 1
      -20.67385      -20.64526      -20.63491      -20.62062      -15.70644
       -1.45017       -1.41882       -1.41754       -1.40874       -1.31715
       -0.81713       -0.81020       -0.79081       -0.77915       -0.77807
       -0.76061       -0.75615       -0.69743       -0.66539       -0.65311
       -0.64548       -0.62533       -0.59665       -0.58863       -0.58018
       -0.00005        0.05018        0.09589        0.11037        0.11812
        0.16669        0.18328        0.18658        0.19917        0.23758
        0.24973        0.26732        0.29294        0.35803        0.37912
        0.41568        0.45406        0.49896        0.51070        0.51518
        0.53176        0.53545        0.54512        0.57348        0.62838
        0.80229        0.83613        0.85304        0.87162        0.89615
        0.90210        0.92746        0.97502        0.99134        1.00724
        1.02098        1.04119        1.06605        1.07210        1.08595
        1.16590        1.17312        1.21115        1.28515        1.33815
        1.36211        1.39848        1.41059        1.43473        1.43691
        1.43827        1.46803        1.47547        1.48971        1.55571
        1.60875        1.61967        1.63502        1.64521        1.68448
        1.72823        1.76982        1.80829        1.86250        1.87584
        1.89463        1.97818        1.99160        2.10877        2.13491
        2.14478        2.15645        2.17008        2.23479        2.24676
        2.27305        2.29836        2.34161        2.34737        2.39703
        2.51614        2.53713        2.55131        2.56173        2.59546
        2.61848        2.65704        2.68182        2.74741        2.76579
        2.78343        2.81319        2.91034        2.94158        3.13659
        3.21515        3.27591        3.32362        3.35797        3.40045
        3.40685        3.41245        3.41737        3.44615        3.46466
        3.47429        3.55414        3.55832        3.62805        3.63334
        3.91403        3.92123        3.93036        3.93123        4.08472
        4.12245        4.16137        4.21316        4.97310        5.07396
        5.16185        5.24586        5.26920        5.27487        5.34499
        5.57150        5.70617        5.77138        5.78956        5.99625
        6.00821        6.04880        6.04975       36.89607       51.39659
       51.43165       51.46604       51.46948
 Time used in FCKEIG, thr_jaco:   3.10D-02  4.70D-02  1.01D-07
 CPU and wall times used in FCKEIG, THR_FCKEIG:   3.10D-02  4.70D-02  2.37D-05
 -----------------------------------------------------------------------------

 *** DIIS iteration number    8
 RDSUPM called. NFMAT, ISYMDM(1:NFMAT)                     1
                     1

 ITDIIS, energy, error norm, change in energy, scr.thr., difden:
@ DIIS iter.   8    -361.239663656        3.54036D-04   -5.59D-07  -20    F

 (DIIS_RED) Control Parameters C2DIIS =         F NEVC =    8


 (DIIS_RED) B matrix:

               Column   1     Column   2     Column   3     Column   4     Column   5     Column   6
       1      16.24411108
       2       0.70718937     1.33945602
       3       0.82418235    -0.00131224     0.14286676
       4       0.06003645     0.07985060     0.00623359     0.00888814
       5       0.02178703     0.00682869     0.00594840     0.00098476     0.00085415
       6      -0.00531118    -0.00034741     0.00072419     0.00052602     0.00002910     0.00011813
       7       0.00043975     0.00023191    -0.00001410     0.00001158     0.00004750    -0.00000130
       8       0.00008368    -0.00004864     0.00000920     0.00000107     0.00000036     0.00000166

               Column   7     Column   8
       7       0.00000562
       8       0.00000031     0.00000013
    ==== End of matrix output ====

 DIIS C vector; C2DIIS = F, LAMBDA = -6.24D-08
    0.000011    0.000005   -0.000757   -0.000367    0.016611   -0.015841   -0.200235    1.200573
* Read MO coefficients from SIRIUS.RST with label "NEWORB  " and header info:  7Dec18  DIIS   8
      Virial theorem: -V/T =      2.002906
@      MULPOP N      -0.36; H       0.33; H       0.34; H       0.20; H       0.34; O      -0.67; O      -0.60; O      -0.72; O      -0.69; H       0.35; 
@             H       0.35; H       0.33; H       0.31; H       0.43; H       0.34; H       0.34; H       0.39; 

 DIIS Fock eigenvalues in symmetry 1
      -20.67384      -20.64532      -20.63491      -20.62057      -15.70647
       -1.45017       -1.41884       -1.41753       -1.40873       -1.31716
       -0.81712       -0.81021       -0.79082       -0.77916       -0.77806
       -0.76061       -0.75614       -0.69745       -0.66542       -0.65313
       -0.64550       -0.62532       -0.59667       -0.58863       -0.58017
       -0.00005        0.05018        0.09588        0.11037        0.11812
        0.16669        0.18328        0.18659        0.19916        0.23758
        0.24973        0.26731        0.29293        0.35802        0.37912
        0.41567        0.45406        0.49896        0.51070        0.51517
        0.53176        0.53545        0.54512        0.57348        0.62837
        0.80228        0.83612        0.85303        0.87162        0.89614
        0.90209        0.92746        0.97501        0.99134        1.00724
        1.02098        1.04119        1.06605        1.07210        1.08595
        1.16589        1.17311        1.21115        1.28515        1.33815
        1.36210        1.39847        1.41059        1.43473        1.43691
        1.43827        1.46803        1.47547        1.48971        1.55571
        1.60875        1.61967        1.63502        1.64521        1.68447
        1.72823        1.76981        1.80828        1.86250        1.87583
        1.89463        1.97817        1.99159        2.10876        2.13490
        2.14478        2.15645        2.17008        2.23477        2.24675
        2.27304        2.29835        2.34160        2.34737        2.39702
        2.51613        2.53713        2.55131        2.56173        2.59545
        2.61846        2.65704        2.68181        2.74741        2.76578
        2.78342        2.81319        2.91032        2.94156        3.13657
        3.21513        3.27589        3.32362        3.35796        3.40045
        3.40685        3.41245        3.41734        3.44614        3.46463
        3.47429        3.55414        3.55829        3.62805        3.63335
        3.91401        3.92124        3.93036        3.93123        4.08472
        4.12242        4.16136        4.21317        4.97308        5.07394
[...]
 | 1 1 1 1 |  29   1  12   1 |     1547        1 |      1195832 |    0.083406  |
 | 1 1 1 1 |  12   1  13   1 |     1668        1 |      1390279 |   -0.081903  |
 | 1 1 1 1 |  28   1  13   1 |     1684        1 |      1417087 |   -0.067006  |
 | 1 1 1 1 |  29   1  13   1 |     1685        1 |      1418771 |    0.070214  |
 | 1 1 1 1 |  27   1  16   1 |     2097        1 |      2197657 |   -0.076659  |
 | 1 1 1 1 |  13   1  17   1 |     2221        1 |      2465311 |   -0.071935  |
 | 1 1 1 1 |  26   1  17   1 |     2234        1 |      2494262 |   -0.082939  |
 | 1 1 1 1 |  27   1  19   1 |     2511        1 |      3151306 |   -0.065267  |
 +=============================================================================+


          Norm of Printed Amplitude Vector :             0.8568

          Printed all single excitations greater than 0.381614

          Printed all double excitations greater than 0.064613



+======================================================================+
| contributions of excitation levels to right eigenvectors as computed |
| from the (RE|RE) self overlap                                        |
+----------------------------------------------------------------------+
| sym | multi | state |    E / eV  | % singles | % doubles | % triples |
+======================================================================+
|    1|   1   |   1   |  411.32449 |  88.2340  |  11.7660  |   0.0000  |
+======================================================================+





+======================================================================+
| contributions of excitation levels to excited states as computed     |
| from the (LE|RE) overlap                                             |
+----------------------------------------------------------------------+
| sym | multi | state |    E / eV  | % singles | % doubles | % triples |
+======================================================================+
|    1|   1   |   1   |  411.32449 |  79.1731  |  20.8269  |   0.0000  |
+======================================================================+



 --------------------------
 Symmetry class Nr.:     1
 Multiplicity      :     3
 --------------------------

 Length of Excitation vectors in this class is:   8404200
 No Excitation Energies calculated in this symmetry class
     

   *******************************************************************
   *                                                                 *
   *--------   OUTPUT FROM PROPERTY AND SYMMETRY ANALYSIS   ---------*
   *                                                                 *
   *******************************************************************



                         +-------------------------------+
                         ! REQUESTED PROPERTY OPERATORS: !
                         +-------------------------------+

             Index   Oper. Label  Symmetry  Transp.  PDBS  Atom
             --------------------------------------------------
                1     HAM0            1        1      T      0
                2     XDIPLEN         1        1      F      0
                3     YDIPLEN         1        1      F      0
                4     ZDIPLEN         1        1      F      0
             --------------------------------------------------




                         +-------------------------------+
                         ! REQUESTED EXPECTATION VALUES: !
                         +-------------------------------+

                       Index   Oper. Label  Symmetry
                       -----------------------------
                       -----------------------------




                       +------------------------------------+
                       ! REQUESTED EFFECTIVE FOCK MATRICES: !
                       +------------------------------------+

                       Index   Oper. Label  Symmetry
                       -----------------------------
                       -----------------------------




                        +----------------------------------+
                        ! REQUESTED FIRST ORDER M-VECTORS: !
                        +----------------------------------+

               Index   State Symmetry  Frequency
               --------------------------------------------------
                  1             1    1     1.511590D+01
               --------------------------------------------------


      

    *******************************************************************
    *          SOLVING COUPLED CLUSTER RESPONSE EQUATIONS             *
    *******************************************************************



 
 +======================================================================+
 !                     RHS & ETA VECTORS TO COMPUTE:                    !
 +======================================================================+
 | TYPE | # VEC. |  NEEDED FOR:                                         |
 +----------------------------------------------------------------------+
 +======================================================================+



 +======================================================================+
 !                       LINEAR EQUATIONS TO SOLVE:                     !
 +======================================================================+
 | TYPE | # VEC. |  EQUATION:                                           |
 +----------------------------------------------------------------------+
 |  M1  |    1   |  first-order ground - excited state multipliers      |
 +======================================================================+



 +======================================================================+
 !                F MATRIX TRANSFORMATIONS TO COMPUTE:                  !
 +======================================================================+
 | TYPE | # VEC. |  TRANSFORMED:                                        |
 +----------------------------------------------------------------------+
 |  FR  |    1   |  right eigenvectors (RE)                             |
 +======================================================================+





 Testing R1 list: 

 List nr.  Label     Symmetry      Frequency      T1-norm        T2-norm


 Testing L1 list: 

 List nr.  Label     Symmetry      Frequency      T1-norm        T2-norm
  Solvent 1-order response equations converged in                     0 
  solvent iterations
 SONIAPRI                     0
 CCEQ_STR: CVSEPARATION =  T
 CCEQ_STR: IONIZATION =  T
 CCEQ_STR: REMOVE_CORE =  F
 could not find required file CCM1_1___1
 IOPTSV is    33 ... program continues nevertheless.
 Vector nr.  1 of type M1  and symmetry  1 was not found on file.
     M1  start vector nr.  1 of symmetry  1 generated from gradient
 CCEQ_STR: freeze VALENCE OR VIRT
 CCEQ_SOL: CVSEPARA=     T
 CCEQ_SOL: LIONISAT=     T
 CCEQ_SOL: REMOVE_CORE =  F



 ----- COUPLED CLUSTER RESPONSE SOLVER -----

    Iter  #Vectors  time (min)   residual
    --------------------------------------
 CCRED CVS/IONIS sigma_                     1 
 project out valence occupied or virtual
      1       1         1.35     0.21E+01
 CCRED CVS/IONIS sigma_                     2 
 project out valence occupied or virtual
      2       1         1.33     0.38E+00
 CCRED CVS/IONIS sigma_                     3 
 project out valence occupied or virtual
      3       1         1.33     0.49E-01
 CCRED CVS/IONIS sigma_                     4 
 project out valence occupied or virtual
                    -1  vectors with norm le:  1.000000000000000E-035  REMOVED

 CCORT,**WARNING**  number vectors added is zero after check for vector norm , NBADD :    0

 CCORT, number vectors added is zero , NBADD :    0

 CCORT, number vectors added is zero , NBADD :    0

 CCORT, number vectors added is zero , NBADD :    0

 CCORT, number vectors added is zero , NBADD :    0

 *** MICROITERATIONS STOPPED DUE TO LINEAR DEPENDENCE BETWEEN ALL NEW TRIAL VECTORS
                     0  trial vectors converged
  LINEAR DEPENDENCE BETWEEN                     1  NON CONVERGED TRIAL VECTORS
      4       1         1.33     0.54E-02

 ***  CCEQ_SOL -MICROITERATIONS STOPPED  
     LINEAR DEPENDENCE BETWEEN ALL NEW TRIAL VECTORS
    --------------------------------------
    converged in  4 iterations
    threshold:    0.10E-08


         Routine          Time (min)
         ---------------------------
         CC_TRDRV            5.34
         CCRED               0.03
         CCNEX               0.05
         ---------------------------
         Total time          5.43


  Total CPU  time used in CCEQ_SOLV:  5 minutes 26 seconds
  Total wall time used in CCEQ_SOLV:  8 minutes 37 seconds


 xxxxxxxxxxxxxxxxxxxxxxxxxxxxxxxxxxxxx

 
 Solution of CC response equations completed.
 

 *******************************************************************
 *                                                                 *
 *--------  OUTPUT FROM COUPLED CLUSTER LINEAR RESPONSE   ---------*
 *                                                                 *
 *--------      CALCULATION OF SECOND ORDER RESIDUES      ---------*
 *                                                                 *
 *******************************************************************



                  +---------------------------------------------+
                  ! CC_SOPR: Calculation of CCSD       Residues !
                  +---------------------------------------------+

 Doing the Mf*CsiA
 Doing the Mf*CsiA
 Doing the Mf*CsiA


 CCSD  Right transition moments in atomic units:
 -----------------------------------------------

  1      15.115897  <XDIPLEN |f> =      -0.00000002
  1      15.115897  <YDIPLEN |f> =       0.00000007
  1      15.115897  <ZDIPLEN |f> =      -0.00000004


 CCSD  Left  transition moments in atomic units:
 -----------------------------------------------

  1      15.115897  <f|XDIPLEN > =      -0.00000001
  1      15.115897  <f|YDIPLEN > =       0.00000003
  1      15.115897  <f|ZDIPLEN > =      -0.00000002


 CCSD  linear response residue property in atomic units:
 -------------------------------------------------------

 RES{<<XDIPLEN ,XDIPLEN >>(15.115897)} =     0.00000000 (   0.00000002)
 RES{<<XDIPLEN ,YDIPLEN >>(15.115897)} =    -0.00000000 (  -0.00000003)
 RES{<<XDIPLEN ,ZDIPLEN >>(15.115897)} =     0.00000000 (   0.00000002)
 RES{<<YDIPLEN ,XDIPLEN >>(15.115897)} =    -0.00000000 (  -0.00000003)
 RES{<<YDIPLEN ,YDIPLEN >>(15.115897)} =     0.00000000 (   0.00000005)
 RES{<<YDIPLEN ,ZDIPLEN >>(15.115897)} =    -0.00000000 (  -0.00000004)
 RES{<<ZDIPLEN ,XDIPLEN >>(15.115897)} =     0.00000000 (   0.00000002)
 RES{<<ZDIPLEN ,YDIPLEN >>(15.115897)} =    -0.00000000 (  -0.00000004)
 RES{<<ZDIPLEN ,ZDIPLEN >>(15.115897)} =     0.00000000 (   0.00000003)


 CCSD  Transition strength matrix for state nr.  1 of symmetry 1
 CCSD  excitation energy:15.11589722

 Gauge: length

               Column   1     Column   2     Column   3
       1     2.520188D-16  -7.614936D-16   4.513299D-16
       2    -7.614936D-16   2.300906D-15  -1.363732D-15
       3     4.513299D-16  -1.363732D-15   8.082597D-16
    ==== End of matrix output ====

 Principal values of diagonalized transition strength matrix:

             a.u.               
 1       0.00000000
 2       0.00000000
 3       0.00000000

 Principal axis of diagonalized transition strength matrix:


               Column   1     Column   2     Column   3
       1       1.00000000     0.00000000     0.00000000
       2       0.00000000     1.00000000     0.00000000
       3       0.00000000     0.00000000     1.00000000
    ==== End of matrix output ====


 CCSD   oscillator strength matrix for state nr.  1 of symmetry 1
 CCSD  excitation energy:15.11589722


               Column   1     Column   2     Column   3
       1     2.539660D-15  -7.673772D-15   4.548171D-15
       2    -7.673772D-15   2.318684D-14  -1.374269D-14
       3     4.548171D-15  -1.374269D-14   8.145047D-15
    ==== End of matrix output ====

 Principal values of diagonalized oscillator strength matrix:

             a.u.               
 1       0.00000000
 2       0.00000000
 3       0.00000000

 Principal axis of diagonalized oscillator strength matrix:


               Column   1     Column   2     Column   3
       1       1.00000000     0.00000000     0.00000000
       2       0.00000000     1.00000000     0.00000000
       3       0.00000000     0.00000000     1.00000000
    ==== End of matrix output ====

  Total time for      9 linear response residues:       3.00 seconds.
  

 *******************************************************************************
 *******************************************************************************
 *                                                                             *
 *                                                                             *
 *                   SUMMARY OF COUPLED CLUSTER CALCULATION                    *
 *                                                                             *
 *                                                                             *
 *******************************************************************************
 *******************************************************************************

                                                                                
                                                                                
            Total SCF   energy:                  -361.2396636734                
            Total MP2   energy:                  -362.3440116538                
            Total CCSD  energy:                  -362.3853261538                
                                                                                
                                                                                
            Total SCF   energy:                  -361.2396636734                
            Total RSTAR energy:                  -362.3853261538                
            Total CCSD  energy:                  -362.3854633470                
                                                                                
                                                                                
            Total SCF   energy:                  -361.2396636734                
            Total RSTAR energy:                  -362.3854633470                
            Total CCSD  energy:                  -362.3854642266                
                                                                                
                                                                                
            Total SCF   energy:                  -361.2396636734                
            Total RSTAR energy:                  -362.3854642266                
            Total CCSD  energy:                  -362.3854642940                
                                                                                
                                                                                
            Total SCF   energy:                  -361.2396636734                
            Total RSTAR energy:                  -362.3854642940                
            Total CCSD  energy:                  -362.3854642965                
                                                                                
                                                                                
            Total SCF   energy:                  -361.2396636734                
            Total RSTAR energy:                  -362.3854642965                
            Total CCSD  energy:                  -362.3854642965                
            CCSD Total  energy:                  -362.8381597890                
            CCSD E(QM/MM)     :                    -0.4484201498                
                                                                                
                                                                                
                                                                                
 +=============================================================================+
 |  sym. | Exci.  |        CCSD       Excitation energies            | ||T1||  |
 |(spin, |        +------------------------------------------------------------+
 | spat) |        |     Hartree    |       eV.      |     cm-1       |    %    |
 +=============================================================================+
 | ^1A   |    1   |    15.1158972  |     411.32449  |   3317555.939  |  88.23  |
 +=============================================================================+
                                                                                
                                                                                
     Total energies in Hartree:                                                 
             1 ^1A       -347.2738424196                                        
                                                                                
                                                                                
 +=============================================================================+
 |  sym. | Exci.  |        CCSD       Length   Gauge Oscillator Strength       |
 |(spin, |        +------------------------------------------------------------+
 | spat) |        | Dipole Strength(a.u.) | Oscillator strength  | Direction   |
 +=============================================================================+
 | ^1A   |    1   |        0.0000000      |      0.0000000       |    -        |
 +=============================================================================+

  1 a.u. =        27.21138 eV.  
  1 a.u. =    219474.62934 cm-1.
  

 *******************************************************************************
 *******************************************************************************
 *                                                                             *
 *                                                                             *
 *                      END OF COUPLED CLUSTER CALCULATION                     *
 *                                                                             *
 *                                                                             *
 *******************************************************************************
 *******************************************************************************


 CPU and wall time for CC :    6034.082    8997.920

 
     Date and time (Linux)  : Fri Dec  7 19:22:16 2018
     Host name              : n-62-30-11                              


                      .-------------------------------------.
                      | End of Coupled Cluster Section (CC) |
                      `-------------------------------------'

  Total CPU  time used in DALTON:   1 hour  42 minutes 37 seconds
  Total wall time used in DALTON:   2 hours 35 minutes 47 seconds

 
     Date and time (Linux)  : Fri Dec  7 19:22:17 2018
     Host name              : n-62-30-11                              
  

 +---------------------------------------------------------+ 
 | List of selected calculated molecular properties (a.u.) | 
 +---------------------------------------------------------+ 

  Properties are read from unit number                      4

 CCSD       properties :
 #  1 1 CCSD/MM  Ground state Energy =    -362.8381597890
 #  2 1 E_QM/MM  Ground state Energy =      -0.4484201498
 #  3 1 Sy: 1 Sp: 1 Exc:  1 E_tot:   -347.2738424196 w:     15.1158972196 E_grs:   -362.3897396392
 #  4 1 Exctot   Excited state Energy =    -347.2738424196
 #  5 1 |<O|XDIPLEN |i(15.115897)>| =     0.00000002
 #  7 1 |<O|YDIPLEN |i(15.115897)>| =     0.00000005
 #  9 1 |<O|ZDIPLEN |i(15.115897)>| =     0.00000003

 THE_END   
