

     ************************************************************************
     *************** Dalton - An Electronic Structure Program ***************
     ************************************************************************

    This is output from DALTON release Dalton2017.alpha (2016)
         ( Web site: http://daltonprogram.org )

   ----------------------------------------------------------------------------

    NOTE:
     
    Dalton is an experimental code for the evaluation of molecular
    properties using (MC)SCF, DFT, CI, and CC wave functions.
    The authors accept no responsibility for the performance of
    the code or for the correctness of the results.
     
    The code (in whole or part) is provided under a licence and
    is not to be reproduced for further distribution without
    the written permission of the authors or their representatives.
     
    See the home page "http://daltonprogram.org" for further information.
     
    If results obtained with this code are published,
    the appropriate citations would be both of:
     
       K. Aidas, C. Angeli, K. L. Bak, V. Bakken, R. Bast,
       L. Boman, O. Christiansen, R. Cimiraglia, S. Coriani,
       P. Dahle, E. K. Dalskov, U. Ekstroem,
       T. Enevoldsen, J. J. Eriksen, P. Ettenhuber, B. Fernandez,
       L. Ferrighi, H. Fliegl, L. Frediani, K. Hald, A. Halkier,
       C. Haettig, H. Heiberg, T. Helgaker, A. C. Hennum,
       H. Hettema, E. Hjertenaes, S. Hoest, I.-M. Hoeyvik,
       M. F. Iozzi, B. Jansik, H. J. Aa. Jensen, D. Jonsson,
       P. Joergensen, J. Kauczor, S. Kirpekar,
       T. Kjaergaard, W. Klopper, S. Knecht, R. Kobayashi, H. Koch,
       J. Kongsted, A. Krapp, K. Kristensen, A. Ligabue,
       O. B. Lutnaes, J. I. Melo, K. V. Mikkelsen, R. H. Myhre,
       C. Neiss, C. B. Nielsen, P. Norman, J. Olsen,
       J. M. H. Olsen, A. Osted, M. J. Packer, F. Pawlowski,
       T. B. Pedersen, P. F. Provasi, S. Reine, Z. Rinkevicius,
       T. A. Ruden, K. Ruud, V. Rybkin, P. Salek, C. C. M. Samson,
       A. Sanchez de Meras, T. Saue, S. P. A. Sauer,
       B. Schimmelpfennig, K. Sneskov, A. H. Steindal,
       K. O. Sylvester-Hvid, P. R. Taylor, A. M. Teale,
       E. I. Tellgren, D. P. Tew, A. J. Thorvaldsen, L. Thoegersen,
       O. Vahtras, M. A. Watson, D. J. D. Wilson, M. Ziolkowski
       and H. Agren,
       "The Dalton quantum chemistry program system",
       WIREs Comput. Mol. Sci. 2014, 4:269–284 (doi: 10.1002/wcms.1172)
     
    and
     
       Dalton, a Molecular Electronic Structure Program,
       Release Dalton2017.alpha (2016), see http://daltonprogram.org
   ----------------------------------------------------------------------------

    Authors in alphabetical order (major contribution(s) in parenthesis):

  Kestutis Aidas,           Vilnius University,           Lithuania   (QM/MM)
  Celestino Angeli,         University of Ferrara,        Italy       (NEVPT2)
  Keld L. Bak,              UNI-C,                        Denmark     (AOSOPPA, non-adiabatic coupling, magnetic properties)
  Vebjoern Bakken,          University of Oslo,           Norway      (DALTON; geometry optimizer, symmetry detection)
  Radovan Bast,             UiT The Arctic U. of Norway,  Norway      (DALTON installation and execution frameworks)
  Pablo Baudin,             University of Valencia,       Spain       (Cholesky excitation energies)
  Linus Boman,              NTNU,                         Norway      (Cholesky decomposition and subsystems)
  Ove Christiansen,         Aarhus University,            Denmark     (CC module)
  Renzo Cimiraglia,         University of Ferrara,        Italy       (NEVPT2)
  Sonia Coriani,            University of Trieste,        Italy       (CC module, MCD in RESPONS)
  Janusz Cukras,            University of Trieste,        Italy       (MChD in RESPONS)
  Paal Dahle,               University of Oslo,           Norway      (Parallelization)
  Erik K. Dalskov,          UNI-C,                        Denmark     (SOPPA)
  Thomas Enevoldsen,        Univ. of Southern Denmark,    Denmark     (SOPPA)
  Janus J. Eriksen,         Aarhus University,            Denmark     (Polarizable embedding model, TDA)
  Rasmus Faber,             University of Copenhagen,     Denmark     (Vib.avg. NMR with SOPPA, parallel AO-SOPPA)
  Berta Fernandez,          U. of Santiago de Compostela, Spain       (doublet spin, ESR in RESPONS)
  Lara Ferrighi,            Aarhus University,            Denmark     (PCM Cubic response)
  Heike Fliegl,             University of Oslo,           Norway      (CCSD(R12))
  Luca Frediani,            UiT The Arctic U. of Norway,  Norway      (PCM)
  Bin Gao,                  UiT The Arctic U. of Norway,  Norway      (Gen1Int library)
  Christof Haettig,         Ruhr-University Bochum,       Germany     (CC module)
  Kasper Hald,              Aarhus University,            Denmark     (CC module)
  Asger Halkier,            Aarhus University,            Denmark     (CC module)
  Frederik Beyer Hansen,    University of Copenhagen,     Denmark     (Parallel AO-SOPPA)
  Erik D. Hedegaard,        Univ. of Southern Denmark,    Denmark     (Polarizable embedding model, QM/MM)
  Hanne Heiberg,            University of Oslo,           Norway      (geometry analysis, selected one-electron integrals)
  Trygve Helgaker,          University of Oslo,           Norway      (DALTON; ABACUS, ERI, DFT modules, London, and much more)
  Alf Christian Hennum,     University of Oslo,           Norway      (Parity violation)
  Hinne Hettema,            University of Auckland,       New Zealand (quadratic response in RESPONS; SIRIUS supersymmetry)
  Eirik Hjertenaes,         NTNU,                         Norway      (Cholesky decomposition)
  Pi A. B. Haase,           University of Copenhagen,     Denmark     (Triplet AO-SOPPA)
  Maria Francesca Iozzi,    University of Oslo,           Norway      (RPA)
  Brano Jansik              Technical Univ. of Ostrava    Czech Rep.  (DFT cubic response)
  Hans Joergen Aa. Jensen,  Univ. of Southern Denmark,    Denmark     (DALTON; SIRIUS, RESPONS, ABACUS modules, London, and much more)
  Dan Jonsson,              UiT The Arctic U. of Norway,  Norway      (cubic response in RESPONS module)
  Poul Joergensen,          Aarhus University,            Denmark     (RESPONS, ABACUS, and CC modules)
  Maciej Kaminski,          University of Warsaw,         Poland      (CPPh in RESPONS)
  Joanna Kauczor,           Linkoeping University,        Sweden      (Complex polarization propagator (CPP) module)
  Sheela Kirpekar,          Univ. of Southern Denmark,    Denmark     (Mass-velocity & Darwin integrals)
  Wim Klopper,              KIT Karlsruhe,                Germany     (R12 code in CC, SIRIUS, and ABACUS modules)
  Stefan Knecht,            ETH Zurich,                   Switzerland (Parallel CI and MCSCF)
  Rika Kobayashi,           Australian National Univ.,    Australia   (DIIS in CC, London in MCSCF)
  Henrik Koch,              NTNU,                         Norway      (CC module, Cholesky decomposition)
  Jacob Kongsted,           Univ. of Southern Denmark,    Denmark     (Polarizable embedding model, QM/MM)
  Andrea Ligabue,           University of Modena,         Italy       (CTOCD, AOSOPPA)
  Nanna H. List             Univ. of Southern Denmark,    Denmark     (Polarizable embedding model)
  Ola B. Lutnaes,           University of Oslo,           Norway      (DFT Hessian)
  Juan I. Melo,             University of Buenos Aires,   Argentina   (LRESC, Relativistic Effects on NMR Shieldings)
  Kurt V. Mikkelsen,        University of Copenhagen,     Denmark     (MC-SCRF and QM/MM)
  Rolf H. Myhre,            NTNU,                         Norway      (Cholesky, subsystems and ECC2)
  Christian Neiss,          Univ. Erlangen-Nuernberg,     Germany     (CCSD(R12))
  Christian B. Nielsen,     University of Copenhagen,     Denmark     (QM/MM)
  Patrick Norman,           Linkoeping University,        Sweden      (Cubic response and complex frequency response in RESPONS)
  Jeppe Olsen,              Aarhus University,            Denmark     (SIRIUS CI/density modules)
  Jogvan Magnus H. Olsen,   Univ. of Southern Denmark,    Denmark     (Polarizable embedding model, QM/MM)
  Anders Osted,             Copenhagen University,        Denmark     (QM/MM)
  Martin J. Packer,         University of Sheffield,      UK          (SOPPA)
  Filip Pawlowski,          Kazimierz Wielki University,  Poland      (CC3)
  Morten N. Pedersen,       Univ. of Southern Denmark,    Denmark     (Polarizable embedding model)
  Thomas B. Pedersen,       University of Oslo,           Norway      (Cholesky decomposition)
  Patricio F. Provasi,      University of Northeastern,   Argentina   (Analysis of coupling constants in localized orbitals)
  Zilvinas Rinkevicius,     KTH Stockholm,                Sweden      (open-shell DFT, ESR)
  Elias Rudberg,            KTH Stockholm,                Sweden      (DFT grid and basis info)
  Torgeir A. Ruden,         University of Oslo,           Norway      (Numerical derivatives in ABACUS)
  Kenneth Ruud,             UiT The Arctic U. of Norway,  Norway      (DALTON; ABACUS magnetic properties and much more)
  Pawel Salek,              KTH Stockholm,                Sweden      (DALTON; DFT code)
  Claire C. M. Samson       University of Karlsruhe       Germany     (Boys localization, r12 integrals in ERI)
  Alfredo Sanchez de Meras, University of Valencia,       Spain       (CC module, Cholesky decomposition)
  Trond Saue,               Paul Sabatier University,     France      (direct Fock matrix construction)
  Stephan P. A. Sauer,      University of Copenhagen,     Denmark     (SOPPA(CCSD), SOPPA prop., AOSOPPA, vibrational g-factors)
  Bernd Schimmelpfennig,    Forschungszentrum Karlsruhe,  Germany     (AMFI module)
  Kristian Sneskov,         Aarhus University,            Denmark     (Polarizable embedding model, QM/MM)
  Arnfinn H. Steindal,      UiT The Arctic U. of Norway,  Norway      (parallel QM/MM, Polarizable embedding model)
  Casper Steinmann,         Univ. of Southern Denmark,    Denmark     (QFIT, Polarizable embedding model)
  K. O. Sylvester-Hvid,     University of Copenhagen,     Denmark     (MC-SCRF)
  Peter R. Taylor,          VLSCI/Univ. of Melbourne,     Australia   (Symmetry handling ABACUS, integral transformation)
  Andrew M. Teale,          University of Nottingham,     England     (DFT-AC, DFT-D)
  David P. Tew,             University of Bristol,        England     (CCSD(R12))
  Olav Vahtras,             KTH Stockholm,                Sweden      (triplet response, spin-orbit, ESR, TDDFT, open-shell DFT)
  David J. Wilson,          La Trobe University,          Australia   (DFT Hessian and DFT magnetizabilities)
  Hans Agren,               KTH Stockholm,                Sweden      (SIRIUS module, RESPONS, MC-SCRF solvation model)
 --------------------------------------------------------------------------------

     Date and time (Linux)  : Mon Dec  3 16:08:48 2018
     Host name              : n-62-23-28                              

 * Work memory size             :  1280000000 =  9.537 gigabytes.

 * Directories for basis set searches:
   1) /zhome/d7/7/119775/My_Codes/dalton-private/build2016/basis/diffs
   2) /zhome/37/3/129401/NH3NH4/CCSD/AIMD_SAMPLING/nh4_4h2o_nd
   3) /zhome/9a/4/124800/source/dalton/build-mlcc/basis


Compilation information
-----------------------

 Who compiled             | rfaber
 Host                     | hpclogin1
 System                   | Linux-2.6.32-696.1.1.el6.x86_64
 CMake generator          | Unix Makefiles
 Processor                | x86_64
 64-bit integers          | ON
 MPI                      | OFF
 Fortran compiler         | /opt/intel/2016update2/compilers_and_libraries_201
                          | 6.2.181/linux/bin/intel64/ifort
 Fortran compiler version | ifort (IFORT) 16.0.2 20160204
 C compiler               | /opt/intel/2016update2/compilers_and_libraries_201
                          | 6.2.181/linux/bin/intel64/icc
 C compiler version       | icc (ICC) 16.0.2 20160204
 C++ compiler             | /opt/intel/2016update2/compilers_and_libraries_201
                          | 6.2.181/linux/bin/intel64/icpc
 C++ compiler version     | icpc (ICC) 16.0.2 20160204
 Static linking           | OFF
 Last Git revision        | bb4d1599ca5680a9f3980451fc8bbefdba436d59
 Git branch               | mlcc
 Configuration time       | 2017-06-13 16:11:03.928841


   Content of the .dal input file
 ----------------------------------

**DALTON
.RUN WAVE FUNCTIONS
*QMMM
.QMMM
**INTEGRALS
.DIPLEN
**WAVE FUNCTIONS
.CC
*PRINT
!To check the origin of excit
.PRINTL
   0 11
*SCF INP
.THRESH
1.0D-7
!*ORBITAL INPUT
!.MOSTART
!NEWORB
*CC INP
!.RESTART
.CCSD
.THRLEQ
 1.0D-9
.THRENR
 1.0D-10
.FROIMP
4
0
.PRINT
 1
.MAX IT
 1200
.MAXRED
 1200
.MXLRV
1199
*CCSLV
.CCMM
.MXSLIT
200
.MXINIT
4 5
*CCEXCI
.NCCEXC
 1
.IONISATION
1
1
.CVSEPARA
1
1
*CCLRSD
.DIPOLE
**END OF DALTON INPUT


   Content of the .mol file
 ----------------------------

ATOMBASIS


Atomtypes=5 Charge=1 Nosymm Angstrom
   7.00000    1    Basis=6-311G**
N          0.000000        0.000000        0.000000
   1.00000    4    Basis=6-311G**
H          0.197463        1.005068        0.302089
H          0.806558       -0.465835       -0.480209
H         -0.762314        0.056676       -0.846139
H         -0.458798       -0.524074        0.747352
   8.00000    4    Basis=6-311G**
O         -1.486416        0.565944       -2.254231
O         -0.447953        2.942547        1.213183
O          1.805852       -1.916775       -1.254865
O         -1.883694       -1.076834        1.964193
   1.00000    8    Basis=6-311G**
H         -0.831830        1.099809       -2.755797
H         -2.309313        1.110450       -2.358837
H         -1.276900        2.519633        1.490908
H         -0.064269        3.170248        2.150506
H          1.188199       -2.495316       -1.843433
H          2.205106       -2.458940       -0.557010
H         -1.774365       -0.273878        2.478568
H         -2.775441       -0.902196        1.521177
   0.00000    1    Basis=diffs
X          0.000000        0.000000        0.000000


       *******************************************************************
       *********** Output from DALTON general input processing ***********
       *******************************************************************

 --------------------------------------------------------------------------------
   Overall default print level:    0
   Print level for DALTON.STAT:    1

    HERMIT 1- and 2-electron integral sections will be executed
    "Old" integral transformation used (limited to max 255 basis functions)
    Wave function sections will be executed (SIRIUS module)
 --------------------------------------------------------------------------------


 Changes of defaults for *QMMM  :
 --------------------------------

 +------------------+
 |  WORD: | CHANGE: |
 +------------------+
 |   QMMM |       T |
 +------------------+
 


   ****************************************************************************
   *************** Output of molecule and basis set information ***************
   ****************************************************************************


    The two title cards from your ".mol" input:
    ------------------------------------------------------------------------
 1:                                                                         
 2:                                                                         
    ------------------------------------------------------------------------

  Coordinates are entered in Angstrom and converted to atomic units.
          - Conversion factor : 1 bohr = 0.52917721 A

  Atomic type no.    1
  --------------------
  Nuclear charge:   7.00000
  Number of symmetry independent centers:    1
  Number of basis sets to read;    2
  The basis set is "6-311G**" from the basis set library.
  Basis set file used for this atomic type with Z =   7 :
     "/zhome/9a/4/124800/source/dalton/build-mlcc/basis/6-311G**"

  Info about the basis set file: your basis has no documentation.
  Basis set: 6-311G**                                                                        

  Atomic type no.    2
  --------------------
  Nuclear charge:   1.00000
  Number of symmetry independent centers:    4
  Number of basis sets to read;    2
  The basis set is "6-311G**" from the basis set library.
  Basis set file used for this atomic type with Z =   1 :
     "/zhome/9a/4/124800/source/dalton/build-mlcc/basis/6-311G**"

  Info about the basis set file: your basis has no documentation.
  Basis set: 6-311G**                                                                        

  Atomic type no.    3
  --------------------
  Nuclear charge:   8.00000
  Number of symmetry independent centers:    4
  Number of basis sets to read;    2
  The basis set is "6-311G**" from the basis set library.
  Basis set file used for this atomic type with Z =   8 :
     "/zhome/9a/4/124800/source/dalton/build-mlcc/basis/6-311G**"

  Info about the basis set file: your basis has no documentation.
  Basis set: 6-311G**                                                                        

  Atomic type no.    4
  --------------------
  Nuclear charge:   1.00000
  Number of symmetry independent centers:    8
  Number of basis sets to read;    2
  The basis set is "6-311G**" from the basis set library.
  Basis set file used for this atomic type with Z =   1 :
     "/zhome/9a/4/124800/source/dalton/build-mlcc/basis/6-311G**"

  Info about the basis set file: your basis has no documentation.
  Basis set: 6-311G**                                                                        

  Atomic type no.    5
  --------------------
  Nuclear charge:   0.00000
  Number of symmetry independent centers:    1
  Number of basis sets to read;    2
  The basis set is "diffs" from the basis set library.
  Basis set file used for this atomic type with Z =   0 :
     "/zhome/9a/4/124800/source/dalton/build-mlcc/basis/diffs"

  Info about the basis set file: your basis has no documentation.
  Basis set: diffs                                                                           


                         SYMGRP: Point group information
                         -------------------------------

@    Point group: C1 


                                 Isotopic Masses
                                 ---------------

                           N          14.003074
                           H           1.007825
                           H           1.007825
                           H           1.007825
                           H           1.007825
                           O          15.994915
                           O          15.994915
                           O          15.994915
                           O          15.994915
                           H           1.007825
                           H           1.007825
                           H           1.007825
                           H           1.007825
                           H           1.007825
                           H           1.007825
                           H           1.007825
                           H           1.007825

                       Total mass:    90.076634 amu
                       Natural abundance:  98.500 %

 Center-of-mass coordinates (a.u.):   -0.799028    0.211712   -0.114501


  Atoms and basis sets
  --------------------

  Number of atom types :    5
  Total number of atoms:   18

  label    atoms   charge   prim   cont     basis
  ----------------------------------------------------------------------
  N           1    7.0000    31    18      [11s5p1d|4s3p1d]                                   
  H           4    1.0000     8     6      [5s1p|3s1p]                                        
  O           4    8.0000    31    18      [11s5p1d|4s3p1d]                                   
  H           8    1.0000     8     6      [5s1p|3s1p]                                        
  X           1    0.0000     1     1      [1s|1s]                                            
  ----------------------------------------------------------------------
  total:     18   51.0000   252   163
  ----------------------------------------------------------------------
  Spherical harmonic basis used.

  Threshold for neglecting AO integrals:  1.00D-12


  Cartesian Coordinates (a.u.)
  ----------------------------

  Total number of coordinates:   54
  N       :     1  x   0.0000000000    2  y   0.0000000000    3  z   0.0000000000
  H       :     4  x   0.3731509898    5  y   1.8993032570    6  z   0.5708654754
  H       :     7  x   1.5241737239    8  y  -0.8803005694    9  z  -0.9074634928
  H       :    10  x  -1.4405646812   11  y   0.1071021179   12  z  -1.5989709737
  H       :    13  x  -0.8670025667   14  y  -0.9903563292   15  z   1.4122905990
  O       :    16  x  -2.8089191478   17  y   1.0694791621   18  z  -4.2598792125
  O       :    19  x  -0.8465084869   20  y   5.5606079399   21  z   2.2925836095
  O       :    22  x   3.4125657023   23  y  -3.6221797932   24  z  -2.3713511738
  O       :    25  x  -3.5596657633   26  y  -2.0349213421   27  z   3.7117868266
  H       :    28  x  -1.5719308826   29  y   2.0783377998   30  z  -5.2077015861
  H       :    31  x  -4.3639691069   32  y   2.0984463755   33  z  -4.4575559035
  H       :    34  x  -2.4129912890   35  y   4.7614163055   36  z   2.8174077976
  H       :    37  x  -0.1214508083   38  y   5.9909004683   39  z   4.0638673702
  H       :    40  x   2.2453706920   41  y  -4.7154638353   42  z  -3.4835834998
  H       :    43  x   4.1670464166   44  y  -4.6467231578   45  z  -1.0525963489
  H       :    46  x  -3.3530638958   47  y  -0.5175544117   48  z   4.6838147022
  H       :    49  x  -5.2448233661   50  y  -1.7049033511   51  z   2.8746079176
  X       :    52  x   0.0000000000   53  y   0.0000000000   54  z   0.0000000000

  Max    interatomic separation is    7.0441 Angstrom (   13.3114 Bohr)
  between atoms   14 and   13, "H     " and "H     ".

  Min HX interatomic separation is    0.9598 Angstrom (    1.8138 Bohr)

  Min YX interatomic separation is    2.7589 Angstrom (    5.2135 Bohr)


  Bond distances (Angstrom):
  --------------------------

                  atom 1     atom 2       distance
                  ------     ------       --------
  bond distance:  H          N            1.067900
  bond distance:  H          N            1.047921
  bond distance:  H          N            1.140301
  bond distance:  H          N            1.021609
  bond distance:  H          O            0.982376
  bond distance:  H          O            0.992264
  bond distance:  H          O            0.971154
  bond distance:  H          O            1.038092
  bond distance:  H          O            1.030833
  bond distance:  H          O            0.969716
  bond distance:  H          O            0.959830
  bond distance:  H          O            1.010927


  Bond angles (degrees):
  ----------------------

                  atom 1     atom 2     atom 3         angle
                  ------     ------     ------         -----
  bond angle:     H          N          H            113.934
  bond angle:     H          N          H            106.663
  bond angle:     H          N          H            111.033
  bond angle:     H          N          H            101.338
  bond angle:     H          N          H            116.926
  bond angle:     H          N          H            105.551
  bond angle:     H          O          H            101.569
  bond angle:     H          O          H             98.789
  bond angle:     H          O          H            110.109
  bond angle:     H          O          H            101.000




 Principal moments of inertia (u*A**2) and principal axes
 --------------------------------------------------------

   IA     300.852815         -0.443770    0.699473    0.560184
   IB     449.646050         -0.071795   -0.650848    0.755806
   IC     523.143093          0.893260    0.295186    0.339046


 Rotational constants
 --------------------

               A                   B                   C

           1679.8214           1123.9485            966.0435 MHz
            0.056033            0.037491            0.032224 cm-1


@  Nuclear repulsion energy :  196.396654600360 Hartree

  Number of floating/multiple basis set orbitals :    1


                     .---------------------------------------.
                     | Starting in Integral Section (HERMIT) |
                     `---------------------------------------'



 ***************************************************************************************
 ****************** Output from **INTEGRALS input processing (HERMIT) ******************
 ***************************************************************************************



    *************************************************************************
    ****************** Output from HERMIT input processing ******************
    *************************************************************************


 Default print level:        1

 * Nuclear model: Point charge

 Calculation of one- and two-electron Hamiltonian integrals.

 The following one-electron property integrals are calculated as requested:
          - overlap integrals
          - dipole length integrals

 Center of mass  (bohr):     -0.799028013533      0.211711564448     -0.114500502187
 Operator center (bohr):      0.000000000000      0.000000000000      0.000000000000
 Gauge origin    (bohr):      0.000000000000      0.000000000000      0.000000000000
 Dipole origin   (bohr):      0.000000000000      0.000000000000      0.000000000000
 
  *********************************** 
  QMMM electrostatic potential: 
  Multipole order                                    0
  Isotropic polarization  
  *********************************** 
 
  ---------------- 
  QMMM information 
  ---------------- 
 
  MM coordinates in au 
  -------------------- 
     1     -3.831004      9.932349     -0.715095
     2     -2.771516      9.173963      0.601237
     3     -3.663043     11.792806     -0.660255
     4      4.044362     -7.727990    -10.739247
     5      5.112185     -7.819917     -9.206810
     6      2.375807     -8.449857    -10.182177
     7      2.206535     -9.736510      5.014254
     8      3.083619     -8.503624      3.900582
     9      1.584352    -10.905598      3.744294
    10     -6.619134      4.919273     -4.792002
    11     -7.353641      5.996968     -3.411377
    12     -5.798078      6.047260     -5.905817
    13      5.261748     -7.239957      1.583882
    14      6.997085     -6.792245      2.293358
    15      5.682692     -8.505208      0.261559
    16    -10.930592     -2.026006     -6.259846
    17    -11.449913     -0.173511     -6.149447
    18    -11.863720     -2.836297     -7.702807
    19     -2.145793     -6.694400      6.544898
    20     -2.637213     -5.366327      5.417491
    21     -0.892272     -7.821108      5.686568
    22      6.389003    -11.085523     -2.354240
    23      8.016742    -11.752783     -1.604043
    24      5.168182    -12.250055     -1.605986
    25     -4.140825      2.794678      5.653191
    26     -5.861059      3.750885      5.573178
    27     -3.199253      3.409495      7.179328
    28      0.720570      3.721804     -7.276200
    29      1.973445      2.413105     -6.696645
    30      1.498415      5.382377     -6.906826
    31      0.729720      0.259939      7.692807
    32      2.343332     -0.303333      7.006547
    33      0.141678     -0.904338      9.045267
    34     -9.419971      9.522731    -11.127367
    35    -10.397712     10.994075    -10.385833
    36     -8.019491      9.110991     -9.931463
    37     10.687994     10.795363      0.612904
    38     10.529822     11.314431      2.490389
    39     11.525400     12.405410     -0.049959
    40      7.737992     -7.034146     -6.544732
    41      7.649341     -5.501312     -5.470787
    42      7.521189     -8.331706     -5.275146
    43    -10.493233     10.514151     -5.625941
    44     -9.652390      9.645961     -4.180947
    45    -12.240569      9.881310     -5.651122
    46    -11.058207      3.145954      1.404940
    47    -10.347513      4.542588      0.333465
    48    -10.454742      3.788548      2.989911
    49      9.609664     -6.767226      4.488186
    50      8.549070     -6.135801      5.976111
    51      9.742009     -8.609341      4.979396
    52      4.200372      1.523924    -11.501684
    53      2.424857      0.955400    -11.671404
    54      4.540419      1.106966     -9.661899
    55    -10.211031     -8.402357     -0.385701
    56    -10.051005     -7.690486      1.370486
    57    -11.340469     -7.160881     -1.060745
    58      9.486990     11.672880      5.541705
    59      8.036854     11.516443      6.706230
    60     11.052337     11.314839      6.535841
    61      0.732207     -7.781592     -4.510841
    62     -0.232272     -6.822629     -5.871545
    63      1.304969     -9.428707     -5.247259
    64     10.449900      5.668120    -10.915659
    65     11.850593      7.006037    -10.899657
    66     10.923184      4.369708    -12.261652
    67     -4.286214      8.670271      8.179184
    68     -5.001544      7.614338      9.513010
    69     -5.768389      9.172844      7.113124
    70      8.454939      0.338626      0.274564
    71      9.785803      1.601847      0.823537
    72      7.748159      1.203431     -1.237582
    73     -9.227459     -8.084390     -7.038944
    74     -8.776907     -6.885654     -5.689278
    75    -10.032414     -9.591477     -6.252764
    76    -11.535313      2.155652      9.167778
    77    -10.267228      0.723442      9.040425
    78    -13.146929      1.540352      8.470512
    79     -5.930990     -0.390247     -9.804751
    80     -6.637355     -1.081054    -11.316408
    81     -7.440001     -0.039652     -8.720612
    82     -8.036786     -2.141084      0.863229
    83     -7.778374     -3.012651     -0.703126
    84     -9.155532     -0.676522      0.816628
    85    -11.418937      3.127771     -6.837838
    86    -11.921944      4.144795     -8.520686
    87     -9.928459      3.985459     -6.236021
    88      1.388420      5.597998      7.630355
    89      0.929441      3.781487      7.829585
    90      0.910015      6.592121      9.150504
    91      4.422942     -0.017009     -5.980894
    92      5.638472      1.282580     -5.295368
    93      4.168672     -1.231117     -4.507777
    94     -2.647159      3.456623    -11.240099
    95     -3.958969      2.064877    -10.659032
    96     -1.353388      3.417216     -9.846957
    97     -0.990105    -11.189698     -8.766823
    98     -0.235294    -11.678130    -10.447353
    99     -2.558895    -10.428563     -9.394445
   100     -9.147597     -5.207732      4.700401
   101    -10.990243     -5.526262      4.445123
   102     -8.708053     -3.704933      3.470894
   103     -9.058848      5.216436      5.873688
   104     -9.999714      4.448378      7.447125
   105     -9.207267      7.104189      5.944731
   106    -11.318677     -4.596143    -10.518905
   107    -12.789175     -4.928126    -11.660791
   108    -10.890700     -6.064764     -9.362187
   109      7.332842     -0.184759      8.339135
   110      6.299701      0.717722      9.482704
   111      6.502041     -0.162237      6.597077
   112      7.935928     -5.391317      9.771288
   113      6.434638     -6.241489     10.253544
   114      7.556722     -3.679484      9.474242
   115     -8.698470      8.128664     -1.114183
   116    -10.185960      9.119195     -0.204952
   117     -7.054903      8.969415     -0.574515
   118      6.446289      7.912795     -5.999712
   119      5.147650      9.123790     -5.591499
   120      6.414702      8.136316     -7.719180
   121      6.236217    -11.681580      9.253892
   122      5.600606    -13.314691     10.029275
   123      4.876767    -10.482339      9.664507
   124     -6.649903     -8.441412      7.601985
   125     -4.814930     -8.170563      7.414051
   126     -7.558135     -7.120666      6.570944
   127      0.120608     10.918074      9.921531
   128      0.972468     12.007732      8.742446
   129     -1.456971     10.620939      9.050454
   130     -9.249128     10.542697      7.400714
   131     -8.585665     12.320818      7.312692
   132     -9.091710     10.241165      9.288828
   133      5.509718      7.563523    -11.251717
   134      4.670197      5.822337    -11.067276
   135      7.365478      6.998227    -11.248368
   136      2.642523      9.382730      0.887965
   137      1.383956      7.942980      1.096584
   138      3.747544      9.021118      2.291988
   139     -3.843745     -8.310420     -1.091143
   140     -4.945489     -7.220770     -2.081513
   141     -2.247625     -7.833442     -1.842162
   142     -4.718172      7.999390     -8.917389
   143     -3.808480      6.486468     -9.695285
   144     -3.373711      9.228889     -8.556332
   145     -3.313682     -4.404938     -7.211699
   146     -3.516361     -2.701303     -7.787361
   147     -4.478857     -5.253707     -8.365802
   148     -5.398728     -8.914560    -10.588496
   149     -5.771171     -8.633204    -12.333303
   150     -6.825439     -8.829330     -9.563840
   151      7.619340      3.606164     -4.159537
   152      9.295175      3.697079     -4.926826
   153      6.964145      5.339916     -4.566580
   154      1.130510      8.547787     -5.153984
   155     -0.063096      9.511436     -6.257099
   156      0.641390      8.622762     -3.337534
   157      0.343909     -4.014222     10.396716
   158     -0.245188     -5.527016      9.421672
   159      2.155635     -4.342952     10.525686
   160      4.921572      0.918379      3.941315
   161      4.745943      2.718681      4.252861
   162      5.895197      0.710849      2.330554
   163      9.980592    -10.209170    -10.063334
   164      8.719986    -10.287983    -11.503923
   165      9.368234     -8.812214     -8.874781
   166      5.053097      6.885346      4.633964
   167      3.901976      6.641890      6.112194
   168      6.402031      7.961596      5.426980
   169     -8.548325     -2.331657      9.650312
   170     -7.980935     -3.606792      8.354540
   171     -9.598493     -3.392459     10.891780
   172      9.915327     -4.146112     -2.196852
   173     10.996180     -3.321831     -3.399906
   174      9.501356     -2.648682     -1.107359
   175     -6.835493     -4.372129     -3.586732
   176     -5.320278     -4.144064     -4.694286
   177     -8.121300     -3.337825     -4.445705
 
  MM charges 
  ---------- 
     1     -0.674440
     2      0.337220
     3      0.337220
     4     -0.674440
     5      0.337220
     6      0.337220
     7     -0.674440
     8      0.337220
     9      0.337220
    10     -0.674440
    11      0.337220
    12      0.337220
    13     -0.674440
    14      0.337220
    15      0.337220
    16     -0.674440
    17      0.337220
    18      0.337220
    19     -0.674440
    20      0.337220
    21      0.337220
    22     -0.674440
    23      0.337220
    24      0.337220
    25     -0.674440
    26      0.337220
    27      0.337220
    28     -0.674440
    29      0.337220
    30      0.337220
    31     -0.674440
    32      0.337220
    33      0.337220
    34     -0.674440
    35      0.337220
    36      0.337220
    37     -0.674440
    38      0.337220
    39      0.337220
    40     -0.674440
    41      0.337220
    42      0.337220
    43     -0.674440
    44      0.337220
    45      0.337220
    46     -0.674440
    47      0.337220
    48      0.337220
    49     -0.674440
    50      0.337220
    51      0.337220
    52     -0.674440
    53      0.337220
    54      0.337220
    55     -0.674440
    56      0.337220
    57      0.337220
    58     -0.674440
    59      0.337220
    60      0.337220
    61     -0.674440
    62      0.337220
    63      0.337220
    64     -0.674440
    65      0.337220
    66      0.337220
    67     -0.674440
    68      0.337220
    69      0.337220
    70     -0.674440
    71      0.337220
    72      0.337220
    73     -0.674440
    74      0.337220
    75      0.337220
    76     -0.674440
    77      0.337220
    78      0.337220
    79     -0.674440
    80      0.337220
    81      0.337220
    82     -0.674440
    83      0.337220
    84      0.337220
    85     -0.674440
    86      0.337220
    87      0.337220
    88     -0.674440
    89      0.337220
    90      0.337220
    91     -0.674440
    92      0.337220
    93      0.337220
    94     -0.674440
    95      0.337220
    96      0.337220
    97     -0.674440
    98      0.337220
    99      0.337220
   100     -0.674440
   101      0.337220
   102      0.337220
   103     -0.674440
   104      0.337220
   105      0.337220
   106     -0.674440
   107      0.337220
   108      0.337220
   109     -0.674440
   110      0.337220
   111      0.337220
   112     -0.674440
   113      0.337220
   114      0.337220
   115     -0.674440
   116      0.337220
   117      0.337220
   118     -0.674440
   119      0.337220
   120      0.337220
   121     -0.674440
   122      0.337220
   123      0.337220
   124     -0.674440
   125      0.337220
   126      0.337220
   127     -0.674440
   128      0.337220
   129      0.337220
   130     -0.674440
   131      0.337220
   132      0.337220
   133     -0.674440
   134      0.337220
   135      0.337220
   136     -0.674440
   137      0.337220
   138      0.337220
   139     -0.674440
   140      0.337220
   141      0.337220
   142     -0.674440
   143      0.337220
   144      0.337220
   145     -0.674440
   146      0.337220
   147      0.337220
   148     -0.674440
   149      0.337220
   150      0.337220
   151     -0.674440
   152      0.337220
   153      0.337220
   154     -0.674440
   155      0.337220
   156      0.337220
   157     -0.674440
   158      0.337220
   159      0.337220
   160     -0.674440
   161      0.337220
   162      0.337220
   163     -0.674440
   164      0.337220
   165      0.337220
   166     -0.674440
   167      0.337220
   168      0.337220
   169     -0.674440
   170      0.337220
   171      0.337220
   172     -0.674440
   173      0.337220
   174      0.337220
   175     -0.674440
   176      0.337220
   177      0.337220
 
  MM isotropic polarizabilities in au 
  ----------------------------------- 
     1      5.739350
     2      2.308390
     3      2.308390
     4      5.739350
     5      2.308390
     6      2.308390
     7      5.739350
     8      2.308390
     9      2.308390
    10      5.739350
    11      2.308390
    12      2.308390
    13      5.739350
    14      2.308390
    15      2.308390
    16      5.739350
    17      2.308390
    18      2.308390
    19      5.739350
    20      2.308390
    21      2.308390
    22      5.739350
    23      2.308390
    24      2.308390
    25      5.739350
    26      2.308390
    27      2.308390
    28      5.739350
    29      2.308390
    30      2.308390
    31      5.739350
    32      2.308390
    33      2.308390
    34      5.739350
    35      2.308390
    36      2.308390
    37      5.739350
    38      2.308390
    39      2.308390
    40      5.739350
    41      2.308390
    42      2.308390
    43      5.739350
    44      2.308390
    45      2.308390
    46      5.739350
    47      2.308390
    48      2.308390
    49      5.739350
    50      2.308390
    51      2.308390
    52      5.739350
    53      2.308390
    54      2.308390
    55      5.739350
    56      2.308390
    57      2.308390
    58      5.739350
    59      2.308390
    60      2.308390
    61      5.739350
    62      2.308390
    63      2.308390
    64      5.739350
    65      2.308390
    66      2.308390
    67      5.739350
    68      2.308390
    69      2.308390
    70      5.739350
    71      2.308390
    72      2.308390
    73      5.739350
    74      2.308390
    75      2.308390
    76      5.739350
    77      2.308390
    78      2.308390
    79      5.739350
    80      2.308390
    81      2.308390
    82      5.739350
    83      2.308390
    84      2.308390
    85      5.739350
    86      2.308390
    87      2.308390
    88      5.739350
    89      2.308390
    90      2.308390
    91      5.739350
    92      2.308390
    93      2.308390
    94      5.739350
    95      2.308390
    96      2.308390
    97      5.739350
    98      2.308390
    99      2.308390
   100      5.739350
   101      2.308390
   102      2.308390
   103      5.739350
   104      2.308390
   105      2.308390
   106      5.739350
   107      2.308390
   108      2.308390
   109      5.739350
   110      2.308390
   111      2.308390
   112      5.739350
   113      2.308390
   114      2.308390
   115      5.739350
   116      2.308390
   117      2.308390
   118      5.739350
   119      2.308390
   120      2.308390
   121      5.739350
   122      2.308390
   123      2.308390
   124      5.739350
   125      2.308390
   126      2.308390
   127      5.739350
   128      2.308390
   129      2.308390
   130      5.739350
   131      2.308390
   132      2.308390
   133      5.739350
   134      2.308390
   135      2.308390
   136      5.739350
   137      2.308390
   138      2.308390
   139      5.739350
   140      2.308390
   141      2.308390
   142      5.739350
   143      2.308390
   144      2.308390
   145      5.739350
   146      2.308390
   147      2.308390
   148      5.739350
   149      2.308390
   150      2.308390
   151      5.739350
   152      2.308390
   153      2.308390
   154      5.739350
   155      2.308390
   156      2.308390
   157      5.739350
   158      2.308390
   159      2.308390
   160      5.739350
   161      2.308390
   162      2.308390
   163      5.739350
   164      2.308390
   165      2.308390
   166      5.739350
   167      2.308390
   168      2.308390
   169      5.739350
   170      2.308390
   171      2.308390
   172      5.739350
   173      2.308390
   174      2.308390
   175      5.739350
   176      2.308390
   177      2.308390


     ************************************************************************
     ************************** Output from HERINT **************************
     ************************************************************************



                      Nuclear contribution to dipole moments
                      --------------------------------------

                 au               Debye          C m (/(10**-30)

      x    -41.48627634      -105.44758971      -351.73529852
      y     11.26409240        28.63046527        95.50095245
      z     -5.29989754       -13.47099501       -44.93440263



 Threshold for neglecting two-electron integrals:  1.00D-12
 HERMIT - Number of two-electron integrals written:    37235660 ( 41.7% )
 HERMIT - Megabytes written:                            426.369

  Time used in TWOINT     is       7.10 seconds
  Total CPU  time used in HERMIT:   7.28 seconds
  Total wall time used in HERMIT:   8.37 seconds


                        .----------------------------------.
                        | End of Integral Section (HERMIT) |
                        `----------------------------------'



                   .--------------------------------------------.
                   | Starting in Wave Function Section (SIRIUS) |
                   `--------------------------------------------'

NCCEXCI for singlet:    1
 CCSD_INPUT: core-val requested
 Requested number of virtual orbs per sym
                     1
 Indices of requested virtual orbs
                     1
 CCSD_INPUT: core-val requested
 Requested number of core orbs per sym
                     1
 Indices of requested core orbs
                     1

 *** Output from Huckel module :

     Using EWMO model:          T
     Using EHT  model:          F
     Number of Huckel orbitals each symmetry:   37

 EWMO - Energy Weighted Maximum Overlap - is a Huckel type method,
        which normally is better than Extended Huckel Theory.
 Reference: Linderberg and Ohrn, Propagators in Quantum Chemistry (Wiley, 1973)

 Huckel EWMO eigenvalues for symmetry :  1
          -20.684683     -20.684605     -20.684405     -20.684311     -15.674680
           -1.784977      -1.617537      -1.599961      -1.585412      -1.480287
           -0.818416      -0.792718      -0.782305      -0.776352      -0.766539
           -0.748213      -0.740828      -0.702872      -0.681267      -0.668390
           -0.651697      -0.613502      -0.580904      -0.568030      -0.554601
           -0.263800      -0.248062      -0.242116      -0.237761      -0.188945
           -0.181992      -0.178894      -0.178263      -0.174795      -0.162132
           -0.151544      -0.140005

 **********************************************************************
 *SIRIUS* a direct, restricted step, second order MCSCF program       *
 **********************************************************************

 
     Date and time (Linux)  : Mon Dec  3 16:08:57 2018
     Host name              : n-62-23-28                              

 Title lines from ".mol" input file:
                                                                             
                                                                             

 Print level on unit LUPRI =   2 is   0
 Print level on unit LUW4  =   2 is  11

@    (Integral direct) CC calculation.

@    This is a combination run starting with
@              a restricted, closed shell Hartree-Fock calculation


 Initial molecular orbitals are obtained according to
 ".MOSTART EWMO  " input option

@    QM part is embedded in an environment :

@         Model: QMMM

     Wave function specification
     ============================

     For the specification of the Coupled Cluster: see later.

@    Wave function type        --- CC ---
@    Number of closed shell electrons          50
@    Number of electrons in active shells       0
@    Total charge of the molecule               1

@    Spin multiplicity and 2 M_S                1         0
@    Total number of symmetries                 1 (point group: C1 )
@    Reference state symmetry                   1 (irrep name : A  )

     Orbital specifications
     ======================
@    Abelian symmetry species          All |    1
@                                          |  A  
                                       --- |  ---
@    Occupied SCF orbitals              25 |   25
@    Secondary orbitals                138 |  138
@    Total number of orbitals          163 |  163
@    Number of basis functions         163 |  163

     Optimization information
     ========================
@    Number of configurations                 1
@    Number of orbital rotations           3450
     ------------------------------------------
@    Total number of variables             3451

     Maximum number of Fock   iterations      0
     Maximum number of DIIS   iterations     60
     Maximum number of QC-SCF iterations     60
     Threshold for SCF convergence     1.00D-07


 Changes of defaults for CC:
 ---------------------------


 -Implicit frozen core calculation
 -Excitation energies calculated
 -One-photon absorption strengths will be calculated
 -Oscillator strengths calculated
  
* Read MO coefficients from SIRIUS.RST with label "NEWORB  " and header info:  3Dec18  REORTHO 


 ***********************************************
 ***** DIIS acceleration of SCF iterations *****
 ***********************************************

 C1-DIIS algorithm; max error vectors =    8
 -----------------------------------------------------------------------------

 *** DIIS iteration number    1
 RDSUPM called. NFMAT, ISYMDM(1:NFMAT)                     1
                     1

Calculating AOSUPINT
     (Precalculated two-electron integrals are transformed to P-supermatrix elements.
      Threshold for discarding integrals :  1.00D-12 )
  CPU  time used in FORMSUP    is   3.20 seconds
  WALL time used in FORMSUP    is  14.94 seconds

 ITDIIS, energy, error norm, change in energy, scr.thr., difden:
@ DIIS iter.   1    -360.207720413        3.97153D+00   -3.60D+02  -20    F

 (DIIS_RED) Control Parameters C2DIIS =         F NEVC =    1


 (DIIS_RED) B matrix:

               Column   1
       1      15.77302849
    ==== End of matrix output ====

 DIIS C vector; C2DIIS = F, LAMBDA = -1.58D+01
    1.000000
* Read MO coefficients from SIRIUS.RST with label "NEWORB  " and header info:  3Dec18  DIIS   1
      Virial theorem: -V/T =      2.003397
@      MULPOP N       0.13; H       0.14; H       0.16; H       0.18; H       0.16; O      -0.56; O      -0.63; O      -0.59; O      -0.61; H       0.32; 
@             H       0.31; H       0.34; H       0.33; H       0.32; H       0.32; H       0.34; H       0.33; 
   1  Level shift: doubly occupied orbital energies shifted by -2.00D-01

 DIIS Fock eigenvalues in symmetry 1
      -20.85581      -20.84159      -20.82946      -20.80576      -16.48111
       -1.73271       -1.66682       -1.66573       -1.63727       -1.63453
       -1.23085       -1.21046       -1.17745       -1.03469       -1.03386
       -1.02419       -1.00100       -0.91862       -0.91642       -0.89335
       -0.88022       -0.87125       -0.86968       -0.85380       -0.83655
       -0.03404       -0.00005        0.03219        0.05285        0.06410
        0.08337        0.12004        0.12630        0.14671        0.15559
        0.16447        0.18027        0.19242        0.23418        0.26314
        0.28385        0.38285        0.40922        0.44133        0.45728
        0.46867        0.48506        0.48726        0.49894        0.52423
        0.63910        0.66153        0.67804        0.82146        0.84189
        0.86532        0.88791        0.91321        0.94368        0.95485
        0.96970        0.98757        0.99814        1.00365        1.02839
        1.04266        1.06250        1.09610        1.20448        1.23827
        1.25631        1.27901        1.31024        1.31984        1.35461
        1.36175        1.36908        1.37487        1.40426        1.44225
        1.47128        1.49403        1.53462        1.54131        1.55834
        1.59089        1.66345        1.72556        1.74836        1.79167
        1.81145        1.84154        1.88596        1.91725        1.99088
        2.05087        2.06761        2.08588        2.09335        2.12161
        2.17663        2.18700        2.19761        2.22132        2.25220
        2.32958        2.44954        2.46016        2.46664        2.49614
        2.54775        2.57557        2.60063        2.62095        2.65878
        2.66425        2.68445        2.69877        2.71814        2.87948
        2.97777        3.03104        3.04040        3.28847        3.29489
        3.34974        3.35204        3.35831        3.38709        3.41802
        3.42152        3.49357        3.49592        3.52359        3.56508
        3.79460        3.83111        3.88435        3.88988        4.04534
        4.08328        4.09737        4.14078        4.50846        4.64646
        4.77212        5.22546        5.25242        5.25995        5.32783
        5.64459        5.66702        5.73721        5.74813        5.87454
        5.93079        5.97634        5.98054       36.28719       51.41582
       51.43770       51.44310       51.47565
 Time used in FCKEIG, thr_jaco:   4.60D-02  5.00D-02  1.69D-04
 CPU and wall times used in FCKEIG, THR_FCKEIG:   4.60D-02  5.00D-02  3.97D-02
 -----------------------------------------------------------------------------

 *** DIIS iteration number    2
 RDSUPM called. NFMAT, ISYMDM(1:NFMAT)                     1
                     1

 ITDIIS, energy, error norm, change in energy, scr.thr., difden:
@ DIIS iter.   2    -361.094341574        1.14397D+00   -8.87D-01  -20    F

 (DIIS_RED) Control Parameters C2DIIS =         F NEVC =    2


 (DIIS_RED) B matrix:

               Column   1     Column   2
       1      15.77302849
       2       0.64580477     1.30867629
    ==== End of matrix output ====

 DIIS C vector; C2DIIS = F, LAMBDA = -1.28D+00
    0.041980    0.958020
* Read MO coefficients from SIRIUS.RST with label "NEWORB  " and header info:  3Dec18  DIIS   2
      Virial theorem: -V/T =      2.002891
@      MULPOP N      -0.57; H       0.32; H       0.33; H       0.37; H       0.32; O      -0.54; O      -0.55; O      -0.61; O      -0.55; H       0.31; 
@             H       0.32; H       0.29; H       0.30; H       0.34; H       0.32; H       0.30; H       0.31; 
   2  Level shift: doubly occupied orbital energies shifted by -1.00D-01

 DIIS Fock eigenvalues in symmetry 1
      -20.81131      -20.78886      -20.77619      -20.76366      -15.66159
       -1.56035       -1.55488       -1.53163       -1.52527       -1.38754
       -0.91306       -0.91065       -0.90362       -0.89555       -0.87773
       -0.87662       -0.87224       -0.81955       -0.78545       -0.77904
       -0.77655       -0.75124       -0.72845       -0.71775       -0.70578
       -0.00005        0.03591        0.07700        0.10073        0.11055
        0.13744        0.16438        0.17466        0.18289        0.20657
        0.22127        0.22801        0.26684        0.31581        0.36078
        0.36137        0.41922        0.45510        0.48705        0.49629
        0.50816        0.52635        0.53956        0.56192        0.57957
        0.76486        0.79160        0.81815        0.85524        0.88302
        0.91751        0.94661        0.96385        0.97833        0.98612
        1.01320        1.02702        1.03399        1.05410        1.05957
        1.14717        1.16034        1.19958        1.24390        1.29351
        1.30490        1.33209        1.35877        1.38345        1.41011
        1.41896        1.42641        1.43797        1.46752        1.49848
        1.54554        1.57680        1.60988        1.62392        1.65709
        1.68835        1.76193        1.78073        1.81296        1.85997
        1.87838        1.94200        1.98881        2.01886        2.04039
        2.11363        2.13198        2.13354        2.20810        2.24764
        2.25126        2.25647        2.28100        2.30765        2.32936
        2.43730        2.52604        2.54415        2.58442        2.59567
        2.65443        2.67092        2.68472        2.72339        2.73529
        2.75039        2.77270        2.87213        2.91016        3.07973
        3.18980        3.28400        3.30475        3.32025        3.33343
        3.37531        3.37810        3.38141        3.41096        3.44976
        3.49334        3.51414        3.52255        3.56066        3.58950
        3.80942        3.85843        3.90669        3.91293        4.06922
        4.09774        4.12678        4.16006        4.89158        5.03998
        5.16476        5.23569        5.25182        5.26040        5.32436
        5.63898        5.66848        5.74346        5.75385        5.88074
        5.95493        5.99015        5.99666       36.99060       51.34907
       51.39814       51.40695       51.42056
 Time used in FCKEIG, thr_jaco:   3.00D-02  3.40D-02  4.87D-05
 CPU and wall times used in FCKEIG, THR_FCKEIG:   3.00D-02  3.40D-02  1.14D-02
 -----------------------------------------------------------------------------

 *** DIIS iteration number    3
 RDSUPM called. NFMAT, ISYMDM(1:NFMAT)                     1
                     1

 ITDIIS, energy, error norm, change in energy, scr.thr., difden:
@ DIIS iter.   3    -361.169678705        3.81061D-01   -7.53D-02  -20    F

 (DIIS_RED) Control Parameters C2DIIS =         F NEVC =    3


 (DIIS_RED) B matrix:

               Column   1     Column   2     Column   3
       1      15.77302849
       2       0.64580477     1.30867629
       3       0.81577676    -0.01137596     0.14520755
    ==== End of matrix output ====

 DIIS C vector; C2DIIS = F, LAMBDA = -9.73D-02
   -0.046838    0.105616    0.941222
* Read MO coefficients from SIRIUS.RST with label "NEWORB  " and header info:  3Dec18  DIIS   3
      Virial theorem: -V/T =      2.003664
@      MULPOP N      -0.38; H       0.27; H       0.29; H       0.34; H       0.29; O      -0.61; O      -0.61; O      -0.67; O      -0.61; H       0.33; 
@             H       0.34; H       0.32; H       0.33; H       0.37; H       0.35; H       0.32; H       0.34; 
   3  Level shift: doubly occupied orbital energies shifted by -5.00D-02

 DIIS Fock eigenvalues in symmetry 1
      -20.71788      -20.69344      -20.69006      -20.67083      -15.82408
       -1.49243       -1.48290       -1.46520       -1.45769       -1.39153
       -0.88710       -0.86550       -0.84711       -0.83991       -0.83529
       -0.82796       -0.80599       -0.75044       -0.72039       -0.71388
       -0.70855       -0.67567       -0.65490       -0.64838       -0.63268
       -0.00005        0.04020        0.08254        0.10593        0.11604
        0.13949        0.16917        0.17991        0.18630        0.21059
        0.22254        0.22789        0.26720        0.31456        0.35839
        0.36319        0.42883        0.46459        0.49688        0.50584
        0.51721        0.53644        0.55018        0.56388        0.58531
        0.75730        0.78312        0.80483        0.87055        0.88922
        0.92583        0.95382        0.97680        0.99032        0.99900
        1.02417        1.03752        1.05049        1.06897        1.07327
        1.14280        1.15974        1.19652        1.25445        1.30444
        1.31505        1.34148        1.37256        1.39496        1.42196
        1.43200        1.44206        1.44811        1.48075        1.50928
        1.55474        1.58580        1.61887        1.63079        1.65926
        1.69278        1.76570        1.79168        1.82372        1.87100
        1.88948        1.94307        1.99024        2.02070        2.05567
        2.13025        2.14740        2.14833        2.20141        2.25314
        2.26463        2.26812        2.29806        2.30831        2.34140
        2.44217        2.53692        2.55534        2.58795        2.59881
        2.66112        2.67750        2.69439        2.73249        2.74657
        2.76004        2.78417        2.83924        2.87908        3.06624
        3.15877        3.25118        3.27537        3.33170        3.34829
        3.39920        3.40273        3.41035        3.43563        3.47046
        3.50732        3.54027        3.54682        3.58862        3.61558
        3.83441        3.88761        3.93084        3.93655        4.09507
        4.12478        4.15764        4.18701        4.80805        4.95466
        5.07990        5.26826        5.28058        5.29011        5.35596
        5.66935        5.69663        5.77511        5.78741        5.91246
        5.99042        6.02180        6.02562       36.78428       51.39257
       51.43458       51.45231       51.46351
 Time used in FCKEIG, thr_jaco:   3.00D-02  3.80D-02  1.62D-05
 CPU and wall times used in FCKEIG, THR_FCKEIG:   3.00D-02  3.80D-02  3.81D-03
 -----------------------------------------------------------------------------

 *** DIIS iteration number    4
 RDSUPM called. NFMAT, ISYMDM(1:NFMAT)                     1
                     1

 ITDIIS, energy, error norm, change in energy, scr.thr., difden:
@ DIIS iter.   4    -361.180125060        9.51286D-02   -1.04D-02  -20    F

 (DIIS_RED) Control Parameters C2DIIS =         F NEVC =    4


 (DIIS_RED) B matrix:

               Column   1     Column   2     Column   3     Column   4
       1      15.77302849
       2       0.64580477     1.30867629
       3       0.81577676    -0.01137596     0.14520755
       4       0.04905815     0.08189387     0.00322814     0.00904946
    ==== End of matrix output ====

 DIIS C vector; C2DIIS = F, LAMBDA = -4.44D-03
   -0.000805   -0.062249    0.006761    1.056292
* Read MO coefficients from SIRIUS.RST with label "NEWORB  " and header info:  3Dec18  DIIS   4
      Virial theorem: -V/T =      2.003618
@      MULPOP N      -0.46; H       0.29; H       0.31; H       0.36; H       0.31; O      -0.62; O      -0.62; O      -0.69; O      -0.62; H       0.34; 
@             H       0.35; H       0.32; H       0.33; H       0.38; H       0.36; H       0.33; H       0.34; 
   4  Level shift: doubly occupied orbital energies shifted by -1.25D-02

 DIIS Fock eigenvalues in symmetry 1
      -20.69320      -20.67282      -20.66426      -20.64777      -15.75152
       -1.46008       -1.45073       -1.43163       -1.42578       -1.34132
       -0.83835       -0.81713       -0.80598       -0.80498       -0.80099
       -0.78951       -0.77287       -0.71575       -0.68387       -0.67714
       -0.67390       -0.63899       -0.61795       -0.61049       -0.59608
       -0.00005        0.04069        0.08219        0.10569        0.11529
        0.14051        0.16880        0.17978        0.18740        0.21070
        0.22471        0.23205        0.27041        0.32036        0.36411
        0.36750        0.42810        0.46498        0.49625        0.50590
        0.51558        0.53508        0.54901        0.56682        0.58518
        0.76293        0.78911        0.81255        0.87053        0.89141
        0.92734        0.95538        0.97700        0.98989        0.99854
        1.02400        1.03662        1.04812        1.06746        1.07241
        1.14836        1.16406        1.20004        1.25426        1.30375
        1.31563        1.34173        1.37191        1.39430        1.42092
        1.43019        1.44010        1.44775        1.47844        1.50876
        1.55466        1.58797        1.61833        1.63275        1.66385
        1.69716        1.76998        1.79093        1.82162        1.86913
        1.88951        1.94832        1.99518        2.02583        2.05241
        2.12824        2.14448        2.14551        2.20791        2.26010
        2.26098        2.26458        2.29650        2.31215        2.33914
        2.44543        2.53512        2.55549        2.59282        2.60248
        2.66194        2.68137        2.69366        2.73449        2.74662
        2.75982        2.78360        2.85034        2.89006        3.07547
        3.16964        3.26312        3.28874        3.32845        3.34703
        3.39555        3.39922        3.40622        3.43284        3.46711
        3.50680        3.53682        3.54417        3.58497        3.61157
        3.83071        3.88303        3.92685        3.93339        4.09223
        4.12114        4.15333        4.18280        4.82668        4.97390
        5.09916        5.26100        5.27477        5.28412        5.34876
        5.66349        5.69137        5.76812        5.77988        5.90552
        5.98195        6.01401        6.01967       36.81890       51.38006
       51.42317       51.43593       51.44937
 Time used in FCKEIG, thr_jaco:   2.90D-02  3.20D-02  4.05D-06
 CPU and wall times used in FCKEIG, THR_FCKEIG:   2.90D-02  3.20D-02  9.51D-04
 -----------------------------------------------------------------------------

 *** DIIS iteration number    5
 RDSUPM called. NFMAT, ISYMDM(1:NFMAT)                     1
                     1

 ITDIIS, energy, error norm, change in energy, scr.thr., difden:
@ DIIS iter.   5    -361.181139044        2.89967D-02   -1.01D-03  -20    F

 (DIIS_RED) Control Parameters C2DIIS =         F NEVC =    5


 (DIIS_RED) B matrix:

               Column   1     Column   2     Column   3     Column   4     Column   5
       1      15.77302849
       2       0.64580477     1.30867629
       3       0.81577676    -0.01137596     0.14520755
       4       0.04905815     0.08189387     0.00322814     0.00904946
       5       0.02111759     0.00736425     0.00555436     0.00079426     0.00084081
    ==== End of matrix output ====

 DIIS C vector; C2DIIS = F, LAMBDA = -5.83D-04
    0.001108   -0.011959   -0.041844    0.097809    0.954886
* Read MO coefficients from SIRIUS.RST with label "NEWORB  " and header info:  3Dec18  DIIS   5
      Virial theorem: -V/T =      2.003275
@      MULPOP N      -0.45; H       0.28; H       0.30; H       0.36; H       0.31; O      -0.63; O      -0.63; O      -0.70; O      -0.63; H       0.34; 
@             H       0.35; H       0.33; H       0.34; H       0.38; H       0.37; H       0.33; H       0.35; 

 DIIS Fock eigenvalues in symmetry 1
      -20.67523      -20.65091      -20.64559      -20.62891      -15.73542
       -1.44560       -1.43484       -1.41699       -1.41108       -1.32730
       -0.82447       -0.80307       -0.79155       -0.79074       -0.78714
       -0.77485       -0.75883       -0.70188       -0.66908       -0.66257
       -0.65965       -0.62375       -0.60177       -0.59489       -0.58063
       -0.00005        0.04112        0.08252        0.10604        0.11560
        0.14098        0.16914        0.18010        0.18792        0.21106
        0.22542        0.23291        0.27124        0.32144        0.36516
        0.36841        0.42860        0.46572        0.49680        0.50661
        0.51595        0.53555        0.54968        0.56763        0.58580
        0.76425        0.79047        0.81398        0.87200        0.89322
        0.92922        0.95680        0.97855        0.99110        0.99989
        1.02543        1.03790        1.04967        1.06886        1.07391
        1.14967        1.16546        1.20129        1.25555        1.30451
        1.31696        1.34297        1.37321        1.39509        1.42138
        1.43069        1.44086        1.44871        1.47893        1.50928
        1.55524        1.58898        1.61887        1.63341        1.66489
        1.69801        1.77103        1.79105        1.82162        1.86924
        1.89001        1.94939        1.99620        2.02691        2.05291
        2.12942        2.14513        2.14604        2.20916        2.26131
        2.26168        2.26520        2.29791        2.31318        2.33998
        2.44626        2.53525        2.55613        2.59368        2.60316
        2.66248        2.68206        2.69372        2.73488        2.74696
        2.76000        2.78379        2.85169        2.89145        3.07693
        3.17142        3.26482        3.29050        3.33059        3.34931
        3.39781        3.40136        3.40970        3.43504        3.46935
        3.51002        3.53885        3.54634        3.58839        3.61380
        3.83278        3.88651        3.92910        3.93553        4.09460
        4.12332        4.15705        4.18524        4.82897        4.97608
        5.10126        5.26585        5.27855        5.28817        5.35260
        5.66660        5.69475        5.77187        5.78480        5.90835
        5.98690        6.01723        6.02279       36.82243       51.38547
       51.42928       51.44513       51.45571
 Time used in FCKEIG, thr_jaco:   2.30D-02  2.70D-02  1.23D-06
 CPU and wall times used in FCKEIG, THR_FCKEIG:   2.30D-02  2.70D-02  2.90D-04
 -----------------------------------------------------------------------------

 *** DIIS iteration number    6
 RDSUPM called. NFMAT, ISYMDM(1:NFMAT)                     1
                     1

 ITDIIS, energy, error norm, change in energy, scr.thr., difden:
@ DIIS iter.   6    -361.181223753        1.07522D-02   -8.47D-05  -20    F

 (DIIS_RED) Control Parameters C2DIIS =         F NEVC =    6


 (DIIS_RED) B matrix:

               Column   1     Column   2     Column   3     Column   4     Column   5     Column   6
       1      15.77302849
       2       0.64580477     1.30867629
       3       0.81577676    -0.01137596     0.14520755
       4       0.04905815     0.08189387     0.00322814     0.00904946
       5       0.02111759     0.00736425     0.00555436     0.00079426     0.00084081
       6      -0.00494107    -0.00015567     0.00072691     0.00052914     0.00002145     0.00011561
    ==== End of matrix output ====

 DIIS C vector; C2DIIS = F, LAMBDA = -3.64D-05
    0.000823    0.007110   -0.010924   -0.131029    0.130628    1.003391
* Read MO coefficients from SIRIUS.RST with label "NEWORB  " and header info:  3Dec18  DIIS   6
      Virial theorem: -V/T =      2.003521
@      MULPOP N      -0.45; H       0.28; H       0.30; H       0.36; H       0.31; O      -0.63; O      -0.63; O      -0.70; O      -0.63; H       0.34; 
@             H       0.35; H       0.33; H       0.34; H       0.38; H       0.37; H       0.33; H       0.35; 

 DIIS Fock eigenvalues in symmetry 1
      -20.67678      -20.65375      -20.64751      -20.63088      -15.73735
       -1.44596       -1.43562       -1.41755       -1.41164       -1.32779
       -0.82500       -0.80345       -0.79207       -0.79127       -0.78782
       -0.77548       -0.75945       -0.70258       -0.66996       -0.66332
       -0.66049       -0.62388       -0.60224       -0.59527       -0.58093
       -0.00005        0.04100        0.08237        0.10589        0.11544
        0.14087        0.16902        0.17997        0.18778        0.21092
        0.22529        0.23280        0.27107        0.32128        0.36501
        0.36830        0.42843        0.46546        0.49656        0.50637
        0.51570        0.53527        0.54940        0.56743        0.58556
        0.76393        0.79014        0.81368        0.87170        0.89297
        0.92888        0.95650        0.97831        0.99071        0.99948
        1.02507        1.03745        1.04922        1.06845        1.07359
        1.14941        1.16519        1.20098        1.25528        1.30425
        1.31662        1.34264        1.37284        1.39476        1.42098
        1.43035        1.44052        1.44838        1.47857        1.50890
        1.55500        1.58877        1.61855        1.63315        1.66473
        1.69785        1.77086        1.79071        1.82138        1.86893
        1.88977        1.94924        1.99605        2.02677        2.05252
        2.12892        2.14459        2.14548        2.20891        2.26110
        2.26131        2.26473        2.29743        2.31289        2.33955
        2.44601        2.53497        2.55583        2.59352        2.60293
        2.66216        2.68193        2.69334        2.73468        2.74675
        2.75971        2.78348        2.85123        2.89098        3.07665
        3.17091        3.26423        3.28987        3.33005        3.34865
        3.39712        3.40079        3.40871        3.43430        3.46861
        3.50915        3.53831        3.54565        3.58742        3.61306
        3.83225        3.88552        3.92835        3.93477        4.09383
        4.12275        4.15600        4.18445        4.82801        4.97518
        5.10033        5.26459        5.27756        5.28707        5.35151
        5.66573        5.69370        5.77070        5.78333        5.90748
        5.98537        6.01610        6.02167       36.82054       51.38393
       51.42737       51.44235       51.45374
 Time used in FCKEIG, thr_jaco:   2.70D-02  3.90D-02  4.58D-07
 CPU and wall times used in FCKEIG, THR_FCKEIG:   2.70D-02  3.90D-02  1.08D-04
 -----------------------------------------------------------------------------

 *** DIIS iteration number    7
 RDSUPM called. NFMAT, ISYMDM(1:NFMAT)                     1
                     1

 ITDIIS, energy, error norm, change in energy, scr.thr., difden:
@ DIIS iter.   7    -361.181236177        2.32277D-03   -1.24D-05  -20    F

 (DIIS_RED) Control Parameters C2DIIS =         F NEVC =    7


 (DIIS_RED) B matrix:

               Column   1     Column   2     Column   3     Column   4     Column   5     Column   6
       1      15.77302849
       2       0.64580477     1.30867629
       3       0.81577676    -0.01137596     0.14520755
       4       0.04905815     0.08189387     0.00322814     0.00904946
       5       0.02111759     0.00736425     0.00555436     0.00079426     0.00084081
       6      -0.00494107    -0.00015567     0.00072691     0.00052914     0.00002145     0.00011561
       7       0.00032025     0.00021566    -0.00000589     0.00000948     0.00004747     0.00000060

               Column   7
       7       0.00000540
    ==== End of matrix output ====

 DIIS C vector; C2DIIS = F, LAMBDA = -1.16D-06
   -0.000255   -0.000931    0.005768    0.024159   -0.110213   -0.134772    1.216244
* Read MO coefficients from SIRIUS.RST with label "NEWORB  " and header info:  3Dec18  DIIS   7
      Virial theorem: -V/T =      2.003459
@      MULPOP N      -0.45; H       0.28; H       0.30; H       0.36; H       0.31; O      -0.63; O      -0.63; O      -0.70; O      -0.63; H       0.35; 
@             H       0.35; H       0.33; H       0.34; H       0.39; H       0.37; H       0.34; H       0.35; 

 DIIS Fock eigenvalues in symmetry 1
      -20.67656      -20.65331      -20.64725      -20.63065      -15.73691
       -1.44584       -1.43542       -1.41741       -1.41152       -1.32757
       -0.82483       -0.80329       -0.79194       -0.79114       -0.78774
       -0.77532       -0.75938       -0.70260       -0.66988       -0.66325
       -0.66048       -0.62371       -0.60202       -0.59506       -0.58075
       -0.00005        0.04106        0.08241        0.10594        0.11548
        0.14092        0.16906        0.18001        0.18783        0.21096
        0.22536        0.23289        0.27115        0.32141        0.36513
        0.36841        0.42849        0.46553        0.49661        0.50644
        0.51574        0.53531        0.54945        0.56751        0.58563
        0.76406        0.79027        0.81384        0.87176        0.89310
        0.92902        0.95661        0.97842        0.99081        0.99959
        1.02517        1.03754        1.04929        1.06853        1.07367
        1.14955        1.16532        1.20111        1.25539        1.30431
        1.31673        1.34274        1.37292        1.39482        1.42101
        1.43038        1.44056        1.44846        1.47858        1.50894
        1.55506        1.58886        1.61859        1.63322        1.66484
        1.69795        1.77097        1.79073        1.82139        1.86893
        1.88982        1.94936        1.99617        2.02689        2.05255
        2.12900        2.14462        2.14551        2.20905        2.26118
        2.26140        2.26477        2.29752        2.31301        2.33960
        2.44611        2.53498        2.55588        2.59361        2.60302
        2.66222        2.68200        2.69336        2.73473        2.74680
        2.75974        2.78350        2.85142        2.89117        3.07682
        3.17111        3.26444        3.29009        3.33017        3.34879
        3.39723        3.40090        3.40892        3.43443        3.46873
        3.50937        3.53843        3.54578        3.58763        3.61318
        3.83235        3.88572        3.92846        3.93489        4.09398
        4.12288        4.15622        4.18458        4.82830        4.97546
        5.10061        5.26484        5.27775        5.28728        5.35168
        5.66588        5.69387        5.77087        5.78358        5.90763
        5.98563        6.01624        6.02183       36.82096       51.38415
       51.42763       51.44277       51.45398
 Time used in FCKEIG, thr_jaco:   2.30D-02  2.70D-02  9.89D-08
 CPU and wall times used in FCKEIG, THR_FCKEIG:   2.30D-02  2.70D-02  2.32D-05
 -----------------------------------------------------------------------------

 *** DIIS iteration number    8
 RDSUPM called. NFMAT, ISYMDM(1:NFMAT)                     1
                     1

 ITDIIS, energy, error norm, change in energy, scr.thr., difden:
@ DIIS iter.   8    -361.181236769        3.45662D-04   -5.91D-07  -20    F

 (DIIS_RED) Control Parameters C2DIIS =         F NEVC =    8


 (DIIS_RED) B matrix:

               Column   1     Column   2     Column   3     Column   4     Column   5     Column   6
       1      15.77302849
       2       0.64580477     1.30867629
       3       0.81577676    -0.01137596     0.14520755
       4       0.04905815     0.08189387     0.00322814     0.00904946
       5       0.02111759     0.00736425     0.00555436     0.00079426     0.00084081
       6      -0.00494107    -0.00015567     0.00072691     0.00052914     0.00002145     0.00011561
       7       0.00032025     0.00021566    -0.00000589     0.00000948     0.00004747     0.00000060
       8       0.00009873    -0.00004838     0.00000716     0.00000168     0.00000001     0.00000162

               Column   7     Column   8
       7       0.00000540
       8       0.00000032     0.00000012
    ==== End of matrix output ====

 DIIS C vector; C2DIIS = F, LAMBDA = -4.75D-08
    0.000025    0.000122   -0.001041   -0.002931    0.023506    0.001089   -0.275274    1.254504
* Read MO coefficients from SIRIUS.RST with label "NEWORB  " and header info:  3Dec18  DIIS   8
      Virial theorem: -V/T =      2.003476
@      MULPOP N      -0.45; H       0.28; H       0.30; H       0.36; H       0.30; O      -0.63; O      -0.63; O      -0.70; O      -0.63; H       0.35; 
@             H       0.35; H       0.33; H       0.34; H       0.39; H       0.37; H       0.34; H       0.35; 

 DIIS Fock eigenvalues in symmetry 1
      -20.67658      -20.65333      -20.64726      -20.63064      -15.73694
       -1.44583       -1.43542       -1.41741       -1.41152       -1.32758
       -0.82484       -0.80329       -0.79194       -0.79113       -0.78774
       -0.77533       -0.75937       -0.70262       -0.66990       -0.66328
       -0.66050       -0.62370       -0.60202       -0.59506       -0.58074
       -0.00005        0.04105        0.08241        0.10593        0.11547
        0.14091        0.16907        0.18001        0.18783        0.21096
        0.22536        0.23288        0.27115        0.32140        0.36513
        0.36841        0.42849        0.46553        0.49661        0.50644
        0.51574        0.53531        0.54945        0.56750        0.58562
        0.76405        0.79026        0.81383        0.87175        0.89309
        0.92901        0.95661        0.97842        0.99080        0.99959
        1.02517        1.03754        1.04929        1.06853        1.07367
        1.14954        1.16532        1.20111        1.25539        1.30431
        1.31673        1.34273        1.37292        1.39481        1.42101
        1.43037        1.44056        1.44845        1.47858        1.50893
        1.55506        1.58886        1.61859        1.63321        1.66484
        1.69794        1.77096        1.79073        1.82139        1.86893
        1.88982        1.94935        1.99616        2.02689        2.05254
        2.12900        2.14462        2.14550        2.20904        2.26118
        2.26139        2.26476        2.29751        2.31300        2.33959
        2.44610        2.53498        2.55588        2.59361        2.60301
        2.66221        2.68200        2.69336        2.73472        2.74679
        2.75973        2.78350        2.85140        2.89115        3.07681
        3.17109        3.26442        3.29007        3.33016        3.34878
        3.39723        3.40090        3.40890        3.43442        3.46873
        3.50935        3.53843        3.54577        3.58762        3.61318
        3.83234        3.88571        3.92845        3.93488        4.09397
        4.12288        4.15621        4.18458        4.82828        4.97544
[...]
 | 1 1 1 1 |  27   1   8   1 |      993        1 |       492529 |    0.126458  |
 | 1 1 1 1 |  30   1   8   1 |      996        1 |       495511 |    0.068210  |
 | 1 1 1 1 |  28   1   9   1 |     1132        1 |       640147 |   -0.083438  |
 | 1 1 1 1 |  13   1  12   1 |     1531        1 |      1171216 |    0.067381  |
 | 1 1 1 1 |  28   1  12   1 |     1546        1 |      1194286 |   -0.097179  |
 | 1 1 1 1 |  28   1  16   1 |     2098        1 |      2199754 |    0.068147  |
 +=============================================================================+


          Norm of Printed Amplitude Vector :             0.8312

          Printed all single excitations greater than 0.379180

          Printed all double excitations greater than 0.065184



+======================================================================+
| contributions of excitation levels to right eigenvectors as computed |
| from the (RE|RE) self overlap                                        |
+----------------------------------------------------------------------+
| sym | multi | state |    E / eV  | % singles | % doubles | % triples |
+======================================================================+
|    1|   1   |   1   |  411.95071 |  87.9565  |  12.0435  |   0.0000  |
+======================================================================+





+======================================================================+
| contributions of excitation levels to excited states as computed     |
| from the (LE|RE) overlap                                             |
+----------------------------------------------------------------------+
| sym | multi | state |    E / eV  | % singles | % doubles | % triples |
+======================================================================+
|    1|   1   |   1   |  411.95071 |  78.7095  |  21.2905  |   0.0000  |
+======================================================================+



 --------------------------
 Symmetry class Nr.:     1
 Multiplicity      :     3
 --------------------------

 Length of Excitation vectors in this class is:   8404200
 No Excitation Energies calculated in this symmetry class
     

   *******************************************************************
   *                                                                 *
   *--------   OUTPUT FROM PROPERTY AND SYMMETRY ANALYSIS   ---------*
   *                                                                 *
   *******************************************************************



                         +-------------------------------+
                         ! REQUESTED PROPERTY OPERATORS: !
                         +-------------------------------+

             Index   Oper. Label  Symmetry  Transp.  PDBS  Atom
             --------------------------------------------------
                1     HAM0            1        1      T      0
                2     XDIPLEN         1        1      F      0
                3     YDIPLEN         1        1      F      0
                4     ZDIPLEN         1        1      F      0
             --------------------------------------------------




                         +-------------------------------+
                         ! REQUESTED EXPECTATION VALUES: !
                         +-------------------------------+

                       Index   Oper. Label  Symmetry
                       -----------------------------
                       -----------------------------




                       +------------------------------------+
                       ! REQUESTED EFFECTIVE FOCK MATRICES: !
                       +------------------------------------+

                       Index   Oper. Label  Symmetry
                       -----------------------------
                       -----------------------------




                        +----------------------------------+
                        ! REQUESTED FIRST ORDER M-VECTORS: !
                        +----------------------------------+

               Index   State Symmetry  Frequency
               --------------------------------------------------
                  1             1    1     1.513891D+01
               --------------------------------------------------


      

    *******************************************************************
    *          SOLVING COUPLED CLUSTER RESPONSE EQUATIONS             *
    *******************************************************************



 
 +======================================================================+
 !                     RHS & ETA VECTORS TO COMPUTE:                    !
 +======================================================================+
 | TYPE | # VEC. |  NEEDED FOR:                                         |
 +----------------------------------------------------------------------+
 +======================================================================+



 +======================================================================+
 !                       LINEAR EQUATIONS TO SOLVE:                     !
 +======================================================================+
 | TYPE | # VEC. |  EQUATION:                                           |
 +----------------------------------------------------------------------+
 |  M1  |    1   |  first-order ground - excited state multipliers      |
 +======================================================================+



 +======================================================================+
 !                F MATRIX TRANSFORMATIONS TO COMPUTE:                  !
 +======================================================================+
 | TYPE | # VEC. |  TRANSFORMED:                                        |
 +----------------------------------------------------------------------+
 |  FR  |    1   |  right eigenvectors (RE)                             |
 +======================================================================+





 Testing R1 list: 

 List nr.  Label     Symmetry      Frequency      T1-norm        T2-norm


 Testing L1 list: 

 List nr.  Label     Symmetry      Frequency      T1-norm        T2-norm
  Solvent 1-order response equations converged in                     0 
  solvent iterations
 SONIAPRI                     0
 CCEQ_STR: CVSEPARATION =  T
 CCEQ_STR: IONIZATION =  T
 CCEQ_STR: REMOVE_CORE =  F
 could not find required file CCM1_1___1
 IOPTSV is    33 ... program continues nevertheless.
 Vector nr.  1 of type M1  and symmetry  1 was not found on file.
     M1  start vector nr.  1 of symmetry  1 generated from gradient
 CCEQ_STR: freeze VALENCE OR VIRT
 CCEQ_SOL: CVSEPARA=     T
 CCEQ_SOL: LIONISAT=     T
 CCEQ_SOL: REMOVE_CORE =  F



 ----- COUPLED CLUSTER RESPONSE SOLVER -----

    Iter  #Vectors  time (min)   residual
    --------------------------------------
 CCRED CVS/IONIS sigma_                     1 
 project out valence occupied or virtual
      1       1         1.43     0.22E+01
 CCRED CVS/IONIS sigma_                     2 
 project out valence occupied or virtual
      2       1         1.49     0.41E+00
 CCRED CVS/IONIS sigma_                     3 
 project out valence occupied or virtual
      3       1         1.53     0.50E-01
 CCRED CVS/IONIS sigma_                     4 
 project out valence occupied or virtual
      4       1         1.47     0.52E-02
 CCRED CVS/IONIS sigma_                     5 
 project out valence occupied or virtual
                    -1  vectors with norm le:  1.000000000000000E-035  REMOVED

 CCORT,**WARNING**  number vectors added is zero after check for vector norm , NBADD :    0

 CCORT, number vectors added is zero , NBADD :    0

 CCORT, number vectors added is zero , NBADD :    0

 CCORT, number vectors added is zero , NBADD :    0

 CCORT, number vectors added is zero , NBADD :    0

 CCORT, number vectors added is zero , NBADD :    0

 *** MICROITERATIONS STOPPED DUE TO LINEAR DEPENDENCE BETWEEN ALL NEW TRIAL VECTORS
                     0  trial vectors converged
  LINEAR DEPENDENCE BETWEEN                     1  NON CONVERGED TRIAL VECTORS
      5       1         1.49     0.72E-03

 ***  CCEQ_SOL -MICROITERATIONS STOPPED  
     LINEAR DEPENDENCE BETWEEN ALL NEW TRIAL VECTORS
    --------------------------------------
    converged in  5 iterations
    threshold:    0.10E-08


         Routine          Time (min)
         ---------------------------
         CC_TRDRV            7.40
         CCRED               0.05
         CCNEX               0.07
         ---------------------------
         Total time          7.53


  Total CPU  time used in CCEQ_SOLV:  7 minutes 32 seconds
  Total wall time used in CCEQ_SOLV:  9 minutes 41 seconds


 xxxxxxxxxxxxxxxxxxxxxxxxxxxxxxxxxxxxx

 
 Solution of CC response equations completed.
 

 *******************************************************************
 *                                                                 *
 *--------  OUTPUT FROM COUPLED CLUSTER LINEAR RESPONSE   ---------*
 *                                                                 *
 *--------      CALCULATION OF SECOND ORDER RESIDUES      ---------*
 *                                                                 *
 *******************************************************************



                  +---------------------------------------------+
                  ! CC_SOPR: Calculation of CCSD       Residues !
                  +---------------------------------------------+

 Doing the Mf*CsiA
 Doing the Mf*CsiA
 Doing the Mf*CsiA


 CCSD  Right transition moments in atomic units:
 -----------------------------------------------

  1      15.138911  <XDIPLEN |f> =       0.00000000
  1      15.138911  <YDIPLEN |f> =       0.00000008
  1      15.138911  <ZDIPLEN |f> =      -0.00000000


 CCSD  Left  transition moments in atomic units:
 -----------------------------------------------

  1      15.138911  <f|XDIPLEN > =       0.00000000
  1      15.138911  <f|YDIPLEN > =       0.00000004
  1      15.138911  <f|ZDIPLEN > =      -0.00000000


 CCSD  linear response residue property in atomic units:
 -------------------------------------------------------

 RES{<<XDIPLEN ,XDIPLEN >>(15.138911)} =     0.00000000 (   0.00000000)
 RES{<<XDIPLEN ,YDIPLEN >>(15.138911)} =     0.00000000 (   0.00000001)
 RES{<<XDIPLEN ,ZDIPLEN >>(15.138911)} =    -0.00000000 (  -0.00000000)
 RES{<<YDIPLEN ,XDIPLEN >>(15.138911)} =     0.00000000 (   0.00000001)
 RES{<<YDIPLEN ,YDIPLEN >>(15.138911)} =     0.00000000 (   0.00000005)
 RES{<<YDIPLEN ,ZDIPLEN >>(15.138911)} =    -0.00000000 (  -0.00000001)
 RES{<<ZDIPLEN ,XDIPLEN >>(15.138911)} =    -0.00000000 (  -0.00000000)
 RES{<<ZDIPLEN ,YDIPLEN >>(15.138911)} =    -0.00000000 (  -0.00000001)
 RES{<<ZDIPLEN ,ZDIPLEN >>(15.138911)} =     0.00000000 (   0.00000000)


 CCSD  Transition strength matrix for state nr.  1 of symmetry 1
 CCSD  excitation energy:15.13891053

 Gauge: length

               Column   1     Column   2     Column   3
       1     8.144337D-19   4.977158D-17  -2.922607D-18
       2     4.977158D-17   2.997486D-15  -1.766345D-16
       3    -2.922607D-18  -1.766345D-16   1.039978D-17
    ==== End of matrix output ====

 Principal values of diagonalized transition strength matrix:

             a.u.               
 1       0.00000000
 2       0.00000000
 3       0.00000000

 Principal axis of diagonalized transition strength matrix:


               Column   1     Column   2     Column   3
       1       1.00000000     0.00000000     0.00000000
       2       0.00000000     1.00000000     0.00000000
       3       0.00000000     0.00000000     1.00000000
    ==== End of matrix output ====


 CCSD   oscillator strength matrix for state nr.  1 of symmetry 1
 CCSD  excitation energy:15.13891053


               Column   1     Column   2     Column   3
       1     8.219759D-18   5.023250D-16  -2.949672D-17
       2     5.023250D-16   3.025245D-14  -1.782703D-15
       3    -2.949672D-17  -1.782703D-15   1.049609D-16
    ==== End of matrix output ====

 Principal values of diagonalized oscillator strength matrix:

             a.u.               
 1       0.00000000
 2       0.00000000
 3       0.00000000

 Principal axis of diagonalized oscillator strength matrix:


               Column   1     Column   2     Column   3
       1       1.00000000     0.00000000     0.00000000
       2       0.00000000     1.00000000     0.00000000
       3       0.00000000     0.00000000     1.00000000
    ==== End of matrix output ====

  Total time for      9 linear response residues:       3.14 seconds.
  

 *******************************************************************************
 *******************************************************************************
 *                                                                             *
 *                                                                             *
 *                   SUMMARY OF COUPLED CLUSTER CALCULATION                    *
 *                                                                             *
 *                                                                             *
 *******************************************************************************
 *******************************************************************************

                                                                                
                                                                                
            Total SCF   energy:                  -361.1812367860                
            Total MP2   energy:                  -362.2923589031                
            Total CCSD  energy:                  -362.3329650730                
                                                                                
                                                                                
            Total SCF   energy:                  -361.1812367860                
            Total RSTAR energy:                  -362.3329650730                
            Total CCSD  energy:                  -362.3330987714                
                                                                                
                                                                                
            Total SCF   energy:                  -361.1812367860                
            Total RSTAR energy:                  -362.3330987714                
            Total CCSD  energy:                  -362.3330990243                
                                                                                
                                                                                
            Total SCF   energy:                  -361.1812367860                
            Total RSTAR energy:                  -362.3330990243                
            Total CCSD  energy:                  -362.3330991069                
                                                                                
                                                                                
            Total SCF   energy:                  -361.1812367860                
            Total RSTAR energy:                  -362.3330991069                
            Total CCSD  energy:                  -362.3330991077                
                                                                                
                                                                                
            Total SCF   energy:                  -361.1812367860                
            Total RSTAR energy:                  -362.3330991077                
            Total CCSD  energy:                  -362.3330991077                
            CCSD Total  energy:                  -362.7412166995                
            CCSD E(QM/MM)     :                    -0.4040812364                
                                                                                
                                                                                
                                                                                
 +=============================================================================+
 |  sym. | Exci.  |        CCSD       Excitation energies            | ||T1||  |
 |(spin, |        +------------------------------------------------------------+
 | spat) |        |     Hartree    |       eV.      |     cm-1       |    %    |
 +=============================================================================+
 | ^1A   |    1   |    15.1389105  |     411.95071  |   3322606.778  |  87.96  |
 +=============================================================================+
                                                                                
                                                                                
     Total energies in Hartree:                                                 
             1 ^1A       -347.1982249287                                        
                                                                                
                                                                                
 +=============================================================================+
 |  sym. | Exci.  |        CCSD       Length   Gauge Oscillator Strength       |
 |(spin, |        +------------------------------------------------------------+
 | spat) |        | Dipole Strength(a.u.) | Oscillator strength  | Direction   |
 +=============================================================================+
 | ^1A   |    1   |        0.0000000      |      0.0000000       |    -        |
 +=============================================================================+

  1 a.u. =        27.21138 eV.  
  1 a.u. =    219474.62934 cm-1.
  

 *******************************************************************************
 *******************************************************************************
 *                                                                             *
 *                                                                             *
 *                      END OF COUPLED CLUSTER CALCULATION                     *
 *                                                                             *
 *                                                                             *
 *******************************************************************************
 *******************************************************************************


 CPU and wall time for CC :    7040.579    9598.720

 
     Date and time (Linux)  : Mon Dec  3 18:53:08 2018
     Host name              : n-62-23-28                              


                      .-------------------------------------.
                      | End of Coupled Cluster Section (CC) |
                      `-------------------------------------'

  Total CPU  time used in DALTON:   1 hour  59 minutes 35 seconds
  Total wall time used in DALTON:   2 hours 44 minutes 20 seconds

 
     Date and time (Linux)  : Mon Dec  3 18:53:08 2018
     Host name              : n-62-23-28                              
  

 +---------------------------------------------------------+ 
 | List of selected calculated molecular properties (a.u.) | 
 +---------------------------------------------------------+ 

  Properties are read from unit number                      4

 CCSD       properties :
 #  1 1 CCSD/MM  Ground state Energy =    -362.7412166995
 #  2 1 E_QM/MM  Ground state Energy =      -0.4040812364
 #  3 1 Sy: 1 Sp: 1 Exc:  1 E_tot:   -347.1982249287 w:     15.1389105344 E_grs:   -362.3371354631
 #  4 1 Exctot   Excited state Energy =    -347.1982249287
 #  5 1 |<O|XDIPLEN |i(15.138911)>| =     0.00000000
 #  7 1 |<O|YDIPLEN |i(15.138911)>| =     0.00000005
 #  9 1 |<O|ZDIPLEN |i(15.138911)>| =     0.00000000

 THE_END   
