

     ************************************************************************
     *************** Dalton - An Electronic Structure Program ***************
     ************************************************************************

    This is output from DALTON release Dalton2017.alpha (2016)
         ( Web site: http://daltonprogram.org )

   ----------------------------------------------------------------------------

    NOTE:
     
    Dalton is an experimental code for the evaluation of molecular
    properties using (MC)SCF, DFT, CI, and CC wave functions.
    The authors accept no responsibility for the performance of
    the code or for the correctness of the results.
     
    The code (in whole or part) is provided under a licence and
    is not to be reproduced for further distribution without
    the written permission of the authors or their representatives.
     
    See the home page "http://daltonprogram.org" for further information.
     
    If results obtained with this code are published,
    the appropriate citations would be both of:
     
       K. Aidas, C. Angeli, K. L. Bak, V. Bakken, R. Bast,
       L. Boman, O. Christiansen, R. Cimiraglia, S. Coriani,
       P. Dahle, E. K. Dalskov, U. Ekstroem,
       T. Enevoldsen, J. J. Eriksen, P. Ettenhuber, B. Fernandez,
       L. Ferrighi, H. Fliegl, L. Frediani, K. Hald, A. Halkier,
       C. Haettig, H. Heiberg, T. Helgaker, A. C. Hennum,
       H. Hettema, E. Hjertenaes, S. Hoest, I.-M. Hoeyvik,
       M. F. Iozzi, B. Jansik, H. J. Aa. Jensen, D. Jonsson,
       P. Joergensen, J. Kauczor, S. Kirpekar,
       T. Kjaergaard, W. Klopper, S. Knecht, R. Kobayashi, H. Koch,
       J. Kongsted, A. Krapp, K. Kristensen, A. Ligabue,
       O. B. Lutnaes, J. I. Melo, K. V. Mikkelsen, R. H. Myhre,
       C. Neiss, C. B. Nielsen, P. Norman, J. Olsen,
       J. M. H. Olsen, A. Osted, M. J. Packer, F. Pawlowski,
       T. B. Pedersen, P. F. Provasi, S. Reine, Z. Rinkevicius,
       T. A. Ruden, K. Ruud, V. Rybkin, P. Salek, C. C. M. Samson,
       A. Sanchez de Meras, T. Saue, S. P. A. Sauer,
       B. Schimmelpfennig, K. Sneskov, A. H. Steindal,
       K. O. Sylvester-Hvid, P. R. Taylor, A. M. Teale,
       E. I. Tellgren, D. P. Tew, A. J. Thorvaldsen, L. Thoegersen,
       O. Vahtras, M. A. Watson, D. J. D. Wilson, M. Ziolkowski
       and H. Agren,
       "The Dalton quantum chemistry program system",
       WIREs Comput. Mol. Sci. 2014, 4:269–284 (doi: 10.1002/wcms.1172)
     
    and
     
       Dalton, a Molecular Electronic Structure Program,
       Release Dalton2017.alpha (2016), see http://daltonprogram.org
   ----------------------------------------------------------------------------

    Authors in alphabetical order (major contribution(s) in parenthesis):

  Kestutis Aidas,           Vilnius University,           Lithuania   (QM/MM)
  Celestino Angeli,         University of Ferrara,        Italy       (NEVPT2)
  Keld L. Bak,              UNI-C,                        Denmark     (AOSOPPA, non-adiabatic coupling, magnetic properties)
  Vebjoern Bakken,          University of Oslo,           Norway      (DALTON; geometry optimizer, symmetry detection)
  Radovan Bast,             UiT The Arctic U. of Norway,  Norway      (DALTON installation and execution frameworks)
  Pablo Baudin,             University of Valencia,       Spain       (Cholesky excitation energies)
  Linus Boman,              NTNU,                         Norway      (Cholesky decomposition and subsystems)
  Ove Christiansen,         Aarhus University,            Denmark     (CC module)
  Renzo Cimiraglia,         University of Ferrara,        Italy       (NEVPT2)
  Sonia Coriani,            University of Trieste,        Italy       (CC module, MCD in RESPONS)
  Janusz Cukras,            University of Trieste,        Italy       (MChD in RESPONS)
  Paal Dahle,               University of Oslo,           Norway      (Parallelization)
  Erik K. Dalskov,          UNI-C,                        Denmark     (SOPPA)
  Thomas Enevoldsen,        Univ. of Southern Denmark,    Denmark     (SOPPA)
  Janus J. Eriksen,         Aarhus University,            Denmark     (Polarizable embedding model, TDA)
  Rasmus Faber,             University of Copenhagen,     Denmark     (Vib.avg. NMR with SOPPA, parallel AO-SOPPA)
  Berta Fernandez,          U. of Santiago de Compostela, Spain       (doublet spin, ESR in RESPONS)
  Lara Ferrighi,            Aarhus University,            Denmark     (PCM Cubic response)
  Heike Fliegl,             University of Oslo,           Norway      (CCSD(R12))
  Luca Frediani,            UiT The Arctic U. of Norway,  Norway      (PCM)
  Bin Gao,                  UiT The Arctic U. of Norway,  Norway      (Gen1Int library)
  Christof Haettig,         Ruhr-University Bochum,       Germany     (CC module)
  Kasper Hald,              Aarhus University,            Denmark     (CC module)
  Asger Halkier,            Aarhus University,            Denmark     (CC module)
  Frederik Beyer Hansen,    University of Copenhagen,     Denmark     (Parallel AO-SOPPA)
  Erik D. Hedegaard,        Univ. of Southern Denmark,    Denmark     (Polarizable embedding model, QM/MM)
  Hanne Heiberg,            University of Oslo,           Norway      (geometry analysis, selected one-electron integrals)
  Trygve Helgaker,          University of Oslo,           Norway      (DALTON; ABACUS, ERI, DFT modules, London, and much more)
  Alf Christian Hennum,     University of Oslo,           Norway      (Parity violation)
  Hinne Hettema,            University of Auckland,       New Zealand (quadratic response in RESPONS; SIRIUS supersymmetry)
  Eirik Hjertenaes,         NTNU,                         Norway      (Cholesky decomposition)
  Pi A. B. Haase,           University of Copenhagen,     Denmark     (Triplet AO-SOPPA)
  Maria Francesca Iozzi,    University of Oslo,           Norway      (RPA)
  Brano Jansik              Technical Univ. of Ostrava    Czech Rep.  (DFT cubic response)
  Hans Joergen Aa. Jensen,  Univ. of Southern Denmark,    Denmark     (DALTON; SIRIUS, RESPONS, ABACUS modules, London, and much more)
  Dan Jonsson,              UiT The Arctic U. of Norway,  Norway      (cubic response in RESPONS module)
  Poul Joergensen,          Aarhus University,            Denmark     (RESPONS, ABACUS, and CC modules)
  Maciej Kaminski,          University of Warsaw,         Poland      (CPPh in RESPONS)
  Joanna Kauczor,           Linkoeping University,        Sweden      (Complex polarization propagator (CPP) module)
  Sheela Kirpekar,          Univ. of Southern Denmark,    Denmark     (Mass-velocity & Darwin integrals)
  Wim Klopper,              KIT Karlsruhe,                Germany     (R12 code in CC, SIRIUS, and ABACUS modules)
  Stefan Knecht,            ETH Zurich,                   Switzerland (Parallel CI and MCSCF)
  Rika Kobayashi,           Australian National Univ.,    Australia   (DIIS in CC, London in MCSCF)
  Henrik Koch,              NTNU,                         Norway      (CC module, Cholesky decomposition)
  Jacob Kongsted,           Univ. of Southern Denmark,    Denmark     (Polarizable embedding model, QM/MM)
  Andrea Ligabue,           University of Modena,         Italy       (CTOCD, AOSOPPA)
  Nanna H. List             Univ. of Southern Denmark,    Denmark     (Polarizable embedding model)
  Ola B. Lutnaes,           University of Oslo,           Norway      (DFT Hessian)
  Juan I. Melo,             University of Buenos Aires,   Argentina   (LRESC, Relativistic Effects on NMR Shieldings)
  Kurt V. Mikkelsen,        University of Copenhagen,     Denmark     (MC-SCRF and QM/MM)
  Rolf H. Myhre,            NTNU,                         Norway      (Cholesky, subsystems and ECC2)
  Christian Neiss,          Univ. Erlangen-Nuernberg,     Germany     (CCSD(R12))
  Christian B. Nielsen,     University of Copenhagen,     Denmark     (QM/MM)
  Patrick Norman,           Linkoeping University,        Sweden      (Cubic response and complex frequency response in RESPONS)
  Jeppe Olsen,              Aarhus University,            Denmark     (SIRIUS CI/density modules)
  Jogvan Magnus H. Olsen,   Univ. of Southern Denmark,    Denmark     (Polarizable embedding model, QM/MM)
  Anders Osted,             Copenhagen University,        Denmark     (QM/MM)
  Martin J. Packer,         University of Sheffield,      UK          (SOPPA)
  Filip Pawlowski,          Kazimierz Wielki University,  Poland      (CC3)
  Morten N. Pedersen,       Univ. of Southern Denmark,    Denmark     (Polarizable embedding model)
  Thomas B. Pedersen,       University of Oslo,           Norway      (Cholesky decomposition)
  Patricio F. Provasi,      University of Northeastern,   Argentina   (Analysis of coupling constants in localized orbitals)
  Zilvinas Rinkevicius,     KTH Stockholm,                Sweden      (open-shell DFT, ESR)
  Elias Rudberg,            KTH Stockholm,                Sweden      (DFT grid and basis info)
  Torgeir A. Ruden,         University of Oslo,           Norway      (Numerical derivatives in ABACUS)
  Kenneth Ruud,             UiT The Arctic U. of Norway,  Norway      (DALTON; ABACUS magnetic properties and much more)
  Pawel Salek,              KTH Stockholm,                Sweden      (DALTON; DFT code)
  Claire C. M. Samson       University of Karlsruhe       Germany     (Boys localization, r12 integrals in ERI)
  Alfredo Sanchez de Meras, University of Valencia,       Spain       (CC module, Cholesky decomposition)
  Trond Saue,               Paul Sabatier University,     France      (direct Fock matrix construction)
  Stephan P. A. Sauer,      University of Copenhagen,     Denmark     (SOPPA(CCSD), SOPPA prop., AOSOPPA, vibrational g-factors)
  Bernd Schimmelpfennig,    Forschungszentrum Karlsruhe,  Germany     (AMFI module)
  Kristian Sneskov,         Aarhus University,            Denmark     (Polarizable embedding model, QM/MM)
  Arnfinn H. Steindal,      UiT The Arctic U. of Norway,  Norway      (parallel QM/MM, Polarizable embedding model)
  Casper Steinmann,         Univ. of Southern Denmark,    Denmark     (QFIT, Polarizable embedding model)
  K. O. Sylvester-Hvid,     University of Copenhagen,     Denmark     (MC-SCRF)
  Peter R. Taylor,          VLSCI/Univ. of Melbourne,     Australia   (Symmetry handling ABACUS, integral transformation)
  Andrew M. Teale,          University of Nottingham,     England     (DFT-AC, DFT-D)
  David P. Tew,             University of Bristol,        England     (CCSD(R12))
  Olav Vahtras,             KTH Stockholm,                Sweden      (triplet response, spin-orbit, ESR, TDDFT, open-shell DFT)
  David J. Wilson,          La Trobe University,          Australia   (DFT Hessian and DFT magnetizabilities)
  Hans Agren,               KTH Stockholm,                Sweden      (SIRIUS module, RESPONS, MC-SCRF solvation model)
 --------------------------------------------------------------------------------

     Date and time (Linux)  : Wed Nov 28 22:34:00 2018
     Host name              : n-62-23-15                              

 * Work memory size             :  1280000000 =  9.537 gigabytes.

 * Directories for basis set searches:
   1) /zhome/d7/7/119775/My_Codes/dalton-private/build2016/basis/diffs
   2) /zhome/37/3/129401/NH3NH4/CCSD/AIMD_SAMPLING/nh4_4h2o_nd
   3) /zhome/9a/4/124800/source/dalton/build-mlcc/basis


Compilation information
-----------------------

 Who compiled             | rfaber
 Host                     | hpclogin1
 System                   | Linux-2.6.32-696.1.1.el6.x86_64
 CMake generator          | Unix Makefiles
 Processor                | x86_64
 64-bit integers          | ON
 MPI                      | OFF
 Fortran compiler         | /opt/intel/2016update2/compilers_and_libraries_201
                          | 6.2.181/linux/bin/intel64/ifort
 Fortran compiler version | ifort (IFORT) 16.0.2 20160204
 C compiler               | /opt/intel/2016update2/compilers_and_libraries_201
                          | 6.2.181/linux/bin/intel64/icc
 C compiler version       | icc (ICC) 16.0.2 20160204
 C++ compiler             | /opt/intel/2016update2/compilers_and_libraries_201
                          | 6.2.181/linux/bin/intel64/icpc
 C++ compiler version     | icpc (ICC) 16.0.2 20160204
 Static linking           | OFF
 Last Git revision        | bb4d1599ca5680a9f3980451fc8bbefdba436d59
 Git branch               | mlcc
 Configuration time       | 2017-06-13 16:11:03.928841


   Content of the .dal input file
 ----------------------------------

**DALTON
.RUN WAVE FUNCTIONS
*QMMM
.QMMM
**INTEGRALS
.DIPLEN
**WAVE FUNCTIONS
.CC
*PRINT
!To check the origin of excit
.PRINTL
   0 11
*SCF INP
.THRESH
1.0D-7
!*ORBITAL INPUT
!.MOSTART
!NEWORB
*CC INP
!.RESTART
.CCSD
.THRLEQ
 1.0D-9
.THRENR
 1.0D-10
.FROIMP
4
0
.PRINT
 1
.MAX IT
 1200
.MAXRED
 1200
.MXLRV
1199
*CCSLV
.CCMM
.MXSLIT
200
.MXINIT
4 5
*CCEXCI
.NCCEXC
 1
.IONISATION
1
1
.CVSEPARA
1
1
*CCLRSD
.DIPOLE
**END OF DALTON INPUT


   Content of the .mol file
 ----------------------------

ATOMBASIS


Atomtypes=5 Charge=1 Nosymm Angstrom
   7.00000    1    Basis=6-311G**
N          0.000000        0.000000        0.000000
   1.00000    4    Basis=6-311G**
H          0.501916        0.878694       -0.257227
H          0.674606       -0.778191       -0.345574
H         -0.925795        0.078832       -0.576916
H         -0.257686       -0.018532        1.047725
   8.00000    4    Basis=6-311G**
O         -2.390245       -0.413618       -1.678746
O          1.938448        2.033990       -0.100287
O         -1.008123        0.105789        2.580732
O          1.867189       -2.264268       -0.888435
   1.00000    8    Basis=6-311G**
H         -2.670701       -1.285946       -1.322260
H         -3.099967        0.279774       -1.544787
H          2.072324        3.026997       -0.141784
H          2.521387        1.621554       -0.784848
H         -0.365524        0.211682        3.387634
H         -1.205485        1.068955        2.355097
H          1.933868       -2.902485       -0.101667
H          2.734952       -1.765130       -0.700032
   0.00000    1    Basis=diffs
X          0.000000        0.000000        0.000000


       *******************************************************************
       *********** Output from DALTON general input processing ***********
       *******************************************************************

 --------------------------------------------------------------------------------
   Overall default print level:    0
   Print level for DALTON.STAT:    1

    HERMIT 1- and 2-electron integral sections will be executed
    "Old" integral transformation used (limited to max 255 basis functions)
    Wave function sections will be executed (SIRIUS module)
 --------------------------------------------------------------------------------


 Changes of defaults for *QMMM  :
 --------------------------------

 +------------------+
 |  WORD: | CHANGE: |
 +------------------+
 |   QMMM |       T |
 +------------------+
 


   ****************************************************************************
   *************** Output of molecule and basis set information ***************
   ****************************************************************************


    The two title cards from your ".mol" input:
    ------------------------------------------------------------------------
 1:                                                                         
 2:                                                                         
    ------------------------------------------------------------------------

  Coordinates are entered in Angstrom and converted to atomic units.
          - Conversion factor : 1 bohr = 0.52917721 A

  Atomic type no.    1
  --------------------
  Nuclear charge:   7.00000
  Number of symmetry independent centers:    1
  Number of basis sets to read;    2
  The basis set is "6-311G**" from the basis set library.
  Basis set file used for this atomic type with Z =   7 :
     "/zhome/9a/4/124800/source/dalton/build-mlcc/basis/6-311G**"

  Info about the basis set file: your basis has no documentation.
  Basis set: 6-311G**                                                                        

  Atomic type no.    2
  --------------------
  Nuclear charge:   1.00000
  Number of symmetry independent centers:    4
  Number of basis sets to read;    2
  The basis set is "6-311G**" from the basis set library.
  Basis set file used for this atomic type with Z =   1 :
     "/zhome/9a/4/124800/source/dalton/build-mlcc/basis/6-311G**"

  Info about the basis set file: your basis has no documentation.
  Basis set: 6-311G**                                                                        

  Atomic type no.    3
  --------------------
  Nuclear charge:   8.00000
  Number of symmetry independent centers:    4
  Number of basis sets to read;    2
  The basis set is "6-311G**" from the basis set library.
  Basis set file used for this atomic type with Z =   8 :
     "/zhome/9a/4/124800/source/dalton/build-mlcc/basis/6-311G**"

  Info about the basis set file: your basis has no documentation.
  Basis set: 6-311G**                                                                        

  Atomic type no.    4
  --------------------
  Nuclear charge:   1.00000
  Number of symmetry independent centers:    8
  Number of basis sets to read;    2
  The basis set is "6-311G**" from the basis set library.
  Basis set file used for this atomic type with Z =   1 :
     "/zhome/9a/4/124800/source/dalton/build-mlcc/basis/6-311G**"

  Info about the basis set file: your basis has no documentation.
  Basis set: 6-311G**                                                                        

  Atomic type no.    5
  --------------------
  Nuclear charge:   0.00000
  Number of symmetry independent centers:    1
  Number of basis sets to read;    2
  The basis set is "diffs" from the basis set library.
  Basis set file used for this atomic type with Z =   0 :
     "/zhome/9a/4/124800/source/dalton/build-mlcc/basis/diffs"

  Info about the basis set file: your basis has no documentation.
  Basis set: diffs                                                                           


                         SYMGRP: Point group information
                         -------------------------------

@    Point group: C1 


                                 Isotopic Masses
                                 ---------------

                           N          14.003074
                           H           1.007825
                           H           1.007825
                           H           1.007825
                           H           1.007825
                           O          15.994915
                           O          15.994915
                           O          15.994915
                           O          15.994915
                           H           1.007825
                           H           1.007825
                           H           1.007825
                           H           1.007825
                           H           1.007825
                           H           1.007825
                           H           1.007825
                           H           1.007825

                       Total mass:    90.076634 amu
                       Natural abundance:  98.500 %

 Center-of-mass coordinates (a.u.):    0.177129   -0.171767   -0.007637


  Atoms and basis sets
  --------------------

  Number of atom types :    5
  Total number of atoms:   18

  label    atoms   charge   prim   cont     basis
  ----------------------------------------------------------------------
  N           1    7.0000    31    18      [11s5p1d|4s3p1d]                                   
  H           4    1.0000     8     6      [5s1p|3s1p]                                        
  O           4    8.0000    31    18      [11s5p1d|4s3p1d]                                   
  H           8    1.0000     8     6      [5s1p|3s1p]                                        
  X           1    0.0000     1     1      [1s|1s]                                            
  ----------------------------------------------------------------------
  total:     18   51.0000   252   163
  ----------------------------------------------------------------------
  Spherical harmonic basis used.

  Threshold for neglecting AO integrals:  1.00D-12


  Cartesian Coordinates (a.u.)
  ----------------------------

  Total number of coordinates:   54
  N       :     1  x   0.0000000000    2  y   0.0000000000    3  z   0.0000000000
  H       :     4  x   0.9484837778    5  y   1.6604910077    6  z  -0.4860885820
  H       :     7  x   1.2748205823    8  y  -1.4705678629    9  z  -0.6530402159
  H       :    10  x  -1.7494989979   11  y   0.1489708899   12  z  -1.0902132371
  H       :    13  x  -0.4869559662   14  y  -0.0350204045   15  z   1.9799133043
  O       :    16  x  -4.5169084216   17  y  -0.7816247404   18  z  -3.1723701734
  O       :    19  x   3.6631358275   20  y   3.8436840410   21  z  -0.1895149639
  O       :    22  x  -1.9050763703   23  y   0.1999122370   24  z   4.8768766820
  O       :    25  x   3.5284758336   26  y  -4.2788463936   27  z  -1.6788988299
  H       :    28  x  -5.0468934517   29  y  -2.4300857515   30  z  -2.4987092660
  H       :    31  x  -5.8580886265   32  y   0.5286962369   33  z  -2.9192243515
  H       :    34  x   3.9161248023   35  y   5.7201953112   36  z  -0.2679329289
  H       :    37  x   4.7647308851   38  y   3.0642929569   39  z  -1.4831477697
  H       :    40  x  -0.6907402521   41  y   0.4000210056   42  z   6.4017004717
  H       :    43  x  -2.2780364978   44  y   2.0200321899   45  z   4.4504883278
  H       :    46  x   3.6544808819   47  y  -5.4849017319   48  z  -0.1921227859
  H       :    49  x   5.1683102450   50  y  -3.3356122750   51  z  -1.3228687587
  X       :    52  x   0.0000000000   53  y   0.0000000000   54  z   0.0000000000

  Max    interatomic separation is    6.5185 Angstrom (   12.3182 Bohr)
  between atoms   12 and   10, "H     " and "H     ".

  Min HX interatomic separation is    0.9832 Angstrom (    1.8580 Bohr)

  Min YX interatomic separation is    2.7727 Angstrom (    5.2396 Bohr)


  Bond distances (Angstrom):
  --------------------------

                  atom 1     atom 2       distance
                  ------     ------       --------
  bond distance:  H          N            1.044121
  bond distance:  H          N            1.086322
  bond distance:  H          N            1.093683
  bond distance:  H          N            1.079108
  bond distance:  H          O            0.983206
  bond distance:  H          O            1.001221
  bond distance:  H          O            1.002850
  bond distance:  H          O            0.989214
  bond distance:  H          O            1.036937
  bond distance:  H          O            1.008738
  bond distance:  H          O            1.015269
  bond distance:  H          O            1.018650


  Bond angles (degrees):
  ----------------------

                  atom 1     atom 2     atom 3         angle
                  ------     ------     ------         -----
  bond angle:     H          N          H            103.060
  bond angle:     H          N          H            102.492
  bond angle:     H          N          H            111.619
  bond angle:     H          N          H            114.174
  bond angle:     H          N          H            116.414
  bond angle:     H          N          H            108.135
  bond angle:     H          O          H            111.330
  bond angle:     H          O          H            107.790
  bond angle:     H          O          H            101.408
  bond angle:     H          O          H             96.243




 Principal moments of inertia (u*A**2) and principal axes
 --------------------------------------------------------

   IA     365.219407          0.993041    0.116006   -0.020327
   IB     399.382389         -0.061961    0.661386    0.747482
   IC     498.520304         -0.100156    0.741020   -0.663971


 Rotational constants
 --------------------

               A                   B                   C

           1383.7682           1265.4013           1013.7581 MHz
            0.046158            0.042209            0.033815 cm-1


@  Nuclear repulsion energy :  195.887285854227 Hartree

  Number of floating/multiple basis set orbitals :    1


                     .---------------------------------------.
                     | Starting in Integral Section (HERMIT) |
                     `---------------------------------------'



 ***************************************************************************************
 ****************** Output from **INTEGRALS input processing (HERMIT) ******************
 ***************************************************************************************



    *************************************************************************
    ****************** Output from HERMIT input processing ******************
    *************************************************************************


 Default print level:        1

 * Nuclear model: Point charge

 Calculation of one- and two-electron Hamiltonian integrals.

 The following one-electron property integrals are calculated as requested:
          - overlap integrals
          - dipole length integrals

 Center of mass  (bohr):      0.177128673642     -0.171766641072     -0.007636993125
 Operator center (bohr):      0.000000000000      0.000000000000      0.000000000000
 Gauge origin    (bohr):      0.000000000000      0.000000000000      0.000000000000
 Dipole origin   (bohr):      0.000000000000      0.000000000000      0.000000000000
 
  *********************************** 
  QMMM electrostatic potential: 
  Multipole order                                    0
  Isotropic polarization  
  *********************************** 
 
  ---------------- 
  QMMM information 
  ---------------- 
 
  MM coordinates in au 
  -------------------- 
     1      0.531846      3.781835     -6.124385
     2      0.606980      1.886952     -6.197614
     3      2.185022      4.465761     -6.390024
     4      9.876633      8.494326     11.740532
     5      8.041488      8.754712     11.749756
     6     10.497971      7.008605     10.791221
     7      4.844589      6.287446     -6.612624
     8      5.297832      7.733540     -5.423726
     9      6.542512      5.364963     -6.969333
    10      7.231700      9.967702     -4.150447
    11      7.625474      8.886964     -2.541755
    12      8.936332      9.740359     -5.224308
    13     -9.944856     -7.291298     -9.673425
    14     -8.888136     -8.029798    -11.020792
    15    -10.249090     -5.505443    -10.049802
    16    -11.549881      9.558462     -6.748129
    17    -12.457500      9.821562     -8.432498
    18    -10.439127     10.995515     -6.419316
    19     -1.479262     -9.315584     -0.197049
    20     -0.752323    -10.622906     -1.220708
    21     -2.763405    -10.084667      0.777479
    22      5.055805     -0.184588    -11.584975
    23      4.484519     -1.124912    -10.112947
    24      6.126855     -1.292739    -12.716132
    25      6.932413    -11.246440      2.448322
    26      8.306457    -10.305640      1.736379
    27      7.184091    -11.917906      4.163125
    28     -2.349419      5.650476    -10.253448
    29     -3.339647      4.125448    -10.416429
    30     -1.173441      5.356355     -8.881609
    31     -8.996597      1.808128     -2.356479
    32    -10.055197      1.734517     -0.900655
    33     -8.668487      3.661186     -2.712481
    34      8.430949     -9.037910     -9.394690
    35     10.238835     -8.481815     -9.561219
    36      7.752033     -8.796923     -7.601497
    37      1.289292     -1.233744     -6.591665
    38     -0.070848     -2.185672     -7.504635
    39      2.308308     -2.459460     -5.572817
    40     11.040035     -0.850282     -5.374311
    41     11.691766     -1.662326     -7.012388
    42     12.586035     -0.073631     -4.556137
    43     11.035031     -6.328035     -3.261858
    44      9.753587     -7.425093     -4.070120
    45     10.813499     -4.805430     -4.311450
    46      9.488642      7.330355      0.214843
    47     11.182040      8.140626      0.442714
    48      8.630455      7.443185      1.851591
    49      5.601483    -10.127687      9.967640
    50      4.845258    -11.785562     10.025700
    51      7.112132    -10.209786     11.072087
    52     -2.277900      5.834919     -2.354858
    53     -1.202357      5.015683     -3.599649
    54     -4.011478      5.972349     -3.051751
    55     10.462144      2.202731      0.997560
    56     10.019294      2.170623      2.814048
    57     10.332554      4.078441      0.573384
    58      0.482787     10.709685     -8.252067
    59      2.045286      9.945099     -9.048853
    60     -1.036849     10.229492     -9.040414
    61     -8.431811      0.353813      9.429915
    62     -6.735124      0.936038     10.104267
    63     -7.920957     -0.979354      8.282371
    64     -5.864884     -2.798853      6.462472
    65     -4.419758     -1.839318      5.778123
    66     -5.035171     -4.205839      7.471624
    67     -8.444241     -9.027129     -5.331110
    68     -8.511206     -8.303627     -6.979845
    69     -9.910708     -8.292702     -4.506989
    70     -5.729264      9.578995     -9.176327
    71     -6.061221      8.909528     -7.505815
    72     -4.842113      8.116733     -9.896382
    73      8.998885     -2.472045      8.976454
    74      9.110377     -1.150890      7.763834
    75      8.682392     -4.080389      8.228472
    76     -3.127053     -6.491132      9.180649
    77     -4.269725     -8.039320      9.386092
    78     -2.558394     -6.392471     10.982877
    79      3.157610      8.980230      0.959036
    80      4.732318      9.849092      1.249889
    81      2.716077      9.506760     -0.719082
    82     -3.201440     -2.893450     -7.783837
    83     -2.981035     -4.718444     -7.883010
    84     -3.939476     -2.342516     -6.168546
    85      3.696809      3.969489      5.390047
    86      3.501126      4.025784      3.514036
    87      1.967891      4.232310      6.248559
    88      3.569035     -6.145684     -9.678943
    89      4.342313     -7.481146    -10.881616
    90      4.309114     -6.685416     -8.101985
    91      0.405329     -0.414579      9.348878
    92      1.134361     -1.715335      8.254815
    93      1.908349      0.299350     10.033044
    94      0.930974      6.241514      9.108590
    95      0.912267      7.881125      8.194665
    96     -0.285625      6.298436     10.468777
    97     -9.675248      9.385223      2.613433
    98    -10.541531     10.735001      3.496632
    99     -9.283051      7.996410      3.744099
   100     -7.367078     -6.005771      2.374001
   101     -6.749858     -5.595524      0.657613
   102     -6.965419     -4.641925      3.575583
   103     -6.763027    -10.081676      9.776659
   104     -8.151324    -10.278258      8.479218
   105     -6.781968    -11.500217     10.969582
   106      8.240185     -7.144094      6.658798
   107      6.683217     -8.212616      7.293190
   108      7.775828     -6.470872      4.898864
   109    -10.792863    -10.522783      6.915506
   110    -11.828110    -11.760280      7.911064
   111    -11.852156     -8.866988      6.784173
   112     -4.611604     -6.101047     -2.235215
   113     -3.608585     -7.480197     -1.399352
   114     -5.761108     -7.070403     -3.229466
   115      8.585152      1.853166      5.827396
   116      9.630863      2.682736      7.120386
   117      6.823516      2.270451      6.334196
   118      7.976619     -3.664003      2.224867
   119      8.646274     -4.424690      0.784673
   120      9.161727     -2.335176      2.607147
   121     -0.780606      9.786856      5.091778
   122      0.516744      9.575777      3.741151
   123     -1.776645     11.282030      4.583028
   124      7.002524     -0.262026     -2.293708
   125      8.357104      0.493534     -1.206186
   126      7.810006     -0.207934     -3.914730
   127     -7.869152      5.033762      5.176120
   128     -6.012472      4.835862      4.951678
   129     -8.158842      3.827009      6.644749
   130     11.117841      3.656641      9.941842
   131     10.547457      3.422725     11.630990
   132     12.488525      2.344508      9.768677
   133      8.166238      2.664680     -8.733405
   134      6.790510      1.736069     -9.743796
   135      8.940377      1.539314     -7.502152
   136     -2.389217      5.006969      2.877269
   137     -1.989725      5.013540      1.116668
   138     -1.923766      6.652078      3.616889
   139     -3.985710      0.775939    -11.480940
   140     -2.335732      0.512452    -12.255728
   141     -3.939342     -0.586741    -10.096451
   142      1.326512     -4.433520      6.499687
   143      2.332495     -5.383314      5.272372
   144     -0.020156     -5.759247      6.647696
   145     -1.437830     -7.559110     -9.237911
   146     -1.344381     -9.261209     -8.642876
   147      0.193614     -6.799399     -9.287771
   148    -11.311593     -2.355353    -10.186212
   149    -12.427980     -2.564980    -11.731425
   150     -9.845481     -1.255612    -10.686653
   151      4.530998      8.649925    -11.132018
   152      3.452386      7.378791    -11.948408
   153      4.846841      7.694007     -9.501592
   154      6.863166      8.052544      6.081229
   155      5.785175      6.552136      5.713022
   156      7.428050      7.991829      7.795275
   157      6.170681     -8.471313     -4.561808
   158      4.937943     -7.259634     -3.791979
   159      6.115263    -10.153489     -3.829152
   160      3.417362     -7.891725      2.249825
   161      4.646502     -9.341062      2.241914
   162      1.616587     -8.649809      1.871201
   163     11.613541     -8.971889      1.388414
   164     12.004325     -8.045454     -0.184666
   165     12.925542     -8.095475      2.445782
   166     -7.496842      6.635966     -4.275167
   167     -9.178190      6.677251     -5.086338
   168     -7.583363      8.179262     -3.306633
   169     -5.055174    -10.649070      3.639677
   170     -6.206503    -12.073666      3.093349
   171     -5.776794     -8.954133      3.170203
   172     -6.894972     11.079307     -1.923318
   173     -7.116310     12.492584     -3.086433
   174     -8.163018     11.316058     -0.643450
   175      0.368740     10.453349     -3.160786
   176     -0.835941      9.114931     -2.681741
   177      0.052364     10.801461     -4.987849
 
  MM charges 
  ---------- 
     1     -0.674440
     2      0.337220
     3      0.337220
     4     -0.674440
     5      0.337220
     6      0.337220
     7     -0.674440
     8      0.337220
     9      0.337220
    10     -0.674440
    11      0.337220
    12      0.337220
    13     -0.674440
    14      0.337220
    15      0.337220
    16     -0.674440
    17      0.337220
    18      0.337220
    19     -0.674440
    20      0.337220
    21      0.337220
    22     -0.674440
    23      0.337220
    24      0.337220
    25     -0.674440
    26      0.337220
    27      0.337220
    28     -0.674440
    29      0.337220
    30      0.337220
    31     -0.674440
    32      0.337220
    33      0.337220
    34     -0.674440
    35      0.337220
    36      0.337220
    37     -0.674440
    38      0.337220
    39      0.337220
    40     -0.674440
    41      0.337220
    42      0.337220
    43     -0.674440
    44      0.337220
    45      0.337220
    46     -0.674440
    47      0.337220
    48      0.337220
    49     -0.674440
    50      0.337220
    51      0.337220
    52     -0.674440
    53      0.337220
    54      0.337220
    55     -0.674440
    56      0.337220
    57      0.337220
    58     -0.674440
    59      0.337220
    60      0.337220
    61     -0.674440
    62      0.337220
    63      0.337220
    64     -0.674440
    65      0.337220
    66      0.337220
    67     -0.674440
    68      0.337220
    69      0.337220
    70     -0.674440
    71      0.337220
    72      0.337220
    73     -0.674440
    74      0.337220
    75      0.337220
    76     -0.674440
    77      0.337220
    78      0.337220
    79     -0.674440
    80      0.337220
    81      0.337220
    82     -0.674440
    83      0.337220
    84      0.337220
    85     -0.674440
    86      0.337220
    87      0.337220
    88     -0.674440
    89      0.337220
    90      0.337220
    91     -0.674440
    92      0.337220
    93      0.337220
    94     -0.674440
    95      0.337220
    96      0.337220
    97     -0.674440
    98      0.337220
    99      0.337220
   100     -0.674440
   101      0.337220
   102      0.337220
   103     -0.674440
   104      0.337220
   105      0.337220
   106     -0.674440
   107      0.337220
   108      0.337220
   109     -0.674440
   110      0.337220
   111      0.337220
   112     -0.674440
   113      0.337220
   114      0.337220
   115     -0.674440
   116      0.337220
   117      0.337220
   118     -0.674440
   119      0.337220
   120      0.337220
   121     -0.674440
   122      0.337220
   123      0.337220
   124     -0.674440
   125      0.337220
   126      0.337220
   127     -0.674440
   128      0.337220
   129      0.337220
   130     -0.674440
   131      0.337220
   132      0.337220
   133     -0.674440
   134      0.337220
   135      0.337220
   136     -0.674440
   137      0.337220
   138      0.337220
   139     -0.674440
   140      0.337220
   141      0.337220
   142     -0.674440
   143      0.337220
   144      0.337220
   145     -0.674440
   146      0.337220
   147      0.337220
   148     -0.674440
   149      0.337220
   150      0.337220
   151     -0.674440
   152      0.337220
   153      0.337220
   154     -0.674440
   155      0.337220
   156      0.337220
   157     -0.674440
   158      0.337220
   159      0.337220
   160     -0.674440
   161      0.337220
   162      0.337220
   163     -0.674440
   164      0.337220
   165      0.337220
   166     -0.674440
   167      0.337220
   168      0.337220
   169     -0.674440
   170      0.337220
   171      0.337220
   172     -0.674440
   173      0.337220
   174      0.337220
   175     -0.674440
   176      0.337220
   177      0.337220
 
  MM isotropic polarizabilities in au 
  ----------------------------------- 
     1      5.739350
     2      2.308390
     3      2.308390
     4      5.739350
     5      2.308390
     6      2.308390
     7      5.739350
     8      2.308390
     9      2.308390
    10      5.739350
    11      2.308390
    12      2.308390
    13      5.739350
    14      2.308390
    15      2.308390
    16      5.739350
    17      2.308390
    18      2.308390
    19      5.739350
    20      2.308390
    21      2.308390
    22      5.739350
    23      2.308390
    24      2.308390
    25      5.739350
    26      2.308390
    27      2.308390
    28      5.739350
    29      2.308390
    30      2.308390
    31      5.739350
    32      2.308390
    33      2.308390
    34      5.739350
    35      2.308390
    36      2.308390
    37      5.739350
    38      2.308390
    39      2.308390
    40      5.739350
    41      2.308390
    42      2.308390
    43      5.739350
    44      2.308390
    45      2.308390
    46      5.739350
    47      2.308390
    48      2.308390
    49      5.739350
    50      2.308390
    51      2.308390
    52      5.739350
    53      2.308390
    54      2.308390
    55      5.739350
    56      2.308390
    57      2.308390
    58      5.739350
    59      2.308390
    60      2.308390
    61      5.739350
    62      2.308390
    63      2.308390
    64      5.739350
    65      2.308390
    66      2.308390
    67      5.739350
    68      2.308390
    69      2.308390
    70      5.739350
    71      2.308390
    72      2.308390
    73      5.739350
    74      2.308390
    75      2.308390
    76      5.739350
    77      2.308390
    78      2.308390
    79      5.739350
    80      2.308390
    81      2.308390
    82      5.739350
    83      2.308390
    84      2.308390
    85      5.739350
    86      2.308390
    87      2.308390
    88      5.739350
    89      2.308390
    90      2.308390
    91      5.739350
    92      2.308390
    93      2.308390
    94      5.739350
    95      2.308390
    96      2.308390
    97      5.739350
    98      2.308390
    99      2.308390
   100      5.739350
   101      2.308390
   102      2.308390
   103      5.739350
   104      2.308390
   105      2.308390
   106      5.739350
   107      2.308390
   108      2.308390
   109      5.739350
   110      2.308390
   111      2.308390
   112      5.739350
   113      2.308390
   114      2.308390
   115      5.739350
   116      2.308390
   117      2.308390
   118      5.739350
   119      2.308390
   120      2.308390
   121      5.739350
   122      2.308390
   123      2.308390
   124      5.739350
   125      2.308390
   126      2.308390
   127      5.739350
   128      2.308390
   129      2.308390
   130      5.739350
   131      2.308390
   132      2.308390
   133      5.739350
   134      2.308390
   135      2.308390
   136      5.739350
   137      2.308390
   138      2.308390
   139      5.739350
   140      2.308390
   141      2.308390
   142      5.739350
   143      2.308390
   144      2.308390
   145      5.739350
   146      2.308390
   147      2.308390
   148      5.739350
   149      2.308390
   150      2.308390
   151      5.739350
   152      2.308390
   153      2.308390
   154      5.739350
   155      2.308390
   156      2.308390
   157      5.739350
   158      2.308390
   159      2.308390
   160      5.739350
   161      2.308390
   162      2.308390
   163      5.739350
   164      2.308390
   165      2.308390
   166      5.739350
   167      2.308390
   168      2.308390
   169      5.739350
   170      2.308390
   171      2.308390
   172      5.739350
   173      2.308390
   174      2.308390
   175      5.739350
   176      2.308390
   177      2.308390


     ************************************************************************
     ************************** Output from HERINT **************************
     ************************************************************************



                      Nuclear contribution to dipole moments
                      --------------------------------------

                 au               Debye          C m (/(10**-30)

      x      9.77375234        24.84239891        82.86532315
      y     -7.34848728       -18.67799040       -62.30306968
      z      0.60749593         1.54410053         5.15056496



 Threshold for neglecting two-electron integrals:  1.00D-12
 HERMIT - Number of two-electron integrals written:    36297578 ( 40.6% )
 HERMIT - Megabytes written:                            415.624

  Time used in TWOINT     is       7.01 seconds
  Total CPU  time used in HERMIT:   7.18 seconds
  Total wall time used in HERMIT:  11.68 seconds


                        .----------------------------------.
                        | End of Integral Section (HERMIT) |
                        `----------------------------------'



                   .--------------------------------------------.
                   | Starting in Wave Function Section (SIRIUS) |
                   `--------------------------------------------'

NCCEXCI for singlet:    1
 CCSD_INPUT: core-val requested
 Requested number of virtual orbs per sym
                     1
 Indices of requested virtual orbs
                     1
 CCSD_INPUT: core-val requested
 Requested number of core orbs per sym
                     1
 Indices of requested core orbs
                     1

 *** Output from Huckel module :

     Using EWMO model:          T
     Using EHT  model:          F
     Number of Huckel orbitals each symmetry:   37

 EWMO - Energy Weighted Maximum Overlap - is a Huckel type method,
        which normally is better than Extended Huckel Theory.
 Reference: Linderberg and Ohrn, Propagators in Quantum Chemistry (Wiley, 1973)

 Huckel EWMO eigenvalues for symmetry :  1
          -20.684509     -20.684469     -20.684165     -20.684151     -15.674388
           -1.782967      -1.605492      -1.598691      -1.588912      -1.462890
           -0.829601      -0.800644      -0.784815      -0.768889      -0.758210
           -0.752985      -0.737497      -0.698933      -0.686760      -0.671881
           -0.649921      -0.612228      -0.572284      -0.564441      -0.553547
           -0.266910      -0.249226      -0.246141      -0.242636      -0.191485
           -0.187995      -0.186089      -0.179561      -0.177514      -0.156906
           -0.153177      -0.144895

 **********************************************************************
 *SIRIUS* a direct, restricted step, second order MCSCF program       *
 **********************************************************************

 
     Date and time (Linux)  : Wed Nov 28 22:34:13 2018
     Host name              : n-62-23-15                              

 Title lines from ".mol" input file:
                                                                             
                                                                             

 Print level on unit LUPRI =   2 is   0
 Print level on unit LUW4  =   2 is  11

@    (Integral direct) CC calculation.

@    This is a combination run starting with
@              a restricted, closed shell Hartree-Fock calculation


 Initial molecular orbitals are obtained according to
 ".MOSTART EWMO  " input option

@    QM part is embedded in an environment :

@         Model: QMMM

     Wave function specification
     ============================

     For the specification of the Coupled Cluster: see later.

@    Wave function type        --- CC ---
@    Number of closed shell electrons          50
@    Number of electrons in active shells       0
@    Total charge of the molecule               1

@    Spin multiplicity and 2 M_S                1         0
@    Total number of symmetries                 1 (point group: C1 )
@    Reference state symmetry                   1 (irrep name : A  )

     Orbital specifications
     ======================
@    Abelian symmetry species          All |    1
@                                          |  A  
                                       --- |  ---
@    Occupied SCF orbitals              25 |   25
@    Secondary orbitals                138 |  138
@    Total number of orbitals          163 |  163
@    Number of basis functions         163 |  163

     Optimization information
     ========================
@    Number of configurations                 1
@    Number of orbital rotations           3450
     ------------------------------------------
@    Total number of variables             3451

     Maximum number of Fock   iterations      0
     Maximum number of DIIS   iterations     60
     Maximum number of QC-SCF iterations     60
     Threshold for SCF convergence     1.00D-07


 Changes of defaults for CC:
 ---------------------------


 -Implicit frozen core calculation
 -Excitation energies calculated
 -One-photon absorption strengths will be calculated
 -Oscillator strengths calculated
  
* Read MO coefficients from SIRIUS.RST with label "NEWORB  " and header info: 28Nov18  REORTHO 


 ***********************************************
 ***** DIIS acceleration of SCF iterations *****
 ***********************************************

 C1-DIIS algorithm; max error vectors =    8
 -----------------------------------------------------------------------------

 *** DIIS iteration number    1
 RDSUPM called. NFMAT, ISYMDM(1:NFMAT)                     1
                     1

Calculating AOSUPINT
     (Precalculated two-electron integrals are transformed to P-supermatrix elements.
      Threshold for discarding integrals :  1.00D-12 )
  CPU  time used in FORMSUP    is   2.64 seconds
  WALL time used in FORMSUP    is  11.21 seconds

 ITDIIS, energy, error norm, change in energy, scr.thr., difden:
@ DIIS iter.   1    -360.273223906        3.88903D+00   -3.60D+02  -20    F

 (DIIS_RED) Control Parameters C2DIIS =         F NEVC =    1


 (DIIS_RED) B matrix:

               Column   1
       1      15.12457241
    ==== End of matrix output ====

 DIIS C vector; C2DIIS = F, LAMBDA = -1.51D+01
    1.000000
* Read MO coefficients from SIRIUS.RST with label "NEWORB  " and header info: 28Nov18  DIIS   1
      Virial theorem: -V/T =      2.003512
@      MULPOP N       0.09; H       0.17; H       0.15; H       0.16; H       0.18; O      -0.59; O      -0.58; O      -0.59; O      -0.61; H       0.33; 
@             H       0.33; H       0.30; H       0.33; H       0.32; H       0.34; H       0.33; H       0.34; 
   1  Level shift: doubly occupied orbital energies shifted by -2.00D-01

 DIIS Fock eigenvalues in symmetry 1
      -20.81780      -20.81466      -20.81335      -20.80587      -16.41358
       -1.68144       -1.63406       -1.63127       -1.62066       -1.61593
       -1.17104       -1.15217       -1.14256       -1.01698       -1.00409
       -0.98728       -0.98120       -0.88999       -0.88486       -0.88057
       -0.85921       -0.84755       -0.84129       -0.83916       -0.83141
       -0.00005        0.00333        0.06430        0.06835        0.08870
        0.13605        0.15354        0.15839        0.17519        0.18204
        0.19600        0.21221        0.21924        0.26740        0.29011
        0.30250        0.40895        0.44689        0.45404        0.47464
        0.48703        0.49859        0.50210        0.51331        0.51959
        0.70791        0.71505        0.73365        0.86058        0.87058
        0.87818        0.89100        0.93434        0.96035        0.98244
        0.99217        1.00546        1.02150        1.03161        1.04779
        1.06656        1.09262        1.11775        1.23156        1.28678
        1.29718        1.30730        1.33344        1.36182        1.37626
        1.37734        1.39363        1.41992        1.43864        1.49599
        1.50970        1.53784        1.55518        1.56588        1.59383
        1.60784        1.71265        1.75173        1.77248        1.79340
        1.80787        1.95270        1.99119        2.00768        2.02483
        2.05462        2.06498        2.09991        2.13949        2.14728
        2.17476        2.20062        2.20665        2.22023        2.27717
        2.38492        2.47731        2.50494        2.53313        2.55002
        2.57694        2.60713        2.62225        2.64557        2.67076
        2.69102        2.71063        2.73253        2.79029        2.97807
        3.02721        3.05554        3.07860        3.31662        3.33145
        3.33386        3.33905        3.35209        3.40345        3.41534
        3.41605        3.50239        3.51394        3.52211        3.52473
        3.82903        3.84314        3.88534        3.93455        4.07010
        4.08954        4.09642        4.10602        4.61158        4.69847
        4.78108        5.24841        5.29693        5.31300        5.31978
        5.68038        5.71240        5.72640        5.75172        5.84861
        5.88353        5.97753        6.02560       36.33877       51.44002
       51.45437       51.45777       51.47188
 Time used in FCKEIG, thr_jaco:   4.70D-02  1.82D-01  1.66D-04
 CPU and wall times used in FCKEIG, THR_FCKEIG:   4.70D-02  1.82D-01  3.89D-02
 -----------------------------------------------------------------------------

 *** DIIS iteration number    2
 RDSUPM called. NFMAT, ISYMDM(1:NFMAT)                     1
                     1

 ITDIIS, energy, error norm, change in energy, scr.thr., difden:
@ DIIS iter.   2    -361.132152162        1.10743D+00   -8.59D-01  -20    F

 (DIIS_RED) Control Parameters C2DIIS =         F NEVC =    2


 (DIIS_RED) B matrix:

               Column   1     Column   2
       1      15.12457241
       2       0.72071971     1.22640238
    ==== End of matrix output ====

 DIIS C vector; C2DIIS = F, LAMBDA = -1.21D+00
    0.033917    0.966083
* Read MO coefficients from SIRIUS.RST with label "NEWORB  " and header info: 28Nov18  DIIS   2
      Virial theorem: -V/T =      2.003790
@      MULPOP N      -0.57; H       0.32; H       0.33; H       0.33; H       0.34; O      -0.60; O      -0.55; O      -0.59; O      -0.57; H       0.32; 
@             H       0.34; H       0.31; H       0.29; H       0.34; H       0.33; H       0.32; H       0.31; 
   2  Level shift: doubly occupied orbital energies shifted by -1.00D-01

 DIIS Fock eigenvalues in symmetry 1
      -20.79150      -20.77666      -20.77210      -20.74970      -15.63191
       -1.53194       -1.52715       -1.51759       -1.50988       -1.34978
       -0.89732       -0.88283       -0.87537       -0.86853       -0.84904
       -0.84139       -0.83541       -0.79524       -0.77695       -0.76391
       -0.74922       -0.72743       -0.71238       -0.70127       -0.69115
       -0.00005        0.06419        0.10582        0.10662        0.12869
        0.17307        0.18567        0.19745        0.21520        0.22318
        0.26554        0.28145        0.29566        0.35254        0.37580
        0.38308        0.44481        0.48396        0.48902        0.51393
        0.52896        0.53463        0.54509        0.55698        0.59465
        0.82674        0.83686        0.85918        0.90240        0.90836
        0.91486        0.93200        0.98263        1.00257        1.00619
        1.02089        1.03954        1.05089        1.07281        1.08422
        1.18057        1.18603        1.21813        1.28209        1.32762
        1.34548        1.35613        1.38959        1.41952        1.42786
        1.43966        1.45046        1.48538        1.49641        1.55139
        1.57804        1.62903        1.63743        1.64607        1.67593
        1.69979        1.78478        1.80700        1.83624        1.85019
        1.86673        2.03972        2.06263        2.07603        2.10317
        2.10617        2.13859        2.18710        2.20608        2.22568
        2.25169        2.26050        2.27041        2.32277        2.39608
        2.48773        2.54600        2.59926        2.63331        2.64216
        2.68857        2.71056        2.71734        2.73552        2.76081
        2.78155        2.78872        2.90453        2.95764        3.16362
        3.21337        3.28152        3.29931        3.34342        3.35394
        3.35741        3.37047        3.38307        3.43897        3.46004
        3.47163        3.51656        3.54104        3.54927        3.55214
        3.83994        3.86082        3.90676        3.95827        4.09451
        4.10907        4.11189        4.11722        4.98570        5.06497
        5.13932        5.24810        5.29582        5.30982        5.32155
        5.68117        5.71047        5.72620        5.74506        5.84712
        5.89140        5.99162        6.04388       37.00537       51.36632
       51.39387       51.40539       51.43008
 Time used in FCKEIG, thr_jaco:   3.20D-02  3.40D-02  4.71D-05
 CPU and wall times used in FCKEIG, THR_FCKEIG:   3.20D-02  3.40D-02  1.11D-02
 -----------------------------------------------------------------------------

 *** DIIS iteration number    3
 RDSUPM called. NFMAT, ISYMDM(1:NFMAT)                     1
                     1

 ITDIIS, energy, error norm, change in energy, scr.thr., difden:
@ DIIS iter.   3    -361.204717373        3.79211D-01   -7.26D-02  -20    F

 (DIIS_RED) Control Parameters C2DIIS =         F NEVC =    3


 (DIIS_RED) B matrix:

               Column   1     Column   2     Column   3
       1      15.12457241
       2       0.72071971     1.22640238
       3       0.79118116    -0.00676842     0.14380063
    ==== End of matrix output ====

 DIIS C vector; C2DIIS = F, LAMBDA = -9.60D-02
   -0.047956    0.111589    0.936366
* Read MO coefficients from SIRIUS.RST with label "NEWORB  " and header info: 28Nov18  DIIS   3
      Virial theorem: -V/T =      2.004199
@      MULPOP N      -0.40; H       0.28; H       0.30; H       0.30; H       0.33; O      -0.66; O      -0.61; O      -0.67; O      -0.65; H       0.34; 
@             H       0.37; H       0.34; H       0.31; H       0.38; H       0.35; H       0.35; H       0.34; 
   3  Level shift: doubly occupied orbital energies shifted by -5.00D-02

 DIIS Fock eigenvalues in symmetry 1
      -20.68983      -20.68068      -20.67453      -20.66310      -15.78931
       -1.46018       -1.45916       -1.44574       -1.44271       -1.35283
       -0.84947       -0.82758       -0.82178       -0.81529       -0.80827
       -0.79576       -0.78526       -0.72346       -0.70526       -0.70007
       -0.68106       -0.65047       -0.63958       -0.63082       -0.62358
       -0.00005        0.06889        0.11122        0.11249        0.13503
        0.17835        0.18897        0.19934        0.22083        0.22913
        0.26578        0.28072        0.29306        0.35265        0.37588
        0.37840        0.45560        0.49322        0.49909        0.52437
        0.53950        0.54374        0.55441        0.56675        0.59382
        0.82295        0.82744        0.85268        0.91248        0.92113
        0.92410        0.93251        0.99406        1.01887        1.01962
        1.03413        1.05257        1.06475        1.08603        1.09716
        1.17173        1.18712        1.21423        1.29675        1.33988
        1.35741        1.36532        1.39972        1.43332        1.44261
        1.45257        1.46412        1.49323        1.50556        1.56245
        1.58693        1.63423        1.64337        1.65110        1.68205
        1.70354        1.79144        1.81856        1.84596        1.86092
        1.87806        2.04328        2.07685        2.08516        2.10885
        2.11839        2.15165        2.19944        2.20775        2.23149
        2.26640        2.27678        2.28555        2.32197        2.39346
        2.49235        2.55851        2.60358        2.63943        2.64670
        2.69449        2.71493        2.72561        2.74196        2.77027
        2.78541        2.79392        2.87276        2.93354        3.15624
        3.19078        3.24252        3.27916        3.36921        3.37717
        3.38538        3.39289        3.40074        3.46436        3.47202
        3.48176        3.54673        3.56856        3.57448        3.57698
        3.86827        3.88923        3.93160        3.98260        4.12064
        4.13783        4.14257        4.14623        4.90046        4.98333
        5.06381        5.27817        5.32738        5.34282        5.35093
        5.71092        5.74416        5.75803        5.77971        5.88377
        5.92808        6.02298        6.07339       36.80396       51.41794
       51.44484       51.44794       51.46695
 Time used in FCKEIG, thr_jaco:   2.90D-02  4.60D-02  1.61D-05
 CPU and wall times used in FCKEIG, THR_FCKEIG:   2.90D-02  4.60D-02  3.79D-03
 -----------------------------------------------------------------------------

 *** DIIS iteration number    4
 RDSUPM called. NFMAT, ISYMDM(1:NFMAT)                     1
                     1

 ITDIIS, energy, error norm, change in energy, scr.thr., difden:
@ DIIS iter.   4    -361.214978653        9.61098D-02   -1.03D-02  -20    F

 (DIIS_RED) Control Parameters C2DIIS =         F NEVC =    4


 (DIIS_RED) B matrix:

               Column   1     Column   2     Column   3     Column   4
       1      15.12457241
       2       0.72071971     1.22640238
       3       0.79118116    -0.00676842     0.14380063
       4       0.04443344     0.08048211     0.00189545     0.00923709
    ==== End of matrix output ====

 DIIS C vector; C2DIIS = F, LAMBDA = -4.48D-03
   -0.000633   -0.064615    0.017792    1.047456
* Read MO coefficients from SIRIUS.RST with label "NEWORB  " and header info: 28Nov18  DIIS   4
      Virial theorem: -V/T =      2.004288
@      MULPOP N      -0.48; H       0.30; H       0.31; H       0.32; H       0.34; O      -0.67; O      -0.61; O      -0.68; O      -0.66; H       0.35; 
@             H       0.38; H       0.34; H       0.31; H       0.38; H       0.36; H       0.36; H       0.34; 
   4  Level shift: doubly occupied orbital energies shifted by -2.50D-02

 DIIS Fock eigenvalues in symmetry 1
      -20.68043      -20.66846      -20.66784      -20.64975      -15.73022
       -1.44044       -1.43895       -1.42671       -1.42177       -1.31549
       -0.81747       -0.80189       -0.79381       -0.78622       -0.77611
       -0.77431       -0.76344       -0.70150       -0.68365       -0.67628
       -0.65708       -0.62624       -0.61521       -0.60659       -0.59786
       -0.00005        0.06928        0.11030        0.11146        0.13406
        0.17769        0.18958        0.20052        0.22034        0.22880
        0.26879        0.28459        0.29771        0.35711        0.38050
        0.38509        0.45515        0.49299        0.49864        0.52273
        0.53852        0.54316        0.55324        0.56520        0.59799
        0.82833        0.83323        0.85869        0.91377        0.92196
        0.92546        0.93551        0.99413        1.01759        1.01919
        1.03305        1.05201        1.06336        1.08472        1.09563
        1.17697        1.19032        1.21830        1.29556        1.34032
        1.35785        1.36589        1.39994        1.43148        1.44085
        1.45099        1.46190        1.49415        1.50491        1.56192
        1.58674        1.63588        1.64531        1.65457        1.68507
        1.70786        1.79331        1.81743        1.84550        1.85958
        1.87646        2.04820        2.07527        2.08574        2.11144
        2.11657        2.15032        2.19908        2.21023        2.23274
        2.26505        2.27410        2.28355        2.32625        2.39733
        2.49477        2.55726        2.60754        2.63995        2.64978
        2.69879        2.71827        2.72651        2.74208        2.77051
        2.78767        2.79358        2.88316        2.94270        3.16414
        3.19928        3.25472        3.28818        3.36678        3.37430
        3.38088        3.39025        3.39863        3.46164        3.47094
        3.48096        3.54285        3.56418        3.57149        3.57417
        3.86433        3.88411        3.92786        3.97959        4.11793
        4.13382        4.13798        4.14222        4.91921        5.00162
        5.08111        5.27195        5.32151        5.33573        5.34355
        5.70528        5.73694        5.75123        5.77262        5.87570
        5.91864        6.01623        6.06749       36.83761       51.40269
       51.42790       51.43459       51.45560
 Time used in FCKEIG, thr_jaco:   2.60D-02  2.80D-02  4.09D-06
 CPU and wall times used in FCKEIG, THR_FCKEIG:   2.60D-02  2.80D-02  9.61D-04
 -----------------------------------------------------------------------------

 *** DIIS iteration number    5
 RDSUPM called. NFMAT, ISYMDM(1:NFMAT)                     1
                     1

 ITDIIS, energy, error norm, change in energy, scr.thr., difden:
@ DIIS iter.   5    -361.215986802        2.95897D-02   -1.01D-03  -20    F

 (DIIS_RED) Control Parameters C2DIIS =         F NEVC =    5


 (DIIS_RED) B matrix:

               Column   1     Column   2     Column   3     Column   4     Column   5
       1      15.12457241
       2       0.72071971     1.22640238
       3       0.79118116    -0.00676842     0.14380063
       4       0.04443344     0.08048211     0.00189545     0.00923709
       5       0.02215391     0.00806040     0.00559613     0.00084237     0.00087555
    ==== End of matrix output ====

 DIIS C vector; C2DIIS = F, LAMBDA = -6.10D-04
    0.001122   -0.012814   -0.041101    0.093244    0.959549
* Read MO coefficients from SIRIUS.RST with label "NEWORB  " and header info: 28Nov18  DIIS   5
      Virial theorem: -V/T =      2.003919
@      MULPOP N      -0.47; H       0.30; H       0.31; H       0.32; H       0.34; O      -0.69; O      -0.63; O      -0.70; O      -0.67; H       0.35; 
@             H       0.38; H       0.35; H       0.32; H       0.39; H       0.37; H       0.37; H       0.35; 
   5  Level shift: doubly occupied orbital energies shifted by -1.25D-02

 DIIS Fock eigenvalues in symmetry 1
      -20.66093      -20.65025      -20.64634      -20.63124      -15.71336
       -1.42542       -1.42442       -1.41102       -1.40713       -1.30124
       -0.80340       -0.78790       -0.77997       -0.77205       -0.76188
       -0.75990       -0.74872       -0.68718       -0.66871       -0.66201
       -0.64270       -0.61049       -0.59989       -0.59059       -0.58235
       -0.00005        0.06969        0.11050        0.11176        0.13439
        0.17791        0.18999        0.20107        0.22068        0.22924
        0.26959        0.28554        0.29875        0.35799        0.38148
        0.38639        0.45583        0.49359        0.49937        0.52304
        0.53904        0.54369        0.55382        0.56577        0.59900
        0.82982        0.83453        0.86017        0.91578        0.92362
        0.92704        0.93720        0.99557        1.01903        1.02052
        1.03446        1.05377        1.06482        1.08613        1.09703
        1.17834        1.19152        1.21969        1.29640        1.34160
        1.35921        1.36737        1.40112        1.43199        1.44119
        1.45162        1.46239        1.49506        1.50557        1.56259
        1.58739        1.63664        1.64603        1.65545        1.68594
        1.70879        1.79417        1.81754        1.84573        1.85980
        1.87657        2.04925        2.07611        2.08686        2.11254
        2.11765        2.15100        2.19974        2.21135        2.23394
        2.26594        2.27487        2.28426        2.32727        2.39840
        2.49547        2.55745        2.60841        2.64044        2.65062
        2.69956        2.71906        2.72679        2.74220        2.77077
        2.78823        2.79377        2.88465        2.94411        3.16563
        3.20119        3.25672        3.29017        3.36924        3.37683
        3.38422        3.39271        3.40097        3.46384        3.47359
        3.48348        3.54543        3.56739        3.57362        3.57630
        3.86697        3.88739        3.92988        3.98171        4.12029
        4.13649        4.14112        4.14495        4.92171        5.00417
        5.08376        5.27545        5.32534        5.34014        5.34847
        5.70855        5.74120        5.75512        5.77660        5.87941
        5.92339        6.01916        6.07058       36.84188       51.40962
       51.43644       51.44054       51.46154
 Time used in FCKEIG, thr_jaco:   2.40D-02  2.50D-02  1.26D-06
 CPU and wall times used in FCKEIG, THR_FCKEIG:   2.40D-02  2.50D-02  2.96D-04
 -----------------------------------------------------------------------------

 *** DIIS iteration number    6
 RDSUPM called. NFMAT, ISYMDM(1:NFMAT)                     1
                     1

 ITDIIS, energy, error norm, change in energy, scr.thr., difden:
@ DIIS iter.   6    -361.216076494        1.09459D-02   -8.97D-05  -20    F

 (DIIS_RED) Control Parameters C2DIIS =         F NEVC =    6


 (DIIS_RED) B matrix:

               Column   1     Column   2     Column   3     Column   4     Column   5     Column   6
       1      15.12457241
       2       0.72071971     1.22640238
       3       0.79118116    -0.00676842     0.14380063
       4       0.04443344     0.08048211     0.00189545     0.00923709
       5       0.02215391     0.00806040     0.00559613     0.00084237     0.00087555
       6      -0.00450248    -0.00015244     0.00080163     0.00054509     0.00003539     0.00011981
    ==== End of matrix output ====

 DIIS C vector; C2DIIS = F, LAMBDA = -3.77D-05
    0.000808    0.007738   -0.012382   -0.135801    0.119897    1.019740
* Read MO coefficients from SIRIUS.RST with label "NEWORB  " and header info: 28Nov18  DIIS   6
      Virial theorem: -V/T =      2.004168
@      MULPOP N      -0.46; H       0.29; H       0.31; H       0.32; H       0.34; O      -0.69; O      -0.63; O      -0.70; O      -0.67; H       0.35; 
@             H       0.39; H       0.35; H       0.32; H       0.39; H       0.37; H       0.37; H       0.35; 

 DIIS Fock eigenvalues in symmetry 1
      -20.65046      -20.63933      -20.63662      -20.62046      -15.70307
       -1.41344       -1.41234       -1.39931       -1.39511       -1.28933
       -0.79147       -0.77595       -0.76809       -0.76006       -0.74990
       -0.74792       -0.73697       -0.67557       -0.65720       -0.65019
       -0.63084       -0.59825       -0.58757       -0.57855       -0.57010
       -0.00005        0.06955        0.11032        0.11158        0.13418
        0.17779        0.18988        0.20090        0.22054        0.22909
        0.26947        0.28539        0.29856        0.35790        0.38131
        0.38611        0.45562        0.49337        0.49911        0.52281
        0.53880        0.54342        0.55355        0.56546        0.59881
        0.82944        0.83416        0.85976        0.91539        0.92343
        0.92681        0.93687        0.99522        1.01867        1.02022
        1.03400        1.05340        1.06444        1.08580        1.09665
        1.17799        1.19125        1.21935        1.29613        1.34133
        1.35887        1.36699        1.40075        1.43165        1.44082
        1.45124        1.46204        1.49474        1.50527        1.56226
        1.58709        1.63634        1.64573        1.65527        1.68575
        1.70863        1.79390        1.81725        1.84546        1.85949
        1.87630        2.04914        2.07570        2.08650        2.11228
        2.11715        2.15060        2.19926        2.21098        2.23358
        2.26558        2.27449        2.28382        2.32701        2.39801
        2.49518        2.55715        2.60824        2.64007        2.65037
        2.69941        2.71880        2.72649        2.74185        2.77050
        2.78790        2.79341        2.88410        2.94364        3.16534
        3.20058        3.25601        3.28950        3.36860        3.37615
        3.38327        3.39208        3.40037        3.46319        3.47281
        3.48275        3.54471        3.56643        3.57305        3.57573
        3.86626        3.88640        3.92929        3.98103        4.11962
        4.13576        4.14022        4.14419        4.92064        5.00310
        5.08267        5.27462        5.32439        5.33899        5.34709
        5.70764        5.73995        5.75399        5.77546        5.87827
        5.92184        6.01825        6.06958       36.83972       51.40760
       51.43385       51.43882       51.45984
 Time used in FCKEIG, thr_jaco:   2.40D-02  5.30D-02  4.66D-07
 CPU and wall times used in FCKEIG, THR_FCKEIG:   2.40D-02  5.30D-02  1.09D-04
 -----------------------------------------------------------------------------

 *** DIIS iteration number    7
 RDSUPM called. NFMAT, ISYMDM(1:NFMAT)                     1
                     1

 ITDIIS, energy, error norm, change in energy, scr.thr., difden:
@ DIIS iter.   7    -361.216090113        2.38431D-03   -1.36D-05  -20    F

 (DIIS_RED) Control Parameters C2DIIS =         F NEVC =    7


 (DIIS_RED) B matrix:

               Column   1     Column   2     Column   3     Column   4     Column   5     Column   6
       1      15.12457241
       2       0.72071971     1.22640238
       3       0.79118116    -0.00676842     0.14380063
       4       0.04443344     0.08048211     0.00189545     0.00923709
       5       0.02215391     0.00806040     0.00559613     0.00084237     0.00087555
       6      -0.00450248    -0.00015244     0.00080163     0.00054509     0.00003539     0.00011981
       7       0.00039486     0.00018875     0.00000760     0.00001023     0.00004931     0.00000170

               Column   7
       7       0.00000568
    ==== End of matrix output ====

 DIIS C vector; C2DIIS = F, LAMBDA = -1.34D-06
   -0.000258   -0.001013    0.006029    0.026079   -0.109266   -0.143896    1.222325
* Read MO coefficients from SIRIUS.RST with label "NEWORB  " and header info: 28Nov18  DIIS   7
      Virial theorem: -V/T =      2.004107
@      MULPOP N      -0.46; H       0.29; H       0.31; H       0.32; H       0.34; O      -0.69; O      -0.63; O      -0.70; O      -0.67; H       0.35; 
@             H       0.39; H       0.35; H       0.32; H       0.39; H       0.37; H       0.37; H       0.35; 

 DIIS Fock eigenvalues in symmetry 1
      -20.65015      -20.63918      -20.63616      -20.62029      -15.70262
       -1.41328       -1.41223       -1.39910       -1.39500       -1.28910
       -0.79134       -0.77583       -0.76804       -0.75988       -0.74974
       -0.74779       -0.73681       -0.67556       -0.65713       -0.65016
       -0.63082       -0.59803       -0.58741       -0.57831       -0.56992
       -0.00005        0.06960        0.11035        0.11161        0.13421
        0.17782        0.18992        0.20097        0.22057        0.22914
        0.26955        0.28549        0.29865        0.35801        0.38143
        0.38626        0.45569        0.49343        0.49918        0.52283
        0.53884        0.54347        0.55359        0.56550        0.59894
        0.82957        0.83429        0.85991        0.91552        0.92352
        0.92690        0.93700        0.99533        1.01878        1.02030
        1.03410        1.05351        1.06453        1.08587        1.09673
        1.17814        1.19137        1.21950        1.29619        1.34143
        1.35898        1.36712        1.40084        1.43168        1.44083
        1.45128        1.46206        1.49483        1.50532        1.56231
        1.58714        1.63642        1.64580        1.65537        1.68586
        1.70874        1.79398        1.81726        1.84549        1.85951
        1.87631        2.04927        2.07576        2.08660        2.11238
        2.11722        2.15065        2.19929        2.21110        2.23369
        2.26564        2.27453        2.28385        2.32712        2.39813
        2.49526        2.55717        2.60835        2.64012        2.65046
        2.69951        2.71888        2.72653        2.74188        2.77054
        2.78797        2.79343        2.88429        2.94381        3.16551
        3.20078        3.25624        3.28969        3.36872        3.37629
        3.38348        3.39222        3.40050        3.46329        3.47298
        3.48291        3.54488        3.56664        3.57315        3.57583
        3.86641        3.88659        3.92937        3.98113        4.11974
        4.13590        4.14042        4.14436        4.92093        5.00339
        5.08297        5.27475        5.32455        5.33921        5.34737
        5.70776        5.74016        5.75417        5.77567        5.87846
        5.92212        6.01836        6.06970       36.84015       51.40791
       51.43427       51.43900       51.46001
 Time used in FCKEIG, thr_jaco:   2.40D-02  2.60D-02  1.01D-07
 CPU and wall times used in FCKEIG, THR_FCKEIG:   2.40D-02  2.60D-02  2.38D-05
 -----------------------------------------------------------------------------

 *** DIIS iteration number    8
 RDSUPM called. NFMAT, ISYMDM(1:NFMAT)                     1
                     1

 ITDIIS, energy, error norm, change in energy, scr.thr., difden:
@ DIIS iter.   8    -361.216090770        4.05937D-04   -6.58D-07  -20    F

 (DIIS_RED) Control Parameters C2DIIS =         F NEVC =    8


 (DIIS_RED) B matrix:

               Column   1     Column   2     Column   3     Column   4     Column   5     Column   6
       1      15.12457241
       2       0.72071971     1.22640238
       3       0.79118116    -0.00676842     0.14380063
       4       0.04443344     0.08048211     0.00189545     0.00923709
       5       0.02215391     0.00806040     0.00559613     0.00084237     0.00087555
       6      -0.00450248    -0.00015244     0.00080163     0.00054509     0.00003539     0.00011981
       7       0.00039486     0.00018875     0.00000760     0.00001023     0.00004931     0.00000170
       8       0.00008215    -0.00003254     0.00000230     0.00000298    -0.00000009     0.00000186

               Column   7     Column   8
       7       0.00000568
       8       0.00000037     0.00000016
    ==== End of matrix output ====

 DIIS C vector; C2DIIS = F, LAMBDA = -9.58D-08
    0.000007    0.000026   -0.000643   -0.001278    0.017170   -0.009551   -0.206325    1.200595
* Read MO coefficients from SIRIUS.RST with label "NEWORB  " and header info: 28Nov18  DIIS   8
      Virial theorem: -V/T =      2.004124
@      MULPOP N      -0.46; H       0.29; H       0.31; H       0.32; H       0.34; O      -0.69; O      -0.63; O      -0.70; O      -0.67; H       0.35; 
@             H       0.39; H       0.35; H       0.32; H       0.39; H       0.37; H       0.37; H       0.35; 

 DIIS Fock eigenvalues in symmetry 1
      -20.65020      -20.63910      -20.63625      -20.62023      -15.70264
       -1.41329       -1.41220       -1.39913       -1.39498       -1.28911
       -0.79133       -0.77582       -0.76802       -0.75989       -0.74974
       -0.74779       -0.73682       -0.67560       -0.65717       -0.65016
       -0.63083       -0.59804       -0.58739       -0.57832       -0.56990
       -0.00005        0.06960        0.11035        0.11161        0.13421
        0.17782        0.18992        0.20097        0.22058        0.22914
        0.26955        0.28549        0.29865        0.35801        0.38143
        0.38625        0.45569        0.49344        0.49918        0.52284
        0.53885        0.54346        0.55359        0.56550        0.59894
        0.82956        0.83429        0.85990        0.91551        0.92353
        0.92691        0.93699        0.99533        1.01878        1.02031
        1.03410        1.05351        1.06452        1.08587        1.09673
        1.17813        1.19137        1.21950        1.29618        1.34143
        1.35897        1.36711        1.40084        1.43168        1.44083
        1.45127        1.46206        1.49482        1.50532        1.56231
        1.58714        1.63642        1.64580        1.65537        1.68585
        1.70874        1.79398        1.81727        1.84549        1.85950
        1.87631        2.04926        2.07575        2.08659        2.11238
        2.11721        2.15065        2.19929        2.21109        2.23368
        2.26564        2.27453        2.28385        2.32712        2.39812
        2.49525        2.55718        2.60834        2.64011        2.65046
        2.69950        2.71888        2.72653        2.74188        2.77053
        2.78796        2.79343        2.88428        2.94381        3.16550
        3.20077        3.25622        3.28968        3.36872        3.37628
        3.38344        3.39222        3.40051        3.46330        3.47297
        3.48291        3.54486        3.56661        3.57318        3.57585
        3.86638        3.88655        3.92940        3.98114        4.11976
[...]
 | 1 1 1 1 |  26   1  10   1 |     1268        1 |       803279 |   -0.081618  |
 | 1 1 1 1 |  28   1  10   1 |     1270        1 |       805816 |    0.095888  |
 | 1 1 1 1 |  32   1  10   1 |     1274        1 |       810902 |    0.103360  |
 | 1 1 1 1 |  13   1  11   1 |     1393        1 |       969529 |    0.118307  |
 | 1 1 1 1 |  26   1  11   1 |     1406        1 |       987716 |   -0.081358  |
 | 1 1 1 1 |  27   1  11   1 |     1407        1 |       989122 |    0.102508  |
 | 1 1 1 1 |  16   1  20   1 |     2638        1 |      3478204 |    0.077857  |
 | 1 1 1 1 |  13   1  21   1 |     2773        1 |      3843379 |   -0.091398  |
 +=============================================================================+


          Norm of Printed Amplitude Vector :             0.8410

          Printed all single excitations greater than 0.378652

          Printed all double excitations greater than 0.065306



+======================================================================+
| contributions of excitation levels to right eigenvectors as computed |
| from the (RE|RE) self overlap                                        |
+----------------------------------------------------------------------+
| sym | multi | state |    E / eV  | % singles | % doubles | % triples |
+======================================================================+
|    1|   1   |   1   |  410.96431 |  87.8861  |  12.1139  |   0.0000  |
+======================================================================+





+======================================================================+
| contributions of excitation levels to excited states as computed     |
| from the (LE|RE) overlap                                             |
+----------------------------------------------------------------------+
| sym | multi | state |    E / eV  | % singles | % doubles | % triples |
+======================================================================+
|    1|   1   |   1   |  410.96431 |  78.5978  |  21.4022  |   0.0000  |
+======================================================================+



 --------------------------
 Symmetry class Nr.:     1
 Multiplicity      :     3
 --------------------------

 Length of Excitation vectors in this class is:   8404200
 No Excitation Energies calculated in this symmetry class
     

   *******************************************************************
   *                                                                 *
   *--------   OUTPUT FROM PROPERTY AND SYMMETRY ANALYSIS   ---------*
   *                                                                 *
   *******************************************************************



                         +-------------------------------+
                         ! REQUESTED PROPERTY OPERATORS: !
                         +-------------------------------+

             Index   Oper. Label  Symmetry  Transp.  PDBS  Atom
             --------------------------------------------------
                1     HAM0            1        1      T      0
                2     XDIPLEN         1        1      F      0
                3     YDIPLEN         1        1      F      0
                4     ZDIPLEN         1        1      F      0
             --------------------------------------------------




                         +-------------------------------+
                         ! REQUESTED EXPECTATION VALUES: !
                         +-------------------------------+

                       Index   Oper. Label  Symmetry
                       -----------------------------
                       -----------------------------




                       +------------------------------------+
                       ! REQUESTED EFFECTIVE FOCK MATRICES: !
                       +------------------------------------+

                       Index   Oper. Label  Symmetry
                       -----------------------------
                       -----------------------------




                        +----------------------------------+
                        ! REQUESTED FIRST ORDER M-VECTORS: !
                        +----------------------------------+

               Index   State Symmetry  Frequency
               --------------------------------------------------
                  1             1    1     1.510266D+01
               --------------------------------------------------


      

    *******************************************************************
    *          SOLVING COUPLED CLUSTER RESPONSE EQUATIONS             *
    *******************************************************************



 
 +======================================================================+
 !                     RHS & ETA VECTORS TO COMPUTE:                    !
 +======================================================================+
 | TYPE | # VEC. |  NEEDED FOR:                                         |
 +----------------------------------------------------------------------+
 +======================================================================+



 +======================================================================+
 !                       LINEAR EQUATIONS TO SOLVE:                     !
 +======================================================================+
 | TYPE | # VEC. |  EQUATION:                                           |
 +----------------------------------------------------------------------+
 |  M1  |    1   |  first-order ground - excited state multipliers      |
 +======================================================================+



 +======================================================================+
 !                F MATRIX TRANSFORMATIONS TO COMPUTE:                  !
 +======================================================================+
 | TYPE | # VEC. |  TRANSFORMED:                                        |
 +----------------------------------------------------------------------+
 |  FR  |    1   |  right eigenvectors (RE)                             |
 +======================================================================+





 Testing R1 list: 

 List nr.  Label     Symmetry      Frequency      T1-norm        T2-norm


 Testing L1 list: 

 List nr.  Label     Symmetry      Frequency      T1-norm        T2-norm
  Solvent 1-order response equations converged in                     0 
  solvent iterations
 SONIAPRI                     0
 CCEQ_STR: CVSEPARATION =  T
 CCEQ_STR: IONIZATION =  T
 CCEQ_STR: REMOVE_CORE =  F
 could not find required file CCM1_1___1
 IOPTSV is    33 ... program continues nevertheless.
 Vector nr.  1 of type M1  and symmetry  1 was not found on file.
     M1  start vector nr.  1 of symmetry  1 generated from gradient
 CCEQ_STR: freeze VALENCE OR VIRT
 CCEQ_SOL: CVSEPARA=     T
 CCEQ_SOL: LIONISAT=     T
 CCEQ_SOL: REMOVE_CORE =  F



 ----- COUPLED CLUSTER RESPONSE SOLVER -----

    Iter  #Vectors  time (min)   residual
    --------------------------------------
 CCRED CVS/IONIS sigma_                     1 
 project out valence occupied or virtual
      1       1         1.58     0.13E+01
 CCRED CVS/IONIS sigma_                     2 
 project out valence occupied or virtual
      2       1         1.55     0.24E+00
 CCRED CVS/IONIS sigma_                     3 
 project out valence occupied or virtual
      3       1         1.56     0.31E-01
 CCRED CVS/IONIS sigma_                     4 
 project out valence occupied or virtual
                    -1  vectors with norm le:  1.000000000000000E-035  REMOVED

 CCORT,**WARNING**  number vectors added is zero after check for vector norm , NBADD :    0

 CCORT, number vectors added is zero , NBADD :    0

 CCORT, number vectors added is zero , NBADD :    0

 CCORT, number vectors added is zero , NBADD :    0

 CCORT, number vectors added is zero , NBADD :    0

 *** MICROITERATIONS STOPPED DUE TO LINEAR DEPENDENCE BETWEEN ALL NEW TRIAL VECTORS
                     0  trial vectors converged
  LINEAR DEPENDENCE BETWEEN                     1  NON CONVERGED TRIAL VECTORS
      4       1         1.59     0.28E-02

 ***  CCEQ_SOL -MICROITERATIONS STOPPED  
     LINEAR DEPENDENCE BETWEEN ALL NEW TRIAL VECTORS
    --------------------------------------
    converged in  4 iterations
    threshold:    0.10E-08


         Routine          Time (min)
         ---------------------------
         CC_TRDRV            6.28
         CCRED               0.03
         CCNEX               0.05
         ---------------------------
         Total time          6.36


  Total CPU  time used in CCEQ_SOLV:  6 minutes 22 seconds
  Total wall time used in CCEQ_SOLV: 10 minutes 58 seconds


 xxxxxxxxxxxxxxxxxxxxxxxxxxxxxxxxxxxxx

 
 Solution of CC response equations completed.
 

 *******************************************************************
 *                                                                 *
 *--------  OUTPUT FROM COUPLED CLUSTER LINEAR RESPONSE   ---------*
 *                                                                 *
 *--------      CALCULATION OF SECOND ORDER RESIDUES      ---------*
 *                                                                 *
 *******************************************************************



                  +---------------------------------------------+
                  ! CC_SOPR: Calculation of CCSD       Residues !
                  +---------------------------------------------+

 Doing the Mf*CsiA
 Doing the Mf*CsiA
 Doing the Mf*CsiA


 CCSD  Right transition moments in atomic units:
 -----------------------------------------------

  1      15.102661  <XDIPLEN |f> =       0.00000001
  1      15.102661  <YDIPLEN |f> =      -0.00000001
  1      15.102661  <ZDIPLEN |f> =      -0.00000001


 CCSD  Left  transition moments in atomic units:
 -----------------------------------------------

  1      15.102661  <f|XDIPLEN > =       0.00000001
  1      15.102661  <f|YDIPLEN > =      -0.00000000
  1      15.102661  <f|ZDIPLEN > =      -0.00000000


 CCSD  linear response residue property in atomic units:
 -------------------------------------------------------

 RES{<<XDIPLEN ,XDIPLEN >>(15.102661)} =     0.00000000 (   0.00000001)
 RES{<<XDIPLEN ,YDIPLEN >>(15.102661)} =    -0.00000000 (  -0.00000001)
 RES{<<XDIPLEN ,ZDIPLEN >>(15.102661)} =    -0.00000000 (  -0.00000001)
 RES{<<YDIPLEN ,XDIPLEN >>(15.102661)} =    -0.00000000 (  -0.00000001)
 RES{<<YDIPLEN ,YDIPLEN >>(15.102661)} =     0.00000000 (   0.00000000)
 RES{<<YDIPLEN ,ZDIPLEN >>(15.102661)} =     0.00000000 (   0.00000001)
 RES{<<ZDIPLEN ,XDIPLEN >>(15.102661)} =    -0.00000000 (  -0.00000001)
 RES{<<ZDIPLEN ,YDIPLEN >>(15.102661)} =     0.00000000 (   0.00000001)
 RES{<<ZDIPLEN ,ZDIPLEN >>(15.102661)} =     0.00000000 (   0.00000001)


 CCSD  Transition strength matrix for state nr.  1 of symmetry 1
 CCSD  excitation energy:15.10266103

 Gauge: length

               Column   1     Column   2     Column   3
       1     8.896173D-17  -4.123492D-17  -6.949351D-17
       2    -4.123492D-17   1.910791D-17   3.221687D-17
       3    -6.949351D-17   3.221687D-17   5.427917D-17
    ==== End of matrix output ====

 Principal values of diagonalized transition strength matrix:

             a.u.               
 1       0.00000000
 2       0.00000000
 3       0.00000000

 Principal axis of diagonalized transition strength matrix:


               Column   1     Column   2     Column   3
       1       1.00000000     0.00000000     0.00000000
       2       0.00000000     1.00000000     0.00000000
       3       0.00000000     0.00000000     1.00000000
    ==== End of matrix output ====


 CCSD   oscillator strength matrix for state nr.  1 of symmetry 1
 CCSD  excitation energy:15.10266103


               Column   1     Column   2     Column   3
       1     8.957059D-16  -4.151714D-16  -6.996913D-16
       2    -4.151714D-16   1.923868D-16   3.243736D-16
       3    -6.996913D-16   3.243736D-16   5.465066D-16
    ==== End of matrix output ====

 Principal values of diagonalized oscillator strength matrix:

             a.u.               
 1       0.00000000
 2       0.00000000
 3       0.00000000

 Principal axis of diagonalized oscillator strength matrix:


               Column   1     Column   2     Column   3
       1       1.00000000     0.00000000     0.00000000
       2       0.00000000     1.00000000     0.00000000
       3       0.00000000     0.00000000     1.00000000
    ==== End of matrix output ====

  Total time for      9 linear response residues:       3.22 seconds.
  

 *******************************************************************************
 *******************************************************************************
 *                                                                             *
 *                                                                             *
 *                   SUMMARY OF COUPLED CLUSTER CALCULATION                    *
 *                                                                             *
 *                                                                             *
 *******************************************************************************
 *******************************************************************************

                                                                                
                                                                                
            Total SCF   energy:                  -361.2160907926                
            Total MP2   energy:                  -362.3313325983                
            Total CCSD  energy:                  -362.3712733565                
                                                                                
                                                                                
            Total SCF   energy:                  -361.2160907926                
            Total RSTAR energy:                  -362.3712733565                
            Total CCSD  energy:                  -362.3714201421                
                                                                                
                                                                                
            Total SCF   energy:                  -361.2160907926                
            Total RSTAR energy:                  -362.3714201421                
            Total CCSD  energy:                  -362.3714208697                
                                                                                
                                                                                
            Total SCF   energy:                  -361.2160907926                
            Total RSTAR energy:                  -362.3714208697                
            Total CCSD  energy:                  -362.3714209523                
                                                                                
                                                                                
            Total SCF   energy:                  -361.2160907926                
            Total RSTAR energy:                  -362.3714209523                
            Total CCSD  energy:                  -362.3714209540                
                                                                                
                                                                                
            Total SCF   energy:                  -361.2160907926                
            Total RSTAR energy:                  -362.3714209540                
            Total CCSD  energy:                  -362.3714209541                
            CCSD Total  energy:                  -362.8207631653                
            CCSD E(QM/MM)     :                    -0.4445399395                
                                                                                
                                                                                
                                                                                
 +=============================================================================+
 |  sym. | Exci.  |        CCSD       Excitation energies            | ||T1||  |
 |(spin, |        +------------------------------------------------------------+
 | spat) |        |     Hartree    |       eV.      |     cm-1       |    %    |
 +=============================================================================+
 | ^1A   |    1   |    15.1026610  |     410.96431  |   3314650.931  |  87.89  |
 +=============================================================================+
                                                                                
                                                                                
     Total energies in Hartree:                                                 
             1 ^1A       -347.2735621996                                        
                                                                                
                                                                                
 +=============================================================================+
 |  sym. | Exci.  |        CCSD       Length   Gauge Oscillator Strength       |
 |(spin, |        +------------------------------------------------------------+
 | spat) |        | Dipole Strength(a.u.) | Oscillator strength  | Direction   |
 +=============================================================================+
 | ^1A   |    1   |        0.0000000      |      0.0000000       |    -        |
 +=============================================================================+

  1 a.u. =        27.21138 eV.  
  1 a.u. =    219474.62934 cm-1.
  

 *******************************************************************************
 *******************************************************************************
 *                                                                             *
 *                                                                             *
 *                      END OF COUPLED CLUSTER CALCULATION                     *
 *                                                                             *
 *                                                                             *
 *******************************************************************************
 *******************************************************************************


 CPU and wall time for CC :    7093.016   11436.909

 
     Date and time (Linux)  : Thu Nov 29 01:47:26 2018
     Host name              : n-62-23-15                              


                      .-------------------------------------.
                      | End of Coupled Cluster Section (CC) |
                      `-------------------------------------'

  Total CPU  time used in DALTON:   2 hours  0 minutes 25 seconds
  Total wall time used in DALTON:   3 hours 13 minutes 26 seconds

 
     Date and time (Linux)  : Thu Nov 29 01:47:26 2018
     Host name              : n-62-23-15                              
  

 +---------------------------------------------------------+ 
 | List of selected calculated molecular properties (a.u.) | 
 +---------------------------------------------------------+ 

  Properties are read from unit number                      4

 CCSD       properties :
 #  1 1 CCSD/MM  Ground state Energy =    -362.8207631653
 #  2 1 E_QM/MM  Ground state Energy =      -0.4445399395
 #  3 1 Sy: 1 Sp: 1 Exc:  1 E_tot:   -347.2735621996 w:     15.1026610263 E_grs:   -362.3762232258
 #  4 1 Exctot   Excited state Energy =    -347.2735621996
 #  5 1 |<O|XDIPLEN |i(15.102661)>| =     0.00000001
 #  7 1 |<O|YDIPLEN |i(15.102661)>| =     0.00000000
 #  9 1 |<O|ZDIPLEN |i(15.102661)>| =     0.00000001

 THE_END   
