

     ************************************************************************
     *************** Dalton - An Electronic Structure Program ***************
     ************************************************************************

    This is output from DALTON release Dalton2017.alpha (2016)
         ( Web site: http://daltonprogram.org )

   ----------------------------------------------------------------------------

    NOTE:
     
    Dalton is an experimental code for the evaluation of molecular
    properties using (MC)SCF, DFT, CI, and CC wave functions.
    The authors accept no responsibility for the performance of
    the code or for the correctness of the results.
     
    The code (in whole or part) is provided under a licence and
    is not to be reproduced for further distribution without
    the written permission of the authors or their representatives.
     
    See the home page "http://daltonprogram.org" for further information.
     
    If results obtained with this code are published,
    the appropriate citations would be both of:
     
       K. Aidas, C. Angeli, K. L. Bak, V. Bakken, R. Bast,
       L. Boman, O. Christiansen, R. Cimiraglia, S. Coriani,
       P. Dahle, E. K. Dalskov, U. Ekstroem,
       T. Enevoldsen, J. J. Eriksen, P. Ettenhuber, B. Fernandez,
       L. Ferrighi, H. Fliegl, L. Frediani, K. Hald, A. Halkier,
       C. Haettig, H. Heiberg, T. Helgaker, A. C. Hennum,
       H. Hettema, E. Hjertenaes, S. Hoest, I.-M. Hoeyvik,
       M. F. Iozzi, B. Jansik, H. J. Aa. Jensen, D. Jonsson,
       P. Joergensen, J. Kauczor, S. Kirpekar,
       T. Kjaergaard, W. Klopper, S. Knecht, R. Kobayashi, H. Koch,
       J. Kongsted, A. Krapp, K. Kristensen, A. Ligabue,
       O. B. Lutnaes, J. I. Melo, K. V. Mikkelsen, R. H. Myhre,
       C. Neiss, C. B. Nielsen, P. Norman, J. Olsen,
       J. M. H. Olsen, A. Osted, M. J. Packer, F. Pawlowski,
       T. B. Pedersen, P. F. Provasi, S. Reine, Z. Rinkevicius,
       T. A. Ruden, K. Ruud, V. Rybkin, P. Salek, C. C. M. Samson,
       A. Sanchez de Meras, T. Saue, S. P. A. Sauer,
       B. Schimmelpfennig, K. Sneskov, A. H. Steindal,
       K. O. Sylvester-Hvid, P. R. Taylor, A. M. Teale,
       E. I. Tellgren, D. P. Tew, A. J. Thorvaldsen, L. Thoegersen,
       O. Vahtras, M. A. Watson, D. J. D. Wilson, M. Ziolkowski
       and H. Agren,
       "The Dalton quantum chemistry program system",
       WIREs Comput. Mol. Sci. 2014, 4:269–284 (doi: 10.1002/wcms.1172)
     
    and
     
       Dalton, a Molecular Electronic Structure Program,
       Release Dalton2017.alpha (2016), see http://daltonprogram.org
   ----------------------------------------------------------------------------

    Authors in alphabetical order (major contribution(s) in parenthesis):

  Kestutis Aidas,           Vilnius University,           Lithuania   (QM/MM)
  Celestino Angeli,         University of Ferrara,        Italy       (NEVPT2)
  Keld L. Bak,              UNI-C,                        Denmark     (AOSOPPA, non-adiabatic coupling, magnetic properties)
  Vebjoern Bakken,          University of Oslo,           Norway      (DALTON; geometry optimizer, symmetry detection)
  Radovan Bast,             UiT The Arctic U. of Norway,  Norway      (DALTON installation and execution frameworks)
  Pablo Baudin,             University of Valencia,       Spain       (Cholesky excitation energies)
  Linus Boman,              NTNU,                         Norway      (Cholesky decomposition and subsystems)
  Ove Christiansen,         Aarhus University,            Denmark     (CC module)
  Renzo Cimiraglia,         University of Ferrara,        Italy       (NEVPT2)
  Sonia Coriani,            University of Trieste,        Italy       (CC module, MCD in RESPONS)
  Janusz Cukras,            University of Trieste,        Italy       (MChD in RESPONS)
  Paal Dahle,               University of Oslo,           Norway      (Parallelization)
  Erik K. Dalskov,          UNI-C,                        Denmark     (SOPPA)
  Thomas Enevoldsen,        Univ. of Southern Denmark,    Denmark     (SOPPA)
  Janus J. Eriksen,         Aarhus University,            Denmark     (Polarizable embedding model, TDA)
  Rasmus Faber,             University of Copenhagen,     Denmark     (Vib.avg. NMR with SOPPA, parallel AO-SOPPA)
  Berta Fernandez,          U. of Santiago de Compostela, Spain       (doublet spin, ESR in RESPONS)
  Lara Ferrighi,            Aarhus University,            Denmark     (PCM Cubic response)
  Heike Fliegl,             University of Oslo,           Norway      (CCSD(R12))
  Luca Frediani,            UiT The Arctic U. of Norway,  Norway      (PCM)
  Bin Gao,                  UiT The Arctic U. of Norway,  Norway      (Gen1Int library)
  Christof Haettig,         Ruhr-University Bochum,       Germany     (CC module)
  Kasper Hald,              Aarhus University,            Denmark     (CC module)
  Asger Halkier,            Aarhus University,            Denmark     (CC module)
  Frederik Beyer Hansen,    University of Copenhagen,     Denmark     (Parallel AO-SOPPA)
  Erik D. Hedegaard,        Univ. of Southern Denmark,    Denmark     (Polarizable embedding model, QM/MM)
  Hanne Heiberg,            University of Oslo,           Norway      (geometry analysis, selected one-electron integrals)
  Trygve Helgaker,          University of Oslo,           Norway      (DALTON; ABACUS, ERI, DFT modules, London, and much more)
  Alf Christian Hennum,     University of Oslo,           Norway      (Parity violation)
  Hinne Hettema,            University of Auckland,       New Zealand (quadratic response in RESPONS; SIRIUS supersymmetry)
  Eirik Hjertenaes,         NTNU,                         Norway      (Cholesky decomposition)
  Pi A. B. Haase,           University of Copenhagen,     Denmark     (Triplet AO-SOPPA)
  Maria Francesca Iozzi,    University of Oslo,           Norway      (RPA)
  Brano Jansik              Technical Univ. of Ostrava    Czech Rep.  (DFT cubic response)
  Hans Joergen Aa. Jensen,  Univ. of Southern Denmark,    Denmark     (DALTON; SIRIUS, RESPONS, ABACUS modules, London, and much more)
  Dan Jonsson,              UiT The Arctic U. of Norway,  Norway      (cubic response in RESPONS module)
  Poul Joergensen,          Aarhus University,            Denmark     (RESPONS, ABACUS, and CC modules)
  Maciej Kaminski,          University of Warsaw,         Poland      (CPPh in RESPONS)
  Joanna Kauczor,           Linkoeping University,        Sweden      (Complex polarization propagator (CPP) module)
  Sheela Kirpekar,          Univ. of Southern Denmark,    Denmark     (Mass-velocity & Darwin integrals)
  Wim Klopper,              KIT Karlsruhe,                Germany     (R12 code in CC, SIRIUS, and ABACUS modules)
  Stefan Knecht,            ETH Zurich,                   Switzerland (Parallel CI and MCSCF)
  Rika Kobayashi,           Australian National Univ.,    Australia   (DIIS in CC, London in MCSCF)
  Henrik Koch,              NTNU,                         Norway      (CC module, Cholesky decomposition)
  Jacob Kongsted,           Univ. of Southern Denmark,    Denmark     (Polarizable embedding model, QM/MM)
  Andrea Ligabue,           University of Modena,         Italy       (CTOCD, AOSOPPA)
  Nanna H. List             Univ. of Southern Denmark,    Denmark     (Polarizable embedding model)
  Ola B. Lutnaes,           University of Oslo,           Norway      (DFT Hessian)
  Juan I. Melo,             University of Buenos Aires,   Argentina   (LRESC, Relativistic Effects on NMR Shieldings)
  Kurt V. Mikkelsen,        University of Copenhagen,     Denmark     (MC-SCRF and QM/MM)
  Rolf H. Myhre,            NTNU,                         Norway      (Cholesky, subsystems and ECC2)
  Christian Neiss,          Univ. Erlangen-Nuernberg,     Germany     (CCSD(R12))
  Christian B. Nielsen,     University of Copenhagen,     Denmark     (QM/MM)
  Patrick Norman,           Linkoeping University,        Sweden      (Cubic response and complex frequency response in RESPONS)
  Jeppe Olsen,              Aarhus University,            Denmark     (SIRIUS CI/density modules)
  Jogvan Magnus H. Olsen,   Univ. of Southern Denmark,    Denmark     (Polarizable embedding model, QM/MM)
  Anders Osted,             Copenhagen University,        Denmark     (QM/MM)
  Martin J. Packer,         University of Sheffield,      UK          (SOPPA)
  Filip Pawlowski,          Kazimierz Wielki University,  Poland      (CC3)
  Morten N. Pedersen,       Univ. of Southern Denmark,    Denmark     (Polarizable embedding model)
  Thomas B. Pedersen,       University of Oslo,           Norway      (Cholesky decomposition)
  Patricio F. Provasi,      University of Northeastern,   Argentina   (Analysis of coupling constants in localized orbitals)
  Zilvinas Rinkevicius,     KTH Stockholm,                Sweden      (open-shell DFT, ESR)
  Elias Rudberg,            KTH Stockholm,                Sweden      (DFT grid and basis info)
  Torgeir A. Ruden,         University of Oslo,           Norway      (Numerical derivatives in ABACUS)
  Kenneth Ruud,             UiT The Arctic U. of Norway,  Norway      (DALTON; ABACUS magnetic properties and much more)
  Pawel Salek,              KTH Stockholm,                Sweden      (DALTON; DFT code)
  Claire C. M. Samson       University of Karlsruhe       Germany     (Boys localization, r12 integrals in ERI)
  Alfredo Sanchez de Meras, University of Valencia,       Spain       (CC module, Cholesky decomposition)
  Trond Saue,               Paul Sabatier University,     France      (direct Fock matrix construction)
  Stephan P. A. Sauer,      University of Copenhagen,     Denmark     (SOPPA(CCSD), SOPPA prop., AOSOPPA, vibrational g-factors)
  Bernd Schimmelpfennig,    Forschungszentrum Karlsruhe,  Germany     (AMFI module)
  Kristian Sneskov,         Aarhus University,            Denmark     (Polarizable embedding model, QM/MM)
  Arnfinn H. Steindal,      UiT The Arctic U. of Norway,  Norway      (parallel QM/MM, Polarizable embedding model)
  Casper Steinmann,         Univ. of Southern Denmark,    Denmark     (QFIT, Polarizable embedding model)
  K. O. Sylvester-Hvid,     University of Copenhagen,     Denmark     (MC-SCRF)
  Peter R. Taylor,          VLSCI/Univ. of Melbourne,     Australia   (Symmetry handling ABACUS, integral transformation)
  Andrew M. Teale,          University of Nottingham,     England     (DFT-AC, DFT-D)
  David P. Tew,             University of Bristol,        England     (CCSD(R12))
  Olav Vahtras,             KTH Stockholm,                Sweden      (triplet response, spin-orbit, ESR, TDDFT, open-shell DFT)
  David J. Wilson,          La Trobe University,          Australia   (DFT Hessian and DFT magnetizabilities)
  Hans Agren,               KTH Stockholm,                Sweden      (SIRIUS module, RESPONS, MC-SCRF solvation model)
 --------------------------------------------------------------------------------

     Date and time (Linux)  : Mon Dec  3 12:33:00 2018
     Host name              : n-62-29-10                              

 * Work memory size             :  1280000000 =  9.537 gigabytes.

 * Directories for basis set searches:
   1) /zhome/d7/7/119775/My_Codes/dalton-private/build2016/basis/diffs
   2) /zhome/37/3/129401/NH3NH4/CCSD/AIMD_SAMPLING/nh4_4h2o_nd
   3) /zhome/9a/4/124800/source/dalton/build-mlcc/basis


Compilation information
-----------------------

 Who compiled             | rfaber
 Host                     | hpclogin1
 System                   | Linux-2.6.32-696.1.1.el6.x86_64
 CMake generator          | Unix Makefiles
 Processor                | x86_64
 64-bit integers          | ON
 MPI                      | OFF
 Fortran compiler         | /opt/intel/2016update2/compilers_and_libraries_201
                          | 6.2.181/linux/bin/intel64/ifort
 Fortran compiler version | ifort (IFORT) 16.0.2 20160204
 C compiler               | /opt/intel/2016update2/compilers_and_libraries_201
                          | 6.2.181/linux/bin/intel64/icc
 C compiler version       | icc (ICC) 16.0.2 20160204
 C++ compiler             | /opt/intel/2016update2/compilers_and_libraries_201
                          | 6.2.181/linux/bin/intel64/icpc
 C++ compiler version     | icpc (ICC) 16.0.2 20160204
 Static linking           | OFF
 Last Git revision        | bb4d1599ca5680a9f3980451fc8bbefdba436d59
 Git branch               | mlcc
 Configuration time       | 2017-06-13 16:11:03.928841


   Content of the .dal input file
 ----------------------------------

**DALTON
.RUN WAVE FUNCTIONS
*QMMM
.QMMM
**INTEGRALS
.DIPLEN
**WAVE FUNCTIONS
.CC
*PRINT
!To check the origin of excit
.PRINTL
   0 11
*SCF INP
.THRESH
1.0D-7
!*ORBITAL INPUT
!.MOSTART
!NEWORB
*CC INP
!.RESTART
.CCSD
.THRLEQ
 1.0D-9
.THRENR
 1.0D-10
.FROIMP
4
0
.PRINT
 1
.MAX IT
 1200
.MAXRED
 1200
.MXLRV
1199
*CCSLV
.CCMM
.MXSLIT
200
.MXINIT
4 5
*CCEXCI
.NCCEXC
 1
.IONISATION
1
1
.CVSEPARA
1
1
*CCLRSD
.DIPOLE
**END OF DALTON INPUT


   Content of the .mol file
 ----------------------------

ATOMBASIS


Atomtypes=5 Charge=1 Nosymm Angstrom
   7.00000    1    Basis=6-311G**
N          0.000000        0.000000        0.000000
   1.00000    4    Basis=6-311G**
H          0.204761        1.040262        0.248405
H          0.875788       -0.371297       -0.452709
H         -0.755946       -0.072943       -0.781601
H         -0.257844       -0.480047        0.863087
   8.00000    4    Basis=6-311G**
O          1.379259        2.584382        0.683823
O          0.009786       -0.528317        2.675304
O         -2.508885       -0.090279       -1.248229
O          2.152559       -1.213723       -1.252151
   1.00000    8    Basis=6-311G**
H          1.058466        3.465853        0.415717
H          2.309862        2.707495        0.351195
H          0.584370        0.149884        3.045572
H         -0.852150       -0.391591        3.159148
H         -2.377486       -0.122152       -2.220183
H         -2.748235       -1.014409       -0.946693
H          2.396189       -1.766227       -0.456646
H          2.827719       -0.542947       -1.169006
   0.00000    1    Basis=diffs
X          0.000000        0.000000        0.000000


       *******************************************************************
       *********** Output from DALTON general input processing ***********
       *******************************************************************

 --------------------------------------------------------------------------------
   Overall default print level:    0
   Print level for DALTON.STAT:    1

    HERMIT 1- and 2-electron integral sections will be executed
    "Old" integral transformation used (limited to max 255 basis functions)
    Wave function sections will be executed (SIRIUS module)
 --------------------------------------------------------------------------------


 Changes of defaults for *QMMM  :
 --------------------------------

 +------------------+
 |  WORD: | CHANGE: |
 +------------------+
 |   QMMM |       T |
 +------------------+
 


   ****************************************************************************
   *************** Output of molecule and basis set information ***************
   ****************************************************************************


    The two title cards from your ".mol" input:
    ------------------------------------------------------------------------
 1:                                                                         
 2:                                                                         
    ------------------------------------------------------------------------

  Coordinates are entered in Angstrom and converted to atomic units.
          - Conversion factor : 1 bohr = 0.52917721 A

  Atomic type no.    1
  --------------------
  Nuclear charge:   7.00000
  Number of symmetry independent centers:    1
  Number of basis sets to read;    2
  The basis set is "6-311G**" from the basis set library.
  Basis set file used for this atomic type with Z =   7 :
     "/zhome/9a/4/124800/source/dalton/build-mlcc/basis/6-311G**"

  Info about the basis set file: your basis has no documentation.
  Basis set: 6-311G**                                                                        

  Atomic type no.    2
  --------------------
  Nuclear charge:   1.00000
  Number of symmetry independent centers:    4
  Number of basis sets to read;    2
  The basis set is "6-311G**" from the basis set library.
  Basis set file used for this atomic type with Z =   1 :
     "/zhome/9a/4/124800/source/dalton/build-mlcc/basis/6-311G**"

  Info about the basis set file: your basis has no documentation.
  Basis set: 6-311G**                                                                        

  Atomic type no.    3
  --------------------
  Nuclear charge:   8.00000
  Number of symmetry independent centers:    4
  Number of basis sets to read;    2
  The basis set is "6-311G**" from the basis set library.
  Basis set file used for this atomic type with Z =   8 :
     "/zhome/9a/4/124800/source/dalton/build-mlcc/basis/6-311G**"

  Info about the basis set file: your basis has no documentation.
  Basis set: 6-311G**                                                                        

  Atomic type no.    4
  --------------------
  Nuclear charge:   1.00000
  Number of symmetry independent centers:    8
  Number of basis sets to read;    2
  The basis set is "6-311G**" from the basis set library.
  Basis set file used for this atomic type with Z =   1 :
     "/zhome/9a/4/124800/source/dalton/build-mlcc/basis/6-311G**"

  Info about the basis set file: your basis has no documentation.
  Basis set: 6-311G**                                                                        

  Atomic type no.    5
  --------------------
  Nuclear charge:   0.00000
  Number of symmetry independent centers:    1
  Number of basis sets to read;    2
  The basis set is "diffs" from the basis set library.
  Basis set file used for this atomic type with Z =   0 :
     "/zhome/9a/4/124800/source/dalton/build-mlcc/basis/diffs"

  Info about the basis set file: your basis has no documentation.
  Basis set: diffs                                                                           


                         SYMGRP: Point group information
                         -------------------------------

@    Point group: C1 


                                 Isotopic Masses
                                 ---------------

                           N          14.003074
                           H           1.007825
                           H           1.007825
                           H           1.007825
                           H           1.007825
                           O          15.994915
                           O          15.994915
                           O          15.994915
                           O          15.994915
                           H           1.007825
                           H           1.007825
                           H           1.007825
                           H           1.007825
                           H           1.007825
                           H           1.007825
                           H           1.007825
                           H           1.007825

                       Total mass:    90.076634 amu
                       Natural abundance:  98.500 %

 Center-of-mass coordinates (a.u.):    0.415581    0.307374    0.331637


  Atoms and basis sets
  --------------------

  Number of atom types :    5
  Total number of atoms:   18

  label    atoms   charge   prim   cont     basis
  ----------------------------------------------------------------------
  N           1    7.0000    31    18      [11s5p1d|4s3p1d]                                   
  H           4    1.0000     8     6      [5s1p|3s1p]                                        
  O           4    8.0000    31    18      [11s5p1d|4s3p1d]                                   
  H           8    1.0000     8     6      [5s1p|3s1p]                                        
  X           1    0.0000     1     1      [1s|1s]                                            
  ----------------------------------------------------------------------
  total:     18   51.0000   252   163
  ----------------------------------------------------------------------
  Spherical harmonic basis used.

  Threshold for neglecting AO integrals:  1.00D-12


  Cartesian Coordinates (a.u.)
  ----------------------------

  Total number of coordinates:   54
  N       :     1  x   0.0000000000    2  y   0.0000000000    3  z   0.0000000000
  H       :     4  x   0.3869422111    5  y   1.9658102782    6  z   0.4694174181
  H       :     7  x   1.6549994636    8  y  -0.7016496410    9  z  -0.8554960243
  H       :    10  x  -1.4285309053   11  y  -0.1378422927   12  z  -1.4770118290
  H       :    13  x  -0.4872545430   14  y  -0.9071573571   15  z   1.6309980520
  O       :    16  x   2.6064217654   17  y   4.8837741824   18  z   1.2922381880
  O       :    19  x   0.0184928599   20  y  -0.9983744372   21  z   5.0555918611
  O       :    22  x  -4.7411055291   23  y  -0.1706025848   24  z  -2.3588109513
  O       :    25  x   4.0677469779   26  y  -2.2936040616   27  z  -2.3662224571
  H       :    28  x   2.0002108526   29  y   6.5495129595   30  z   0.7855912755
  H       :    31  x   4.3650065665   32  y   5.1164240348   33  z   0.6636623665
  H       :    34  x   1.1042992557   35  y   0.2832397105   36  z   5.7552969739
  H       :    37  x  -1.6103301174   38  y  -0.7399997430   39  z   5.9699245083
  H       :    40  x  -4.4927974060   41  y  -0.2308338256   42  z  -4.1955378174
  H       :    43  x  -5.1934114771   44  y  -1.9169551887   45  z  -1.7889904944
  H       :    46  x   4.5281409537   47  y  -3.3376853046   48  z  -0.8629358761
  H       :    49  x   5.3436144684   50  y  -1.0260211304   51  z  -2.2091011785
  X       :    52  x   0.0000000000   53  y   0.0000000000   54  z   0.0000000000

  Max    interatomic separation is    6.4126 Angstrom (   12.1181 Bohr)
  between atoms   15 and   11, "H     " and "H     ".

  Min HX interatomic separation is    0.9554 Angstrom (    1.8054 Bohr)

  Min YX interatomic separation is    2.7270 Angstrom (    5.1533 Bohr)


  Bond distances (Angstrom):
  --------------------------

                  atom 1     atom 2       distance
                  ------     ------       --------
  bond distance:  H          N            1.088934
  bond distance:  H          N            1.053476
  bond distance:  H          N            1.089805
  bond distance:  H          N            1.020709
  bond distance:  H          O            0.975592
  bond distance:  H          O            0.995902
  bond distance:  H          O            0.962913
  bond distance:  H          O            0.997864
  bond distance:  H          O            0.981313
  bond distance:  H          O            1.001114
  bond distance:  H          O            0.998721
  bond distance:  H          O            0.955350


  Bond angles (degrees):
  ----------------------

                  atom 1     atom 2     atom 3         angle
                  ------     ------     ------         -----
  bond angle:     H          N          H            106.165
  bond angle:     H          N          H            110.976
  bond angle:     H          N          H            107.692
  bond angle:     H          N          H            104.174
  bond angle:     H          N          H            114.055
  bond angle:     H          N          H            113.562
  bond angle:     H          O          H             95.957
  bond angle:     H          O          H            103.443
  bond angle:     H          O          H            107.479
  bond angle:     H          O          H             98.436




 Principal moments of inertia (u*A**2) and principal axes
 --------------------------------------------------------

   IA     332.781715          0.808250    0.341834    0.479460
   IB     398.658397         -0.579811    0.319966    0.749294
   IC     455.118255         -0.102723    0.883613   -0.456812


 Rotational constants
 --------------------

               A                   B                   C

           1518.6502           1267.6994           1110.4345 MHz
            0.050657            0.042286            0.037040 cm-1


@  Nuclear repulsion energy :  201.141384160837 Hartree

  Number of floating/multiple basis set orbitals :    1


                     .---------------------------------------.
                     | Starting in Integral Section (HERMIT) |
                     `---------------------------------------'



 ***************************************************************************************
 ****************** Output from **INTEGRALS input processing (HERMIT) ******************
 ***************************************************************************************



    *************************************************************************
    ****************** Output from HERMIT input processing ******************
    *************************************************************************


 Default print level:        1

 * Nuclear model: Point charge

 Calculation of one- and two-electron Hamiltonian integrals.

 The following one-electron property integrals are calculated as requested:
          - overlap integrals
          - dipole length integrals

 Center of mass  (bohr):      0.415581137883      0.307373603740      0.331636706421
 Operator center (bohr):      0.000000000000      0.000000000000      0.000000000000
 Gauge origin    (bohr):      0.000000000000      0.000000000000      0.000000000000
 Dipole origin   (bohr):      0.000000000000      0.000000000000      0.000000000000
 
  *********************************** 
  QMMM electrostatic potential: 
  Multipole order                                    0
  Isotropic polarization  
  *********************************** 
 
  ---------------- 
  QMMM information 
  ---------------- 
 
  MM coordinates in au 
  -------------------- 
     1     -4.760505      5.232179     -0.600812
     2     -4.093672      3.735323     -1.384445
     3     -4.820011      6.326145     -2.163925
     4     10.250370      5.326354     -7.446432
     5     11.229920      6.813292     -7.787512
     6     11.432153      4.454723     -6.289029
     7     -6.527014     -5.182117     -0.268267
     8     -7.738583     -6.465908      0.187130
     9     -6.645717     -4.158939      1.280552
    10      0.597070      9.011703     -0.376067
    11     -0.508833      9.939105      0.950825
    12      1.978107     10.082709     -1.083085
    13      5.407007     -8.049400    -10.214875
    14      6.226797     -6.330700    -10.086829
    15      5.653516     -8.692523    -11.825284
    16      2.530096      3.310267      6.420802
    17      4.370179      3.283875      7.024660
    18      2.463226      3.955454      4.655374
    19      6.076458      5.881859     -3.751220
    20      6.379645      4.370851     -2.700732
    21      7.713410      6.141449     -4.801779
    22     -7.301649     -9.858790      9.020961
    23     -7.888503    -11.620344      8.700378
    24     -7.016366     -9.796832     10.882880
    25      4.034862     -0.775772    -10.419243
    26      2.649012     -1.724708     -9.642003
    27      5.561332     -1.563204     -9.570718
    28      7.674412    -10.526049      8.624997
    29      9.298095     -9.670112      8.100205
    30      7.933443    -11.534412     10.306020
    31     -4.179517      6.871090     -6.298884
    32     -3.539181      7.231819     -8.059194
    33     -2.799533      5.968282     -5.404341
    34     -9.875248      2.824836      2.042386
    35    -11.287825      2.207463      3.050343
    36     -8.765901      3.544291      3.221087
    37      5.309333    -11.574470     -6.404548
    38      5.633593    -10.399456     -7.647861
    39      4.040794    -10.918208     -5.264494
    40      2.179846     -4.038224     -6.736416
    41      1.427826     -5.597488     -6.055457
    42      3.196498     -3.569653     -5.115243
    43    -10.860256      1.788091     -3.776793
    44    -10.428395      0.110560     -4.394326
    45     -9.601568      2.105015     -2.456366
    46      8.057513     -3.697512     -9.467471
    47      8.470038     -4.543142     -7.762492
    48      9.711962     -3.227333    -10.247749
    49      9.929286      9.222489      5.199761
    50      9.777290      9.186042      3.314033
    51      8.429018     10.214539      5.851569
    52      3.694297      8.541265    -10.430498
    53      3.963430      6.762727    -10.202994
    54      4.239559      9.377539     -8.834827
    55     -4.253346      5.312884      5.027692
    56     -3.081518      6.605991      5.633313
    57     -4.400556      5.446177      3.113923
    58      9.237939      0.100796      3.912735
    59     10.307600     -1.377601      4.546067
    60      8.263574      0.671098      5.467794
    61     -3.455823     11.479909     -3.852324
    62     -1.919671     11.128244     -2.754807
    63     -3.870683      9.822309     -4.770710
    64    -11.198844     -3.033789      6.128259
    65    -11.579484     -4.885751      6.351547
    66     -9.422796     -3.126248      5.570006
    67     -3.245761     -7.401796      6.679687
    68     -2.782363     -6.062034      7.894159
    69     -4.024996     -8.654103      7.787886
    70     -3.473506      2.188711    -10.846127
    71     -2.595989      0.939903     -9.745074
    72     -2.398393      3.666297    -10.619531
    73      9.168709     -5.964286     -5.244226
    74      9.865608     -7.671572     -5.960009
    75     10.754346     -4.942904     -5.005777
    76     -9.431791      9.015167     -5.129701
    77     -9.760713      8.593390     -3.360725
    78     -8.310059      7.637014     -5.723385
    79      5.867036     -3.832236      2.149573
    80      4.554427     -4.466508      3.318172
    81      7.031949     -2.533501      2.858324
    82     -7.128191     -8.508110     -9.453861
    83     -8.736323     -8.482901     -8.520728
    84     -5.751597     -8.430389     -8.259547
    85     -2.363171     11.146255      3.283777
    86     -3.043179     12.724972      3.934916
    87     -3.964235     10.395716      2.697295
    88     -9.393169     -3.340465     -5.027261
    89     -8.163405     -3.306376     -6.530616
    90     -8.357879     -4.167549     -3.702338
    91      0.465411     -9.109735    -10.105327
    92      0.586545    -10.828325    -10.460581
    93      2.236385     -8.668678     -9.969964
    94     -2.506988     -1.474763     -7.336990
    95     -3.630009     -2.896661     -7.713289
    96     -0.833541     -2.064505     -6.732314
    97     -2.332729     -3.565386     10.552639
    98     -3.807566     -2.834383     11.492483
    99     -0.968245     -4.268927     11.600120
   100     -4.141144      0.545643      7.579055
   101     -4.044562      0.916126      9.406815
   102     -4.507996      2.086692      6.643032
   103    -11.737582     -7.678785      6.763540
   104    -11.343977     -8.121627      4.957944
   105    -10.379192     -8.568734      7.577528
   106     11.352201    -10.032715     -7.310137
   107     10.523993    -11.312664     -8.381897
   108     12.179555    -11.208096     -5.984731
   109      2.670521     -9.963704      7.520675
   110      4.473596    -10.032146      7.977543
   111      2.038232    -10.037900      9.211721
   112     10.872866      5.797404     10.339164
   113     12.004472      5.168650     11.690331
   114     11.998310      6.321387      8.926180
   115    -10.388456     -9.163397      1.777956
   116     -9.351695    -10.561343      0.996129
   117    -12.043317     -9.460995      0.870729
   118      6.957284      2.417105      8.816485
   119      8.314999      3.733710      9.244228
   120      6.380056      1.748089     10.484824
   121      2.230771     -6.008176      4.657349
   122      2.369091     -7.497619      5.911889
   123      1.183530     -4.637458      5.303494
   124     -1.293895      7.537672    -10.842455
   125     -1.450227      7.293870    -12.754315
   126      0.501671      8.024265    -10.656013
   127      7.831804      1.612169     -1.511955
   128      8.108384      1.349913      0.333529
   129      9.501080      1.313866     -2.313673
   130     -8.674279      2.954239    -10.249744
   131     -6.829962      2.679926    -10.116243
   132     -9.335400      2.695600     -8.605093
   133    -11.079132     -1.519852     11.074640
   134    -10.739404      0.284691     11.221300
   135    -11.159326     -2.035628      9.351149
   136      3.917858      3.847679     -8.143213
   137      4.467471      2.206894     -9.025477
   138      4.768444      4.137824     -6.475249
   139     -0.357241      7.535685      7.663490
   140     -0.016730      9.034195      6.608675
   141      1.095153      6.294664      7.402549
   142     -6.577247     -3.567708      4.543875
   143     -5.533277     -5.176769      5.172570
   144     -6.101268     -2.202020      5.779276
   145     -3.273404     -7.183321     -6.319076
   146     -3.344492     -8.296535     -4.821489
   147     -2.155828     -8.028311     -7.618584
   148     -7.098675     -3.164494     -9.574386
   149     -7.525369     -4.965979     -9.923481
   150     -8.458749     -2.225088    -10.400998
   151     -0.076430      4.124834     -4.535653
   152      0.654059      5.048925     -3.128697
   153      1.208584      3.952986     -5.830638
   154      8.979642     10.377597    -10.544300
   155     10.130228      9.308712    -11.548383
   156      7.317282      9.497066    -10.190860
   157      2.996894     -9.381666     -2.099280
   158      1.753755     -8.598020     -1.053095
   159      4.644790     -8.739832     -1.399550
   160     -0.742020     -6.190446     -0.168065
   161     -0.261504     -6.069749      1.647134
   162     -2.655156     -6.485255     -0.200426
   163      8.556410     -7.526993     -0.305444
   164      8.931348     -6.707118     -1.952635
   165      7.736263     -6.206195      0.753271
   166    -10.796487      7.678203      0.531722
   167    -10.595932      5.744397      0.824941
   168    -12.589170      7.963784     -0.056418
   169     -9.158637      8.421287      7.333919
   170     -7.882545      7.560314      6.296070
   171    -10.658779      9.134023      6.248754
   172      8.131741      9.715502     -0.953936
   173      7.402473      8.639728     -2.302401
   174      7.298587     11.313845     -1.221067
   175     -6.687943     11.015525      0.130939
   176     -7.795455      9.515191      0.468059
   177     -5.848665     10.925013     -1.551032
 
  MM charges 
  ---------- 
     1     -0.674440
     2      0.337220
     3      0.337220
     4     -0.674440
     5      0.337220
     6      0.337220
     7     -0.674440
     8      0.337220
     9      0.337220
    10     -0.674440
    11      0.337220
    12      0.337220
    13     -0.674440
    14      0.337220
    15      0.337220
    16     -0.674440
    17      0.337220
    18      0.337220
    19     -0.674440
    20      0.337220
    21      0.337220
    22     -0.674440
    23      0.337220
    24      0.337220
    25     -0.674440
    26      0.337220
    27      0.337220
    28     -0.674440
    29      0.337220
    30      0.337220
    31     -0.674440
    32      0.337220
    33      0.337220
    34     -0.674440
    35      0.337220
    36      0.337220
    37     -0.674440
    38      0.337220
    39      0.337220
    40     -0.674440
    41      0.337220
    42      0.337220
    43     -0.674440
    44      0.337220
    45      0.337220
    46     -0.674440
    47      0.337220
    48      0.337220
    49     -0.674440
    50      0.337220
    51      0.337220
    52     -0.674440
    53      0.337220
    54      0.337220
    55     -0.674440
    56      0.337220
    57      0.337220
    58     -0.674440
    59      0.337220
    60      0.337220
    61     -0.674440
    62      0.337220
    63      0.337220
    64     -0.674440
    65      0.337220
    66      0.337220
    67     -0.674440
    68      0.337220
    69      0.337220
    70     -0.674440
    71      0.337220
    72      0.337220
    73     -0.674440
    74      0.337220
    75      0.337220
    76     -0.674440
    77      0.337220
    78      0.337220
    79     -0.674440
    80      0.337220
    81      0.337220
    82     -0.674440
    83      0.337220
    84      0.337220
    85     -0.674440
    86      0.337220
    87      0.337220
    88     -0.674440
    89      0.337220
    90      0.337220
    91     -0.674440
    92      0.337220
    93      0.337220
    94     -0.674440
    95      0.337220
    96      0.337220
    97     -0.674440
    98      0.337220
    99      0.337220
   100     -0.674440
   101      0.337220
   102      0.337220
   103     -0.674440
   104      0.337220
   105      0.337220
   106     -0.674440
   107      0.337220
   108      0.337220
   109     -0.674440
   110      0.337220
   111      0.337220
   112     -0.674440
   113      0.337220
   114      0.337220
   115     -0.674440
   116      0.337220
   117      0.337220
   118     -0.674440
   119      0.337220
   120      0.337220
   121     -0.674440
   122      0.337220
   123      0.337220
   124     -0.674440
   125      0.337220
   126      0.337220
   127     -0.674440
   128      0.337220
   129      0.337220
   130     -0.674440
   131      0.337220
   132      0.337220
   133     -0.674440
   134      0.337220
   135      0.337220
   136     -0.674440
   137      0.337220
   138      0.337220
   139     -0.674440
   140      0.337220
   141      0.337220
   142     -0.674440
   143      0.337220
   144      0.337220
   145     -0.674440
   146      0.337220
   147      0.337220
   148     -0.674440
   149      0.337220
   150      0.337220
   151     -0.674440
   152      0.337220
   153      0.337220
   154     -0.674440
   155      0.337220
   156      0.337220
   157     -0.674440
   158      0.337220
   159      0.337220
   160     -0.674440
   161      0.337220
   162      0.337220
   163     -0.674440
   164      0.337220
   165      0.337220
   166     -0.674440
   167      0.337220
   168      0.337220
   169     -0.674440
   170      0.337220
   171      0.337220
   172     -0.674440
   173      0.337220
   174      0.337220
   175     -0.674440
   176      0.337220
   177      0.337220
 
  MM isotropic polarizabilities in au 
  ----------------------------------- 
     1      5.739350
     2      2.308390
     3      2.308390
     4      5.739350
     5      2.308390
     6      2.308390
     7      5.739350
     8      2.308390
     9      2.308390
    10      5.739350
    11      2.308390
    12      2.308390
    13      5.739350
    14      2.308390
    15      2.308390
    16      5.739350
    17      2.308390
    18      2.308390
    19      5.739350
    20      2.308390
    21      2.308390
    22      5.739350
    23      2.308390
    24      2.308390
    25      5.739350
    26      2.308390
    27      2.308390
    28      5.739350
    29      2.308390
    30      2.308390
    31      5.739350
    32      2.308390
    33      2.308390
    34      5.739350
    35      2.308390
    36      2.308390
    37      5.739350
    38      2.308390
    39      2.308390
    40      5.739350
    41      2.308390
    42      2.308390
    43      5.739350
    44      2.308390
    45      2.308390
    46      5.739350
    47      2.308390
    48      2.308390
    49      5.739350
    50      2.308390
    51      2.308390
    52      5.739350
    53      2.308390
    54      2.308390
    55      5.739350
    56      2.308390
    57      2.308390
    58      5.739350
    59      2.308390
    60      2.308390
    61      5.739350
    62      2.308390
    63      2.308390
    64      5.739350
    65      2.308390
    66      2.308390
    67      5.739350
    68      2.308390
    69      2.308390
    70      5.739350
    71      2.308390
    72      2.308390
    73      5.739350
    74      2.308390
    75      2.308390
    76      5.739350
    77      2.308390
    78      2.308390
    79      5.739350
    80      2.308390
    81      2.308390
    82      5.739350
    83      2.308390
    84      2.308390
    85      5.739350
    86      2.308390
    87      2.308390
    88      5.739350
    89      2.308390
    90      2.308390
    91      5.739350
    92      2.308390
    93      2.308390
    94      5.739350
    95      2.308390
    96      2.308390
    97      5.739350
    98      2.308390
    99      2.308390
   100      5.739350
   101      2.308390
   102      2.308390
   103      5.739350
   104      2.308390
   105      2.308390
   106      5.739350
   107      2.308390
   108      2.308390
   109      5.739350
   110      2.308390
   111      2.308390
   112      5.739350
   113      2.308390
   114      2.308390
   115      5.739350
   116      2.308390
   117      2.308390
   118      5.739350
   119      2.308390
   120      2.308390
   121      5.739350
   122      2.308390
   123      2.308390
   124      5.739350
   125      2.308390
   126      2.308390
   127      5.739350
   128      2.308390
   129      2.308390
   130      5.739350
   131      2.308390
   132      2.308390
   133      5.739350
   134      2.308390
   135      2.308390
   136      5.739350
   137      2.308390
   138      2.308390
   139      5.739350
   140      2.308390
   141      2.308390
   142      5.739350
   143      2.308390
   144      2.308390
   145      5.739350
   146      2.308390
   147      2.308390
   148      5.739350
   149      2.308390
   150      2.308390
   151      5.739350
   152      2.308390
   153      2.308390
   154      5.739350
   155      2.308390
   156      2.308390
   157      5.739350
   158      2.308390
   159      2.308390
   160      5.739350
   161      2.308390
   162      2.308390
   163      5.739350
   164      2.308390
   165      2.308390
   166      5.739350
   167      2.308390
   168      2.308390
   169      5.739350
   170      2.308390
   171      2.308390
   172      5.739350
   173      2.308390
   174      2.308390
   175      5.739350
   176      2.308390
   177      2.308390


     ************************************************************************
     ************************** Output from HERINT **************************
     ************************************************************************



                      Nuclear contribution to dipole moments
                      --------------------------------------

                 au               Debye          C m (/(10**-30)

      x     21.78333792        55.36771872       184.68682997
      y     16.28638729        41.39586476       138.08174174
      z     16.86819050        42.87466092       143.01447477



 Threshold for neglecting two-electron integrals:  1.00D-12
 HERMIT - Number of two-electron integrals written:    38388176 ( 43.0% )
 HERMIT - Megabytes written:                            439.567

  Time used in TWOINT     is       7.25 seconds
  Total CPU  time used in HERMIT:   7.44 seconds
  Total wall time used in HERMIT:   9.30 seconds


                        .----------------------------------.
                        | End of Integral Section (HERMIT) |
                        `----------------------------------'



                   .--------------------------------------------.
                   | Starting in Wave Function Section (SIRIUS) |
                   `--------------------------------------------'

NCCEXCI for singlet:    1
 CCSD_INPUT: core-val requested
 Requested number of virtual orbs per sym
                     1
 Indices of requested virtual orbs
                     1
 CCSD_INPUT: core-val requested
 Requested number of core orbs per sym
                     1
 Indices of requested core orbs
                     1

 *** Output from Huckel module :

     Using EWMO model:          T
     Using EHT  model:          F
     Number of Huckel orbitals each symmetry:   37

 EWMO - Energy Weighted Maximum Overlap - is a Huckel type method,
        which normally is better than Extended Huckel Theory.
 Reference: Linderberg and Ohrn, Propagators in Quantum Chemistry (Wiley, 1973)

 Huckel EWMO eigenvalues for symmetry :  1
          -20.684820     -20.684715     -20.684557     -20.684542     -15.674832
           -1.813511      -1.625929      -1.616671      -1.605240      -1.467237
           -0.810770      -0.801573      -0.782786      -0.775153      -0.765246
           -0.752184      -0.745232      -0.696052      -0.681016      -0.673423
           -0.660157      -0.609398      -0.579721      -0.555239      -0.541392
           -0.259259      -0.241639      -0.235367      -0.234848      -0.183043
           -0.178301      -0.177858      -0.174818      -0.174112      -0.156631
           -0.150535      -0.137994

 **********************************************************************
 *SIRIUS* a direct, restricted step, second order MCSCF program       *
 **********************************************************************

 
     Date and time (Linux)  : Mon Dec  3 12:33:10 2018
     Host name              : n-62-29-10                              

 Title lines from ".mol" input file:
                                                                             
                                                                             

 Print level on unit LUPRI =   2 is   0
 Print level on unit LUW4  =   2 is  11

@    (Integral direct) CC calculation.

@    This is a combination run starting with
@              a restricted, closed shell Hartree-Fock calculation


 Initial molecular orbitals are obtained according to
 ".MOSTART EWMO  " input option

@    QM part is embedded in an environment :

@         Model: QMMM

     Wave function specification
     ============================

     For the specification of the Coupled Cluster: see later.

@    Wave function type        --- CC ---
@    Number of closed shell electrons          50
@    Number of electrons in active shells       0
@    Total charge of the molecule               1

@    Spin multiplicity and 2 M_S                1         0
@    Total number of symmetries                 1 (point group: C1 )
@    Reference state symmetry                   1 (irrep name : A  )

     Orbital specifications
     ======================
@    Abelian symmetry species          All |    1
@                                          |  A  
                                       --- |  ---
@    Occupied SCF orbitals              25 |   25
@    Secondary orbitals                138 |  138
@    Total number of orbitals          163 |  163
@    Number of basis functions         163 |  163

     Optimization information
     ========================
@    Number of configurations                 1
@    Number of orbital rotations           3450
     ------------------------------------------
@    Total number of variables             3451

     Maximum number of Fock   iterations      0
     Maximum number of DIIS   iterations     60
     Maximum number of QC-SCF iterations     60
     Threshold for SCF convergence     1.00D-07


 Changes of defaults for CC:
 ---------------------------


 -Implicit frozen core calculation
 -Excitation energies calculated
 -One-photon absorption strengths will be calculated
 -Oscillator strengths calculated
  
* Read MO coefficients from SIRIUS.RST with label "NEWORB  " and header info:  3Dec18  REORTHO 


 ***********************************************
 ***** DIIS acceleration of SCF iterations *****
 ***********************************************

 C1-DIIS algorithm; max error vectors =    8
 -----------------------------------------------------------------------------

 *** DIIS iteration number    1
 RDSUPM called. NFMAT, ISYMDM(1:NFMAT)                     1
                     1

Calculating AOSUPINT
     (Precalculated two-electron integrals are transformed to P-supermatrix elements.
      Threshold for discarding integrals :  1.00D-12 )
  CPU  time used in FORMSUP    is   5.38 seconds
  WALL time used in FORMSUP    is  14.25 seconds

 ITDIIS, energy, error norm, change in energy, scr.thr., difden:
@ DIIS iter.   1    -360.208367879        4.01895D+00   -3.60D+02  -20    F

 (DIIS_RED) Control Parameters C2DIIS =         F NEVC =    1


 (DIIS_RED) B matrix:

               Column   1
       1      16.15199102
    ==== End of matrix output ====

 DIIS C vector; C2DIIS = F, LAMBDA = -1.62D+01
    1.000000
* Read MO coefficients from SIRIUS.RST with label "NEWORB  " and header info:  3Dec18  DIIS   1
      Virial theorem: -V/T =      2.002643
@      MULPOP N       0.09; H       0.15; H       0.18; H       0.17; H       0.18; O      -0.59; O      -0.59; O      -0.60; O      -0.61; H       0.32; 
@             H       0.32; H       0.32; H       0.32; H       0.33; H       0.33; H       0.34; H       0.34; 
   1  Level shift: doubly occupied orbital energies shifted by -2.00D-01

 DIIS Fock eigenvalues in symmetry 1
      -20.87516      -20.85441      -20.82883      -20.80512      -16.43098
       -1.71299       -1.69928       -1.68001       -1.65164       -1.62457
       -1.20768       -1.17308       -1.16847       -1.05979       -1.03596
       -1.02496       -1.00686       -0.95012       -0.93418       -0.90161
       -0.89690       -0.88141       -0.86733       -0.85779       -0.82901
       -0.02438       -0.00005        0.03487        0.04558        0.07415
        0.10350        0.12829        0.14045        0.14966        0.17084
        0.17914        0.18973        0.20447        0.25389        0.27403
        0.29104        0.39307        0.41060        0.44953        0.45741
        0.47585        0.48247        0.50315        0.51225        0.51994
        0.66539        0.69516        0.70771        0.80244        0.84371
        0.86961        0.89112        0.90711        0.94076        0.95757
        0.98271        0.99374        1.01111        1.01910        1.02307
        1.05185        1.07710        1.11845        1.19798        1.20495
        1.24680        1.26969        1.31392        1.33578        1.35756
        1.36423        1.37380        1.38569        1.38927        1.44451
        1.49154        1.50584        1.52057        1.55259        1.57878
        1.63106        1.73529        1.75630        1.78896        1.79156
        1.79585        1.89294        1.91843        2.00219        2.01720
        2.04160        2.10076        2.11311        2.12009        2.14600
        2.16496        2.20030        2.22601        2.24664        2.25971
        2.37625        2.43019        2.49044        2.51147        2.54815
        2.57355        2.60155        2.62113        2.65546        2.66685
        2.69263        2.70101        2.71197        2.76351        3.02563
        3.02961        3.05164        3.16403        3.31727        3.32315
        3.33727        3.34689        3.35331        3.36330        3.39462
        3.40526        3.50762        3.50968        3.54462        3.55087
        3.80489        3.81863        3.85944        3.91758        4.09286
        4.09720        4.10685        4.12618        4.64138        4.64749
        4.84389        5.20625        5.25811        5.29648        5.33980
        5.70463        5.72501        5.74355        5.76490        5.88651
        5.91990        5.98762        6.00119       36.35082       51.42133
       51.42973       51.45913       51.47206
 Time used in FCKEIG, thr_jaco:   4.70D-02  5.20D-02  1.71D-04
 CPU and wall times used in FCKEIG, THR_FCKEIG:   4.70D-02  5.20D-02  4.02D-02
 -----------------------------------------------------------------------------

 *** DIIS iteration number    2
 RDSUPM called. NFMAT, ISYMDM(1:NFMAT)                     1
                     1

 ITDIIS, energy, error norm, change in energy, scr.thr., difden:
@ DIIS iter.   2    -361.117503070        1.11887D+00   -9.09D-01  -20    F

 (DIIS_RED) Control Parameters C2DIIS =         F NEVC =    2


 (DIIS_RED) B matrix:

               Column   1     Column   2
       1      16.15199102
       2       0.80086472     1.25187863
    ==== End of matrix output ====

 DIIS C vector; C2DIIS = F, LAMBDA = -1.24D+00
    0.028541    0.971459
* Read MO coefficients from SIRIUS.RST with label "NEWORB  " and header info:  3Dec18  DIIS   2
      Virial theorem: -V/T =      2.002345
@      MULPOP N      -0.54; H       0.33; H       0.32; H       0.33; H       0.33; O      -0.55; O      -0.58; O      -0.55; O      -0.56; H       0.34; 
@             H       0.26; H       0.30; H       0.33; H       0.31; H       0.31; H       0.34; H       0.30; 
   2  Level shift: doubly occupied orbital energies shifted by -1.00D-01

 DIIS Fock eigenvalues in symmetry 1
      -20.81133      -20.80451      -20.76718      -20.76530      -15.64565
       -1.58452       -1.56809       -1.53864       -1.52233       -1.37522
       -0.92697       -0.90730       -0.89948       -0.89455       -0.88695
       -0.86940       -0.86482       -0.83772       -0.81429       -0.78171
       -0.76669       -0.75257       -0.74000       -0.71770       -0.69354
       -0.00005        0.02771        0.08204        0.09086        0.11489
        0.15087        0.16544        0.17191        0.19690        0.20491
        0.23619        0.25288        0.28928        0.33026        0.36342
        0.38311        0.44306        0.44942        0.49085        0.50223
        0.51994        0.53516        0.54548        0.55576        0.59519
        0.79035        0.81547        0.83299        0.84765        0.89763
        0.90967        0.93132        0.94845        0.98435        0.99353
        1.01753        1.03188        1.04094        1.06322        1.06560
        1.15127        1.17250        1.22383        1.26129        1.27012
        1.29223        1.32021        1.37362        1.39614        1.42184
        1.42614        1.43486        1.44752        1.45826        1.51240
        1.56577        1.59466        1.60489        1.65531        1.66252
        1.72398        1.80713        1.83203        1.85458        1.86218
        1.86596        1.98567        2.01118        2.06943        2.08609
        2.11219        2.14940        2.15805        2.23814        2.24863
        2.25903        2.28942        2.29583        2.33628        2.36302
        2.46861        2.51665        2.59357        2.60002        2.65377
        2.67108        2.70176        2.71757        2.72243        2.75486
        2.76671        2.85208        2.88757        2.97419        3.15167
        3.28426        3.29115        3.33518        3.34683        3.36121
        3.37166        3.37932        3.39606        3.42296        3.44029
        3.46889        3.53494        3.54430        3.56692        3.58303
        3.82864        3.85106        3.88867        3.93483        4.11032
        4.12680        4.13108        4.15337        5.01383        5.02486
        5.20223        5.20934        5.26881        5.31702        5.33735
        5.70352        5.73050        5.74883        5.77972        5.90347
        5.94723        6.01087        6.01198       37.02077       51.37380
       51.39588       51.41450       51.42316
 Time used in FCKEIG, thr_jaco:   3.60D-02  4.00D-02  4.76D-05
 CPU and wall times used in FCKEIG, THR_FCKEIG:   3.60D-02  4.00D-02  1.12D-02
 -----------------------------------------------------------------------------

 *** DIIS iteration number    3
 RDSUPM called. NFMAT, ISYMDM(1:NFMAT)                     1
                     1

 ITDIIS, energy, error norm, change in energy, scr.thr., difden:
@ DIIS iter.   3    -361.191314164        3.77057D-01   -7.38D-02  -20    F

 (DIIS_RED) Control Parameters C2DIIS =         F NEVC =    3


 (DIIS_RED) B matrix:

               Column   1     Column   2     Column   3
       1      16.15199102
       2       0.80086472     1.25187863
       3       0.79010661     0.00668372     0.14217193
    ==== End of matrix output ====

 DIIS C vector; C2DIIS = F, LAMBDA = -9.90D-02
   -0.045058    0.102904    0.942154
* Read MO coefficients from SIRIUS.RST with label "NEWORB  " and header info:  3Dec18  DIIS   3
      Virial theorem: -V/T =      2.002998
@      MULPOP N      -0.36; H       0.28; H       0.29; H       0.31; H       0.29; O      -0.61; O      -0.65; O      -0.61; O      -0.63; H       0.37; 
@             H       0.27; H       0.33; H       0.36; H       0.34; H       0.33; H       0.37; H       0.31; 
   3  Level shift: doubly occupied orbital energies shifted by -5.00D-02

 DIIS Fock eigenvalues in symmetry 1
      -20.71846      -20.71452      -20.68049      -20.66803      -15.80654
       -1.51513       -1.50087       -1.47212       -1.45227       -1.37873
       -0.87778       -0.85721       -0.84507       -0.84087       -0.83640
       -0.82689       -0.81637       -0.76805       -0.75587       -0.71666
       -0.69477       -0.67954       -0.67441       -0.64692       -0.62379
       -0.00005        0.03290        0.08679        0.09647        0.12092
        0.15460        0.16978        0.17592        0.19960        0.20945
        0.23587        0.25498        0.28795        0.32917        0.36248
        0.38113        0.45213        0.45958        0.50033        0.51185
        0.52893        0.54243        0.55563        0.56610        0.59538
        0.78398        0.81133        0.82052        0.85476        0.90035
        0.91992        0.94099        0.96138        0.99588        1.00489
        1.03126        1.04500        1.05456        1.07419        1.08023
        1.14967        1.17130        1.21793        1.27399        1.28142
        1.29882        1.33107        1.38189        1.40881        1.43594
        1.44062        1.44866        1.46127        1.46675        1.52074
        1.57448        1.60034        1.61013        1.66200        1.66502
        1.72634        1.81800        1.83918        1.86479        1.87310
        1.87449        1.98653        2.01384        2.08398        2.09914
        2.12315        2.16465        2.17509        2.24486        2.25346
        2.26266        2.30509        2.30602        2.33823        2.36621
        2.47767        2.52584        2.59764        2.60717        2.65717
        2.67675        2.70840        2.72822        2.73434        2.76386
        2.77732        2.84395        2.85482        2.93989        3.14816
        3.24921        3.25360        3.34168        3.37165        3.38395
        3.38882        3.40062        3.41432        3.44904        3.45227
        3.45801        3.56027        3.57137        3.59429        3.60760
        3.85296        3.87668        3.91198        3.96184        4.13947
        4.15463        4.15710        4.17886        4.92866        4.93749
        5.12833        5.23862        5.29613        5.34321        5.36859
        5.73572        5.76011        5.77839        5.81086        5.93326
        5.97972        6.04069        6.04572       36.81602       51.41392
       51.43879       51.46005       51.46182
 Time used in FCKEIG, thr_jaco:   3.40D-02  3.60D-02  1.60D-05
 CPU and wall times used in FCKEIG, THR_FCKEIG:   3.40D-02  3.60D-02  3.77D-03
 -----------------------------------------------------------------------------

 *** DIIS iteration number    4
 RDSUPM called. NFMAT, ISYMDM(1:NFMAT)                     1
                     1

 ITDIIS, energy, error norm, change in energy, scr.thr., difden:
@ DIIS iter.   4    -361.201606498        9.89236D-02   -1.03D-02  -20    F

 (DIIS_RED) Control Parameters C2DIIS =         F NEVC =    4


 (DIIS_RED) B matrix:

               Column   1     Column   2     Column   3     Column   4
       1      16.15199102
       2       0.80086472     1.25187863
       3       0.79010661     0.00668372     0.14217193
       4       0.04759064     0.08474173     0.00215781     0.00978589
    ==== End of matrix output ====

 DIIS C vector; C2DIIS = F, LAMBDA = -4.58D-03
   -0.000601   -0.066782    0.022862    1.044521
* Read MO coefficients from SIRIUS.RST with label "NEWORB  " and header info:  3Dec18  DIIS   4
      Virial theorem: -V/T =      2.002955
@      MULPOP N      -0.43; H       0.30; H       0.31; H       0.32; H       0.31; O      -0.62; O      -0.66; O      -0.61; O      -0.64; H       0.39; 
@             H       0.27; H       0.34; H       0.37; H       0.34; H       0.33; H       0.37; H       0.32; 
   4  Level shift: doubly occupied orbital energies shifted by -2.50D-02

 DIIS Fock eigenvalues in symmetry 1
      -20.70845      -20.70241      -20.66664      -20.65899      -15.74317
       -1.49542       -1.48098       -1.45061       -1.43250       -1.33976
       -0.84129       -0.83520       -0.81700       -0.81117       -0.80423
       -0.80246       -0.79522       -0.74587       -0.73187       -0.69244
       -0.67222       -0.65515       -0.64910       -0.62096       -0.59898
       -0.00005        0.03269        0.08671        0.09602        0.12042
        0.15519        0.17019        0.17680        0.20054        0.20965
        0.23959        0.25738        0.29211        0.33529        0.36834
        0.38711        0.45241        0.45895        0.50062        0.51193
        0.52805        0.54214        0.55446        0.56487        0.59914
        0.79062        0.81615        0.82853        0.85612        0.90325
        0.92155        0.94247        0.96135        0.99540        1.00476
        1.03002        1.04466        1.05382        1.07297        1.07929
        1.15372        1.17534        1.22313        1.27310        1.28113
        1.29977        1.33199        1.38377        1.40854        1.43432
        1.43878        1.44645        1.45957        1.46781        1.52078
        1.57559        1.60215        1.61316        1.66512        1.66901
        1.73071        1.81801        1.84069        1.86430        1.87224
        1.87544        1.99117        2.01885        2.08172        2.09812
        2.12385        2.16241        2.17245        2.24848        2.25698
        2.26496        2.30122        2.30697        2.34098        2.36868
        2.47815        2.52564        2.59965        2.61115        2.66214
        2.68314        2.71018        2.72797        2.73358        2.76276
        2.77661        2.85176        2.86553        2.95249        3.15592
        3.26259        3.26675        3.34511        3.36821        3.38085
        3.38724        3.39778        3.41323        3.44623        3.45332
        3.45974        3.55674        3.56746        3.59051        3.60546
        3.84920        3.87253        3.90946        3.95748        4.13527
        4.15062        4.15367        4.17640        4.94963        4.95856
        5.14782        5.23228        5.29130        5.33698        5.36125
        5.72905        5.75448        5.77253        5.80394        5.92626
        5.97199        6.03520        6.03769       36.85386       51.40135
       51.42421       51.44615       51.44926
 Time used in FCKEIG, thr_jaco:   3.10D-02  3.40D-02  4.21D-06
 CPU and wall times used in FCKEIG, THR_FCKEIG:   3.10D-02  3.40D-02  9.89D-04
 -----------------------------------------------------------------------------

 *** DIIS iteration number    5
 RDSUPM called. NFMAT, ISYMDM(1:NFMAT)                     1
                     1

 ITDIIS, energy, error norm, change in energy, scr.thr., difden:
@ DIIS iter.   5    -361.202669944        2.90211D-02   -1.06D-03  -20    F

 (DIIS_RED) Control Parameters C2DIIS =         F NEVC =    5


 (DIIS_RED) B matrix:

               Column   1     Column   2     Column   3     Column   4     Column   5
       1      16.15199102
       2       0.80086472     1.25187863
       3       0.79010661     0.00668372     0.14217193
       4       0.04759064     0.08474173     0.00215781     0.00978589
       5       0.02156736     0.00796571     0.00573384     0.00094716     0.00084222
    ==== End of matrix output ====

 DIIS C vector; C2DIIS = F, LAMBDA = -5.91D-04
    0.001133   -0.010117   -0.042683    0.055452    0.996216
* Read MO coefficients from SIRIUS.RST with label "NEWORB  " and header info:  3Dec18  DIIS   5
      Virial theorem: -V/T =      2.002636
@      MULPOP N      -0.42; H       0.30; H       0.30; H       0.32; H       0.31; O      -0.63; O      -0.68; O      -0.63; O      -0.65; H       0.39; 
@             H       0.28; H       0.34; H       0.37; H       0.35; H       0.34; H       0.38; H       0.32; 
   5  Level shift: doubly occupied orbital energies shifted by -1.25D-02

 DIIS Fock eigenvalues in symmetry 1
      -20.68830      -20.68439      -20.64834      -20.63844      -15.72735
       -1.48015       -1.46654       -1.43601       -1.41717       -1.32584
       -0.82744       -0.82066       -0.80305       -0.79725       -0.79014
       -0.78854       -0.78079       -0.73122       -0.71800       -0.67835
       -0.65730       -0.63987       -0.63355       -0.60560       -0.58306
       -0.00005        0.03299        0.08704        0.09636        0.12073
        0.15554        0.17062        0.17718        0.20099        0.21000
        0.24031        0.25798        0.29307        0.33627        0.36934
        0.38814        0.45313        0.45956        0.50123        0.51266
        0.52859        0.54263        0.55492        0.56545        0.60003
        0.79192        0.81749        0.82973        0.85760        0.90476
        0.92326        0.94413        0.96258        0.99676        1.00625
        1.03142        1.04611        1.05508        1.07433        1.08086
        1.15500        1.17656        1.22436        1.27382        1.28207
        1.30103        1.33322        1.38502        1.40928        1.43498
        1.43930        1.44682        1.45994        1.46900        1.52156
        1.57634        1.60291        1.61402        1.66590        1.66993
        1.73157        1.81839        1.84116        1.86446        1.87238
        1.87601        1.99196        2.01984        2.08243        2.09903
        2.12496        2.16300        2.17342        2.24973        2.25817
        2.26606        2.30183        2.30786        2.34173        2.36947
        2.47859        2.52595        2.60008        2.61194        2.66292
        2.68417        2.71080        2.72820        2.73373        2.76271
        2.77663        2.85286        2.86680        2.95388        3.15711
        3.26420        3.26837        3.34760        3.37030        3.38356
        3.38984        3.39987        3.41544        3.44910        3.45542
        3.46185        3.55863        3.57021        3.59340        3.60754
        3.85123        3.87535        3.91154        3.96034        4.13839
        4.15353        4.15597        4.17865        4.95161        4.96056
        5.14988        5.23567        5.29484        5.34150        5.36597
        5.73307        5.75804        5.77565        5.80801        5.92904
        5.97595        6.03817        6.04185       36.85711       51.40680
       51.43174       51.45401       51.45509
 Time used in FCKEIG, thr_jaco:   2.70D-02  2.90D-02  1.24D-06
 CPU and wall times used in FCKEIG, THR_FCKEIG:   2.70D-02  2.90D-02  2.90D-04
 -----------------------------------------------------------------------------

 *** DIIS iteration number    6
 RDSUPM called. NFMAT, ISYMDM(1:NFMAT)                     1
                     1

 ITDIIS, energy, error norm, change in energy, scr.thr., difden:
@ DIIS iter.   6    -361.202762427        1.08175D-02   -9.25D-05  -20    F

 (DIIS_RED) Control Parameters C2DIIS =         F NEVC =    6


 (DIIS_RED) B matrix:

               Column   1     Column   2     Column   3     Column   4     Column   5     Column   6
       1      16.15199102
       2       0.80086472     1.25187863
       3       0.79010661     0.00668372     0.14217193
       4       0.04759064     0.08474173     0.00215781     0.00978589
       5       0.02156736     0.00796571     0.00573384     0.00094716     0.00084222
       6      -0.00486885    -0.00015760     0.00077757     0.00052815     0.00004133     0.00011702
    ==== End of matrix output ====

 DIIS C vector; C2DIIS = F, LAMBDA = -3.73D-05
    0.000785    0.007676   -0.013679   -0.130906    0.143222    0.992902
* Read MO coefficients from SIRIUS.RST with label "NEWORB  " and header info:  3Dec18  DIIS   6
      Virial theorem: -V/T =      2.002872
@      MULPOP N      -0.42; H       0.30; H       0.30; H       0.32; H       0.31; O      -0.64; O      -0.68; O      -0.63; O      -0.65; H       0.39; 
@             H       0.28; H       0.35; H       0.37; H       0.35; H       0.34; H       0.38; H       0.32; 

 DIIS Fock eigenvalues in symmetry 1
      -20.67821      -20.67362      -20.63762      -20.62864      -15.71697
       -1.46827       -1.45449       -1.42399       -1.40546       -1.31392
       -0.81554       -0.80878       -0.79100       -0.78528       -0.77816
       -0.77660       -0.76907       -0.71958       -0.70624       -0.66659
       -0.64575       -0.62767       -0.62147       -0.59336       -0.57111
       -0.00005        0.03288        0.08688        0.09621        0.12056
        0.15542        0.17052        0.17707        0.20084        0.20985
        0.24020        0.25783        0.29291        0.33612        0.36919
        0.38790        0.45290        0.45937        0.50101        0.51239
        0.52834        0.54237        0.55464        0.56514        0.59980
        0.79156        0.81708        0.82937        0.85733        0.90445
        0.92285        0.94380        0.96222        0.99641        1.00585
        1.03092        1.04576        1.05467        1.07395        1.08049
        1.15467        1.17626        1.22402        1.27353        1.28178
        1.30068        1.33290        1.38467        1.40897        1.43465
        1.43894        1.44649        1.45959        1.46862        1.52121
        1.57607        1.60262        1.61377        1.66563        1.66974
        1.73132        1.81809        1.84091        1.86416        1.87213
        1.87577        1.99177        2.01968        2.08204        2.09862
        2.12463        2.16252        2.17283        2.24935        2.25786
        2.26573        2.30139        2.30745        2.34136        2.36910
        2.47831        2.52567        2.59973        2.61179        2.66270
        2.68413        2.71050        2.72791        2.73342        2.76239
        2.77634        2.85246        2.86628        2.95332        3.15694
        3.26348        3.26771        3.34682        3.36965        3.38271
        3.38903        3.39925        3.41477        3.44814        3.45476
        3.46116        3.55800        3.56939        3.59247        3.60690
        3.85062        3.87453        3.91088        3.95934        4.13736
        4.15268        4.15526        4.17797        4.95059        4.95953
        5.14885        5.23474        5.29389        5.34018        5.36454
        5.73175        5.75690        5.77466        5.80676        5.92806
        5.97466        6.03716        6.04036       36.85503       51.40509
       51.42936       51.45140       51.45327
 Time used in FCKEIG, thr_jaco:   3.00D-02  3.40D-02  4.60D-07
 CPU and wall times used in FCKEIG, THR_FCKEIG:   3.00D-02  3.40D-02  1.08D-04
 -----------------------------------------------------------------------------

 *** DIIS iteration number    7
 RDSUPM called. NFMAT, ISYMDM(1:NFMAT)                     1
                     1

 ITDIIS, energy, error norm, change in energy, scr.thr., difden:
@ DIIS iter.   7    -361.202775032        2.33731D-03   -1.26D-05  -20    F

 (DIIS_RED) Control Parameters C2DIIS =         F NEVC =    7


 (DIIS_RED) B matrix:

               Column   1     Column   2     Column   3     Column   4     Column   5     Column   6
       1      16.15199102
       2       0.80086472     1.25187863
       3       0.79010661     0.00668372     0.14217193
       4       0.04759064     0.08474173     0.00215781     0.00978589
       5       0.02156736     0.00796571     0.00573384     0.00094716     0.00084222
       6      -0.00486885    -0.00015760     0.00077757     0.00052815     0.00004133     0.00011702
       7       0.00038251     0.00020567    -0.00000035     0.00001315     0.00004691     0.00000037

               Column   7
       7       0.00000546
    ==== End of matrix output ====

 DIIS C vector; C2DIIS = F, LAMBDA = -1.18D-06
   -0.000239   -0.001028    0.006259    0.024557   -0.114169   -0.117089    1.201709
* Read MO coefficients from SIRIUS.RST with label "NEWORB  " and header info:  3Dec18  DIIS   7
      Virial theorem: -V/T =      2.002809
@      MULPOP N      -0.42; H       0.30; H       0.30; H       0.32; H       0.31; O      -0.64; O      -0.68; O      -0.63; O      -0.65; H       0.39; 
@             H       0.28; H       0.35; H       0.38; H       0.35; H       0.34; H       0.38; H       0.32; 

 DIIS Fock eigenvalues in symmetry 1
      -20.67787      -20.67339      -20.63741      -20.62820      -15.71653
       -1.46810       -1.45436       -1.42386       -1.40527       -1.31370
       -0.81537       -0.80865       -0.79090       -0.78516       -0.77800
       -0.77648       -0.76895       -0.71953       -0.70621       -0.66656
       -0.64567       -0.62750       -0.62128       -0.59318       -0.57087
       -0.00005        0.03293        0.08693        0.09626        0.12060
        0.15547        0.17057        0.17711        0.20089        0.20988
        0.24028        0.25789        0.29301        0.33624        0.36931
        0.38802        0.45299        0.45943        0.50107        0.51246
        0.52839        0.54242        0.55467        0.56518        0.59991
        0.79170        0.81720        0.82952        0.85743        0.90457
        0.92296        0.94391        0.96232        0.99652        1.00597
        1.03103        1.04586        1.05476        1.07403        1.08058
        1.15480        1.17638        1.22416        1.27359        1.28186
        1.30080        1.33300        1.38478        1.40902        1.43469
        1.43896        1.44651        1.45961        1.46872        1.52128
        1.57615        1.60270        1.61386        1.66571        1.66985
        1.73143        1.81813        1.84098        1.86419        1.87216
        1.87584        1.99187        2.01980        2.08209        2.09870
        2.12473        2.16255        2.17289        2.24946        2.25798
        2.26584        2.30142        2.30752        2.34145        2.36919
        2.47836        2.52571        2.59978        2.61189        2.66280
        2.68424        2.71057        2.72795        2.73344        2.76240
        2.77635        2.85259        2.86647        2.95352        3.15708
        3.26370        3.26792        3.34700        3.36978        3.38288
        3.38919        3.39937        3.41491        3.44832        3.45490
        3.46133        3.55813        3.56955        3.59265        3.60703
        3.85073        3.87468        3.91099        3.95951        4.13756
        4.15285        4.15541        4.17811        4.95088        4.95981
        5.14913        5.23491        5.29406        5.34042        5.36480
        5.73198        5.75709        5.77482        5.80696        5.92820
        5.97487        6.03730        6.04060       36.85546       51.40531
       51.42970       51.45182       51.45348
 Time used in FCKEIG, thr_jaco:   2.90D-02  3.30D-02  9.95D-08
 CPU and wall times used in FCKEIG, THR_FCKEIG:   2.90D-02  3.30D-02  2.34D-05
 -----------------------------------------------------------------------------

 *** DIIS iteration number    8
 RDSUPM called. NFMAT, ISYMDM(1:NFMAT)                     1
                     1

 ITDIIS, energy, error norm, change in energy, scr.thr., difden:
@ DIIS iter.   8    -361.202775619        3.55406D-04   -5.87D-07  -20    F

 (DIIS_RED) Control Parameters C2DIIS =         F NEVC =    8


 (DIIS_RED) B matrix:

               Column   1     Column   2     Column   3     Column   4     Column   5     Column   6
       1      16.15199102
       2       0.80086472     1.25187863
       3       0.79010661     0.00668372     0.14217193
       4       0.04759064     0.08474173     0.00215781     0.00978589
       5       0.02156736     0.00796571     0.00573384     0.00094716     0.00084222
       6      -0.00486885    -0.00015760     0.00077757     0.00052815     0.00004133     0.00011702
       7       0.00038251     0.00020567    -0.00000035     0.00001315     0.00004691     0.00000037
       8       0.00008583    -0.00003847     0.00000358     0.00000212     0.00000003     0.00000166

               Column   7     Column   8
       7       0.00000546
       8       0.00000031     0.00000013
    ==== End of matrix output ====

 DIIS C vector; C2DIIS = F, LAMBDA = -6.34D-08
    0.000013    0.000088   -0.000848   -0.002158    0.020059   -0.007015   -0.227340    1.217200
* Read MO coefficients from SIRIUS.RST with label "NEWORB  " and header info:  3Dec18  DIIS   8
      Virial theorem: -V/T =      2.002826
@      MULPOP N      -0.42; H       0.30; H       0.30; H       0.32; H       0.31; O      -0.64; O      -0.68; O      -0.63; O      -0.65; H       0.39; 
@             H       0.28; H       0.35; H       0.38; H       0.35; H       0.34; H       0.38; H       0.32; 

 DIIS Fock eigenvalues in symmetry 1
      -20.67786      -20.67339      -20.63737      -20.62829      -15.71655
       -1.46810       -1.45436       -1.42385       -1.40530       -1.31371
       -0.81537       -0.80864       -0.79088       -0.78516       -0.77800
       -0.77648       -0.76897       -0.71954       -0.70623       -0.66657
       -0.64571       -0.62749       -0.62128       -0.59316       -0.57089
       -0.00005        0.03293        0.08693        0.09626        0.12059
        0.15547        0.17057        0.17711        0.20089        0.20988
        0.24028        0.25789        0.29300        0.33623        0.36930
        0.38802        0.45299        0.45943        0.50107        0.51245
        0.52839        0.54242        0.55467        0.56517        0.59991
        0.79170        0.81719        0.82951        0.85743        0.90457
        0.92294        0.94390        0.96232        0.99652        1.00597
        1.03102        1.04586        1.05476        1.07403        1.08058
        1.15479        1.17638        1.22415        1.27359        1.28186
        1.30080        1.33300        1.38478        1.40902        1.43469
        1.43895        1.44651        1.45961        1.46872        1.52127
        1.57615        1.60270        1.61385        1.66570        1.66984
        1.73142        1.81812        1.84097        1.86419        1.87216
        1.87584        1.99187        2.01979        2.08209        2.09869
        2.12473        2.16255        2.17287        2.24945        2.25797
        2.26583        2.30142        2.30752        2.34144        2.36918
        2.47836        2.52571        2.59978        2.61188        2.66279
        2.68423        2.71057        2.72794        2.73343        2.76240
        2.77635        2.85258        2.86646        2.95351        3.15708
        3.26368        3.26791        3.34699        3.36978        3.38286
        3.38919        3.39937        3.41491        3.44829        3.45491
        3.46132        3.55814        3.56956        3.59262        3.60704
        3.85073        3.87468        3.91100        3.95948        4.13753
[...]
 | 1 1 1 1 |  11   1  12   1 |     1529        1 |      1168157 |   -0.081279  |
 | 1 1 1 1 |  28   1  12   1 |     1546        1 |      1194286 |    0.099384  |
 | 1 1 1 1 |  11   1  15   1 |     1943        1 |      1886654 |   -0.067814  |
 | 1 1 1 1 |  28   1  15   1 |     1960        1 |      1919821 |    0.084759  |
 | 1 1 1 1 |  13   1  21   1 |     2773        1 |      3843379 |   -0.070531  |
 | 1 1 1 1 |  27   1  21   1 |     2787        1 |      3882292 |    0.071135  |
 +=============================================================================+


          Norm of Printed Amplitude Vector :             0.8395

          Printed all single excitations greater than 0.379550

          Printed all double excitations greater than 0.065098



+======================================================================+
| contributions of excitation levels to right eigenvectors as computed |
| from the (RE|RE) self overlap                                        |
+----------------------------------------------------------------------+
| sym | multi | state |    E / eV  | % singles | % doubles | % triples |
+======================================================================+
|    1|   1   |   1   |  411.39982 |  87.9766  |  12.0234  |   0.0000  |
+======================================================================+





+======================================================================+
| contributions of excitation levels to excited states as computed     |
| from the (LE|RE) overlap                                             |
+----------------------------------------------------------------------+
| sym | multi | state |    E / eV  | % singles | % doubles | % triples |
+======================================================================+
|    1|   1   |   1   |  411.39982 |  78.7577  |  21.2423  |   0.0000  |
+======================================================================+



 --------------------------
 Symmetry class Nr.:     1
 Multiplicity      :     3
 --------------------------

 Length of Excitation vectors in this class is:   8404200
 No Excitation Energies calculated in this symmetry class
     

   *******************************************************************
   *                                                                 *
   *--------   OUTPUT FROM PROPERTY AND SYMMETRY ANALYSIS   ---------*
   *                                                                 *
   *******************************************************************



                         +-------------------------------+
                         ! REQUESTED PROPERTY OPERATORS: !
                         +-------------------------------+

             Index   Oper. Label  Symmetry  Transp.  PDBS  Atom
             --------------------------------------------------
                1     HAM0            1        1      T      0
                2     XDIPLEN         1        1      F      0
                3     YDIPLEN         1        1      F      0
                4     ZDIPLEN         1        1      F      0
             --------------------------------------------------




                         +-------------------------------+
                         ! REQUESTED EXPECTATION VALUES: !
                         +-------------------------------+

                       Index   Oper. Label  Symmetry
                       -----------------------------
                       -----------------------------




                       +------------------------------------+
                       ! REQUESTED EFFECTIVE FOCK MATRICES: !
                       +------------------------------------+

                       Index   Oper. Label  Symmetry
                       -----------------------------
                       -----------------------------




                        +----------------------------------+
                        ! REQUESTED FIRST ORDER M-VECTORS: !
                        +----------------------------------+

               Index   State Symmetry  Frequency
               --------------------------------------------------
                  1             1    1     1.511867D+01
               --------------------------------------------------


      

    *******************************************************************
    *          SOLVING COUPLED CLUSTER RESPONSE EQUATIONS             *
    *******************************************************************



 
 +======================================================================+
 !                     RHS & ETA VECTORS TO COMPUTE:                    !
 +======================================================================+
 | TYPE | # VEC. |  NEEDED FOR:                                         |
 +----------------------------------------------------------------------+
 +======================================================================+



 +======================================================================+
 !                       LINEAR EQUATIONS TO SOLVE:                     !
 +======================================================================+
 | TYPE | # VEC. |  EQUATION:                                           |
 +----------------------------------------------------------------------+
 |  M1  |    1   |  first-order ground - excited state multipliers      |
 +======================================================================+



 +======================================================================+
 !                F MATRIX TRANSFORMATIONS TO COMPUTE:                  !
 +======================================================================+
 | TYPE | # VEC. |  TRANSFORMED:                                        |
 +----------------------------------------------------------------------+
 |  FR  |    1   |  right eigenvectors (RE)                             |
 +======================================================================+





 Testing R1 list: 

 List nr.  Label     Symmetry      Frequency      T1-norm        T2-norm


 Testing L1 list: 

 List nr.  Label     Symmetry      Frequency      T1-norm        T2-norm
  Solvent 1-order response equations converged in                     0 
  solvent iterations
 SONIAPRI                     0
 CCEQ_STR: CVSEPARATION =  T
 CCEQ_STR: IONIZATION =  T
 CCEQ_STR: REMOVE_CORE =  F
 could not find required file CCM1_1___1
 IOPTSV is    33 ... program continues nevertheless.
 Vector nr.  1 of type M1  and symmetry  1 was not found on file.
     M1  start vector nr.  1 of symmetry  1 generated from gradient
 CCEQ_STR: freeze VALENCE OR VIRT
 CCEQ_SOL: CVSEPARA=     T
 CCEQ_SOL: LIONISAT=     T
 CCEQ_SOL: REMOVE_CORE =  F



 ----- COUPLED CLUSTER RESPONSE SOLVER -----

    Iter  #Vectors  time (min)   residual
    --------------------------------------
 CCRED CVS/IONIS sigma_                     1 
 project out valence occupied or virtual
      1       1         1.44     0.22E+01
 CCRED CVS/IONIS sigma_                     2 
 project out valence occupied or virtual
      2       1         1.44     0.41E+00
 CCRED CVS/IONIS sigma_                     3 
 project out valence occupied or virtual
      3       1         1.44     0.50E-01
 CCRED CVS/IONIS sigma_                     4 
 project out valence occupied or virtual
      4       1         1.44     0.52E-02
 CCRED CVS/IONIS sigma_                     5 
 project out valence occupied or virtual
                    -1  vectors with norm le:  1.000000000000000E-035  REMOVED

 CCORT,**WARNING**  number vectors added is zero after check for vector norm , NBADD :    0

 CCORT, number vectors added is zero , NBADD :    0

 CCORT, number vectors added is zero , NBADD :    0

 CCORT, number vectors added is zero , NBADD :    0

 CCORT, number vectors added is zero , NBADD :    0

 CCORT, number vectors added is zero , NBADD :    0

 *** MICROITERATIONS STOPPED DUE TO LINEAR DEPENDENCE BETWEEN ALL NEW TRIAL VECTORS
                     0  trial vectors converged
  LINEAR DEPENDENCE BETWEEN                     1  NON CONVERGED TRIAL VECTORS
      5       1         1.42     0.72E-03

 ***  CCEQ_SOL -MICROITERATIONS STOPPED  
     LINEAR DEPENDENCE BETWEEN ALL NEW TRIAL VECTORS
    --------------------------------------
    converged in  5 iterations
    threshold:    0.10E-08


         Routine          Time (min)
         ---------------------------
         CC_TRDRV            7.18
         CCRED               0.06
         CCNEX               0.08
         ---------------------------
         Total time          7.32


  Total CPU  time used in CCEQ_SOLV:  7 minutes 19 seconds
  Total wall time used in CCEQ_SOLV:  8 minutes 54 seconds


 xxxxxxxxxxxxxxxxxxxxxxxxxxxxxxxxxxxxx

 
 Solution of CC response equations completed.
 

 *******************************************************************
 *                                                                 *
 *--------  OUTPUT FROM COUPLED CLUSTER LINEAR RESPONSE   ---------*
 *                                                                 *
 *--------      CALCULATION OF SECOND ORDER RESIDUES      ---------*
 *                                                                 *
 *******************************************************************



                  +---------------------------------------------+
                  ! CC_SOPR: Calculation of CCSD       Residues !
                  +---------------------------------------------+

 Doing the Mf*CsiA
 Doing the Mf*CsiA
 Doing the Mf*CsiA


 CCSD  Right transition moments in atomic units:
 -----------------------------------------------

  1      15.118666  <XDIPLEN |f> =      -0.00000007
  1      15.118666  <YDIPLEN |f> =      -0.00000007
  1      15.118666  <ZDIPLEN |f> =      -0.00000001


 CCSD  Left  transition moments in atomic units:
 -----------------------------------------------

  1      15.118666  <f|XDIPLEN > =      -0.00000003
  1      15.118666  <f|YDIPLEN > =      -0.00000003
  1      15.118666  <f|ZDIPLEN > =      -0.00000000


 CCSD  linear response residue property in atomic units:
 -------------------------------------------------------

 RES{<<XDIPLEN ,XDIPLEN >>(15.118666)} =     0.00000000 (   0.00000004)
 RES{<<XDIPLEN ,YDIPLEN >>(15.118666)} =     0.00000000 (   0.00000005)
 RES{<<XDIPLEN ,ZDIPLEN >>(15.118666)} =     0.00000000 (   0.00000002)
 RES{<<YDIPLEN ,XDIPLEN >>(15.118666)} =     0.00000000 (   0.00000005)
 RES{<<YDIPLEN ,YDIPLEN >>(15.118666)} =     0.00000000 (   0.00000005)
 RES{<<YDIPLEN ,ZDIPLEN >>(15.118666)} =     0.00000000 (   0.00000002)
 RES{<<ZDIPLEN ,XDIPLEN >>(15.118666)} =     0.00000000 (   0.00000002)
 RES{<<ZDIPLEN ,YDIPLEN >>(15.118666)} =     0.00000000 (   0.00000002)
 RES{<<ZDIPLEN ,ZDIPLEN >>(15.118666)} =     0.00000000 (   0.00000001)


 CCSD  Transition strength matrix for state nr.  1 of symmetry 1
 CCSD  excitation energy:15.11866565

 Gauge: length

               Column   1     Column   2     Column   3
       1     1.973668D-15   2.061100D-15   2.415240D-16
       2     2.061100D-15   2.152404D-15   2.522236D-16
       3     2.415240D-16   2.522236D-16   2.955599D-17
    ==== End of matrix output ====

 Principal values of diagonalized transition strength matrix:

             a.u.               
 1       0.00000000
 2       0.00000000
 3       0.00000000

 Principal axis of diagonalized transition strength matrix:


               Column   1     Column   2     Column   3
       1       1.00000000     0.00000000     0.00000000
       2       0.00000000     1.00000000     0.00000000
       3       0.00000000     0.00000000     1.00000000
    ==== End of matrix output ====


 CCSD   oscillator strength matrix for state nr.  1 of symmetry 1
 CCSD  excitation energy:15.11866565


               Column   1     Column   2     Column   3
       1     1.989282D-14   2.077406D-14   2.434347D-15
       2     2.077406D-14   2.169432D-14   2.542189D-15
       3     2.434347D-15   2.542189D-15   2.978981D-16
    ==== End of matrix output ====

 Principal values of diagonalized oscillator strength matrix:

             a.u.               
 1       0.00000000
 2       0.00000000
 3       0.00000000

 Principal axis of diagonalized oscillator strength matrix:


               Column   1     Column   2     Column   3
       1       1.00000000     0.00000000     0.00000000
       2       0.00000000     1.00000000     0.00000000
       3       0.00000000     0.00000000     1.00000000
    ==== End of matrix output ====

  Total time for      9 linear response residues:       3.32 seconds.
  

 *******************************************************************************
 *******************************************************************************
 *                                                                             *
 *                                                                             *
 *                   SUMMARY OF COUPLED CLUSTER CALCULATION                    *
 *                                                                             *
 *                                                                             *
 *******************************************************************************
 *******************************************************************************

                                                                                
                                                                                
            Total SCF   energy:                  -361.2027756360                
            Total MP2   energy:                  -362.3123285203                
            Total CCSD  energy:                  -362.3528885761                
                                                                                
                                                                                
            Total SCF   energy:                  -361.2027756360                
            Total RSTAR energy:                  -362.3528885761                
            Total CCSD  energy:                  -362.3530261089                
                                                                                
                                                                                
            Total SCF   energy:                  -361.2027756360                
            Total RSTAR energy:                  -362.3530261089                
            Total CCSD  energy:                  -362.3530272497                
                                                                                
                                                                                
            Total SCF   energy:                  -361.2027756360                
            Total RSTAR energy:                  -362.3530272497                
            Total CCSD  energy:                  -362.3530273527                
                                                                                
                                                                                
            Total SCF   energy:                  -361.2027756360                
            Total RSTAR energy:                  -362.3530273527                
            Total CCSD  energy:                  -362.3530273566                
                                                                                
                                                                                
            Total SCF   energy:                  -361.2027756360                
            Total RSTAR energy:                  -362.3530273566                
            Total CCSD  energy:                  -362.3530273567                
            CCSD Total  energy:                  -362.7674283914                
            CCSD E(QM/MM)     :                    -0.4103102738                
                                                                                
                                                                                
                                                                                
 +=============================================================================+
 |  sym. | Exci.  |        CCSD       Excitation energies            | ||T1||  |
 |(spin, |        +------------------------------------------------------------+
 | spat) |        |     Hartree    |       eV.      |     cm-1       |    %    |
 +=============================================================================+
 | ^1A   |    1   |    15.1186657  |     411.39982  |   3318163.541  |  87.98  |
 +=============================================================================+
                                                                                
                                                                                
     Total energies in Hartree:                                                 
             1 ^1A       -347.2384524628                                        
                                                                                
                                                                                
 +=============================================================================+
 |  sym. | Exci.  |        CCSD       Length   Gauge Oscillator Strength       |
 |(spin, |        +------------------------------------------------------------+
 | spat) |        | Dipole Strength(a.u.) | Oscillator strength  | Direction   |
 +=============================================================================+
 | ^1A   |    1   |        0.0000000      |      0.0000000       |    -        |
 +=============================================================================+

  1 a.u. =        27.21138 eV.  
  1 a.u. =    219474.62934 cm-1.
  

 *******************************************************************************
 *******************************************************************************
 *                                                                             *
 *                                                                             *
 *                      END OF COUPLED CLUSTER CALCULATION                     *
 *                                                                             *
 *                                                                             *
 *******************************************************************************
 *******************************************************************************


 CPU and wall time for CC :    6677.968    8462.270

 
     Date and time (Linux)  : Mon Dec  3 14:56:58 2018
     Host name              : n-62-29-10                              


                      .-------------------------------------.
                      | End of Coupled Cluster Section (CC) |
                      `-------------------------------------'

  Total CPU  time used in DALTON:   1 hour  53 minutes 25 seconds
  Total wall time used in DALTON:   2 hours 23 minutes 58 seconds

 
     Date and time (Linux)  : Mon Dec  3 14:56:58 2018
     Host name              : n-62-29-10                              
  

 +---------------------------------------------------------+ 
 | List of selected calculated molecular properties (a.u.) | 
 +---------------------------------------------------------+ 

  Properties are read from unit number                      4

 CCSD       properties :
 #  1 1 CCSD/MM  Ground state Energy =    -362.7674283914
 #  2 1 E_QM/MM  Ground state Energy =      -0.4103102738
 #  3 1 Sy: 1 Sp: 1 Exc:  1 E_tot:   -347.2384524628 w:     15.1186656548 E_grs:   -362.3571181176
 #  4 1 Exctot   Excited state Energy =    -347.2384524628
 #  5 1 |<O|XDIPLEN |i(15.118666)>| =     0.00000004
 #  7 1 |<O|YDIPLEN |i(15.118666)>| =     0.00000005
 #  9 1 |<O|ZDIPLEN |i(15.118666)>| =     0.00000001

 THE_END   
