

     ************************************************************************
     *************** Dalton - An Electronic Structure Program ***************
     ************************************************************************

    This is output from DALTON release Dalton2017.alpha (2016)
         ( Web site: http://daltonprogram.org )

   ----------------------------------------------------------------------------

    NOTE:
     
    Dalton is an experimental code for the evaluation of molecular
    properties using (MC)SCF, DFT, CI, and CC wave functions.
    The authors accept no responsibility for the performance of
    the code or for the correctness of the results.
     
    The code (in whole or part) is provided under a licence and
    is not to be reproduced for further distribution without
    the written permission of the authors or their representatives.
     
    See the home page "http://daltonprogram.org" for further information.
     
    If results obtained with this code are published,
    the appropriate citations would be both of:
     
       K. Aidas, C. Angeli, K. L. Bak, V. Bakken, R. Bast,
       L. Boman, O. Christiansen, R. Cimiraglia, S. Coriani,
       P. Dahle, E. K. Dalskov, U. Ekstroem,
       T. Enevoldsen, J. J. Eriksen, P. Ettenhuber, B. Fernandez,
       L. Ferrighi, H. Fliegl, L. Frediani, K. Hald, A. Halkier,
       C. Haettig, H. Heiberg, T. Helgaker, A. C. Hennum,
       H. Hettema, E. Hjertenaes, S. Hoest, I.-M. Hoeyvik,
       M. F. Iozzi, B. Jansik, H. J. Aa. Jensen, D. Jonsson,
       P. Joergensen, J. Kauczor, S. Kirpekar,
       T. Kjaergaard, W. Klopper, S. Knecht, R. Kobayashi, H. Koch,
       J. Kongsted, A. Krapp, K. Kristensen, A. Ligabue,
       O. B. Lutnaes, J. I. Melo, K. V. Mikkelsen, R. H. Myhre,
       C. Neiss, C. B. Nielsen, P. Norman, J. Olsen,
       J. M. H. Olsen, A. Osted, M. J. Packer, F. Pawlowski,
       T. B. Pedersen, P. F. Provasi, S. Reine, Z. Rinkevicius,
       T. A. Ruden, K. Ruud, V. Rybkin, P. Salek, C. C. M. Samson,
       A. Sanchez de Meras, T. Saue, S. P. A. Sauer,
       B. Schimmelpfennig, K. Sneskov, A. H. Steindal,
       K. O. Sylvester-Hvid, P. R. Taylor, A. M. Teale,
       E. I. Tellgren, D. P. Tew, A. J. Thorvaldsen, L. Thoegersen,
       O. Vahtras, M. A. Watson, D. J. D. Wilson, M. Ziolkowski
       and H. Agren,
       "The Dalton quantum chemistry program system",
       WIREs Comput. Mol. Sci. 2014, 4:269–284 (doi: 10.1002/wcms.1172)
     
    and
     
       Dalton, a Molecular Electronic Structure Program,
       Release Dalton2017.alpha (2016), see http://daltonprogram.org
   ----------------------------------------------------------------------------

    Authors in alphabetical order (major contribution(s) in parenthesis):

  Kestutis Aidas,           Vilnius University,           Lithuania   (QM/MM)
  Celestino Angeli,         University of Ferrara,        Italy       (NEVPT2)
  Keld L. Bak,              UNI-C,                        Denmark     (AOSOPPA, non-adiabatic coupling, magnetic properties)
  Vebjoern Bakken,          University of Oslo,           Norway      (DALTON; geometry optimizer, symmetry detection)
  Radovan Bast,             UiT The Arctic U. of Norway,  Norway      (DALTON installation and execution frameworks)
  Pablo Baudin,             University of Valencia,       Spain       (Cholesky excitation energies)
  Linus Boman,              NTNU,                         Norway      (Cholesky decomposition and subsystems)
  Ove Christiansen,         Aarhus University,            Denmark     (CC module)
  Renzo Cimiraglia,         University of Ferrara,        Italy       (NEVPT2)
  Sonia Coriani,            University of Trieste,        Italy       (CC module, MCD in RESPONS)
  Janusz Cukras,            University of Trieste,        Italy       (MChD in RESPONS)
  Paal Dahle,               University of Oslo,           Norway      (Parallelization)
  Erik K. Dalskov,          UNI-C,                        Denmark     (SOPPA)
  Thomas Enevoldsen,        Univ. of Southern Denmark,    Denmark     (SOPPA)
  Janus J. Eriksen,         Aarhus University,            Denmark     (Polarizable embedding model, TDA)
  Rasmus Faber,             University of Copenhagen,     Denmark     (Vib.avg. NMR with SOPPA, parallel AO-SOPPA)
  Berta Fernandez,          U. of Santiago de Compostela, Spain       (doublet spin, ESR in RESPONS)
  Lara Ferrighi,            Aarhus University,            Denmark     (PCM Cubic response)
  Heike Fliegl,             University of Oslo,           Norway      (CCSD(R12))
  Luca Frediani,            UiT The Arctic U. of Norway,  Norway      (PCM)
  Bin Gao,                  UiT The Arctic U. of Norway,  Norway      (Gen1Int library)
  Christof Haettig,         Ruhr-University Bochum,       Germany     (CC module)
  Kasper Hald,              Aarhus University,            Denmark     (CC module)
  Asger Halkier,            Aarhus University,            Denmark     (CC module)
  Frederik Beyer Hansen,    University of Copenhagen,     Denmark     (Parallel AO-SOPPA)
  Erik D. Hedegaard,        Univ. of Southern Denmark,    Denmark     (Polarizable embedding model, QM/MM)
  Hanne Heiberg,            University of Oslo,           Norway      (geometry analysis, selected one-electron integrals)
  Trygve Helgaker,          University of Oslo,           Norway      (DALTON; ABACUS, ERI, DFT modules, London, and much more)
  Alf Christian Hennum,     University of Oslo,           Norway      (Parity violation)
  Hinne Hettema,            University of Auckland,       New Zealand (quadratic response in RESPONS; SIRIUS supersymmetry)
  Eirik Hjertenaes,         NTNU,                         Norway      (Cholesky decomposition)
  Pi A. B. Haase,           University of Copenhagen,     Denmark     (Triplet AO-SOPPA)
  Maria Francesca Iozzi,    University of Oslo,           Norway      (RPA)
  Brano Jansik              Technical Univ. of Ostrava    Czech Rep.  (DFT cubic response)
  Hans Joergen Aa. Jensen,  Univ. of Southern Denmark,    Denmark     (DALTON; SIRIUS, RESPONS, ABACUS modules, London, and much more)
  Dan Jonsson,              UiT The Arctic U. of Norway,  Norway      (cubic response in RESPONS module)
  Poul Joergensen,          Aarhus University,            Denmark     (RESPONS, ABACUS, and CC modules)
  Maciej Kaminski,          University of Warsaw,         Poland      (CPPh in RESPONS)
  Joanna Kauczor,           Linkoeping University,        Sweden      (Complex polarization propagator (CPP) module)
  Sheela Kirpekar,          Univ. of Southern Denmark,    Denmark     (Mass-velocity & Darwin integrals)
  Wim Klopper,              KIT Karlsruhe,                Germany     (R12 code in CC, SIRIUS, and ABACUS modules)
  Stefan Knecht,            ETH Zurich,                   Switzerland (Parallel CI and MCSCF)
  Rika Kobayashi,           Australian National Univ.,    Australia   (DIIS in CC, London in MCSCF)
  Henrik Koch,              NTNU,                         Norway      (CC module, Cholesky decomposition)
  Jacob Kongsted,           Univ. of Southern Denmark,    Denmark     (Polarizable embedding model, QM/MM)
  Andrea Ligabue,           University of Modena,         Italy       (CTOCD, AOSOPPA)
  Nanna H. List             Univ. of Southern Denmark,    Denmark     (Polarizable embedding model)
  Ola B. Lutnaes,           University of Oslo,           Norway      (DFT Hessian)
  Juan I. Melo,             University of Buenos Aires,   Argentina   (LRESC, Relativistic Effects on NMR Shieldings)
  Kurt V. Mikkelsen,        University of Copenhagen,     Denmark     (MC-SCRF and QM/MM)
  Rolf H. Myhre,            NTNU,                         Norway      (Cholesky, subsystems and ECC2)
  Christian Neiss,          Univ. Erlangen-Nuernberg,     Germany     (CCSD(R12))
  Christian B. Nielsen,     University of Copenhagen,     Denmark     (QM/MM)
  Patrick Norman,           Linkoeping University,        Sweden      (Cubic response and complex frequency response in RESPONS)
  Jeppe Olsen,              Aarhus University,            Denmark     (SIRIUS CI/density modules)
  Jogvan Magnus H. Olsen,   Univ. of Southern Denmark,    Denmark     (Polarizable embedding model, QM/MM)
  Anders Osted,             Copenhagen University,        Denmark     (QM/MM)
  Martin J. Packer,         University of Sheffield,      UK          (SOPPA)
  Filip Pawlowski,          Kazimierz Wielki University,  Poland      (CC3)
  Morten N. Pedersen,       Univ. of Southern Denmark,    Denmark     (Polarizable embedding model)
  Thomas B. Pedersen,       University of Oslo,           Norway      (Cholesky decomposition)
  Patricio F. Provasi,      University of Northeastern,   Argentina   (Analysis of coupling constants in localized orbitals)
  Zilvinas Rinkevicius,     KTH Stockholm,                Sweden      (open-shell DFT, ESR)
  Elias Rudberg,            KTH Stockholm,                Sweden      (DFT grid and basis info)
  Torgeir A. Ruden,         University of Oslo,           Norway      (Numerical derivatives in ABACUS)
  Kenneth Ruud,             UiT The Arctic U. of Norway,  Norway      (DALTON; ABACUS magnetic properties and much more)
  Pawel Salek,              KTH Stockholm,                Sweden      (DALTON; DFT code)
  Claire C. M. Samson       University of Karlsruhe       Germany     (Boys localization, r12 integrals in ERI)
  Alfredo Sanchez de Meras, University of Valencia,       Spain       (CC module, Cholesky decomposition)
  Trond Saue,               Paul Sabatier University,     France      (direct Fock matrix construction)
  Stephan P. A. Sauer,      University of Copenhagen,     Denmark     (SOPPA(CCSD), SOPPA prop., AOSOPPA, vibrational g-factors)
  Bernd Schimmelpfennig,    Forschungszentrum Karlsruhe,  Germany     (AMFI module)
  Kristian Sneskov,         Aarhus University,            Denmark     (Polarizable embedding model, QM/MM)
  Arnfinn H. Steindal,      UiT The Arctic U. of Norway,  Norway      (parallel QM/MM, Polarizable embedding model)
  Casper Steinmann,         Univ. of Southern Denmark,    Denmark     (QFIT, Polarizable embedding model)
  K. O. Sylvester-Hvid,     University of Copenhagen,     Denmark     (MC-SCRF)
  Peter R. Taylor,          VLSCI/Univ. of Melbourne,     Australia   (Symmetry handling ABACUS, integral transformation)
  Andrew M. Teale,          University of Nottingham,     England     (DFT-AC, DFT-D)
  David P. Tew,             University of Bristol,        England     (CCSD(R12))
  Olav Vahtras,             KTH Stockholm,                Sweden      (triplet response, spin-orbit, ESR, TDDFT, open-shell DFT)
  David J. Wilson,          La Trobe University,          Australia   (DFT Hessian and DFT magnetizabilities)
  Hans Agren,               KTH Stockholm,                Sweden      (SIRIUS module, RESPONS, MC-SCRF solvation model)
 --------------------------------------------------------------------------------

     Date and time (Linux)  : Thu Nov 29 03:05:08 2018
     Host name              : n-62-29-9                               

 * Work memory size             :  1280000000 =  9.537 gigabytes.

 * Directories for basis set searches:
   1) /zhome/d7/7/119775/My_Codes/dalton-private/build2016/basis/diffs
   2) /zhome/37/3/129401/NH3NH4/CCSD/AIMD_SAMPLING/nh4_4h2o_nd
   3) /zhome/9a/4/124800/source/dalton/build-mlcc/basis


Compilation information
-----------------------

 Who compiled             | rfaber
 Host                     | hpclogin1
 System                   | Linux-2.6.32-696.1.1.el6.x86_64
 CMake generator          | Unix Makefiles
 Processor                | x86_64
 64-bit integers          | ON
 MPI                      | OFF
 Fortran compiler         | /opt/intel/2016update2/compilers_and_libraries_201
                          | 6.2.181/linux/bin/intel64/ifort
 Fortran compiler version | ifort (IFORT) 16.0.2 20160204
 C compiler               | /opt/intel/2016update2/compilers_and_libraries_201
                          | 6.2.181/linux/bin/intel64/icc
 C compiler version       | icc (ICC) 16.0.2 20160204
 C++ compiler             | /opt/intel/2016update2/compilers_and_libraries_201
                          | 6.2.181/linux/bin/intel64/icpc
 C++ compiler version     | icpc (ICC) 16.0.2 20160204
 Static linking           | OFF
 Last Git revision        | bb4d1599ca5680a9f3980451fc8bbefdba436d59
 Git branch               | mlcc
 Configuration time       | 2017-06-13 16:11:03.928841


   Content of the .dal input file
 ----------------------------------

**DALTON
.RUN WAVE FUNCTIONS
*QMMM
.QMMM
**INTEGRALS
.DIPLEN
**WAVE FUNCTIONS
.CC
*PRINT
!To check the origin of excit
.PRINTL
   0 11
*SCF INP
.THRESH
1.0D-7
!*ORBITAL INPUT
!.MOSTART
!NEWORB
*CC INP
!.RESTART
.CCSD
.THRLEQ
 1.0D-9
.THRENR
 1.0D-10
.FROIMP
4
0
.PRINT
 1
.MAX IT
 1200
.MAXRED
 1200
.MXLRV
1199
*CCSLV
.CCMM
.MXSLIT
200
.MXINIT
4 5
*CCEXCI
.NCCEXC
 1
.IONISATION
1
1
.CVSEPARA
1
1
*CCLRSD
.DIPOLE
**END OF DALTON INPUT


   Content of the .mol file
 ----------------------------

ATOMBASIS


Atomtypes=5 Charge=1 Nosymm Angstrom
   7.00000    1    Basis=6-311G**
N          0.000000        0.000000        0.000000
   1.00000    4    Basis=6-311G**
H         -0.644284        0.286531        0.786342
H         -0.351629        0.399345       -0.887845
H         -0.067066       -1.012683       -0.060356
H          0.997885        0.404708        0.086147
   8.00000    4    Basis=6-311G**
O         -0.546532        1.270024       -2.518516
O         -1.852877        0.637937        2.180724
O          2.356695        1.295328        1.049402
O          0.076529       -3.054963        1.815757
   1.00000    8    Basis=6-311G**
H          0.116350        1.022647       -3.226890
H         -1.374699        0.699211       -2.494635
H         -2.079098        1.544291        2.374078
H         -2.698077        0.206278        1.784247
H          2.252896        2.177100        0.693652
H          1.952814        1.264253        1.946555
H          0.739552       -3.712786        1.890735
H         -0.702220       -3.244002        1.257196
   0.00000    1    Basis=diffs
X          0.000000        0.000000        0.000000


       *******************************************************************
       *********** Output from DALTON general input processing ***********
       *******************************************************************

 --------------------------------------------------------------------------------
   Overall default print level:    0
   Print level for DALTON.STAT:    1

    HERMIT 1- and 2-electron integral sections will be executed
    "Old" integral transformation used (limited to max 255 basis functions)
    Wave function sections will be executed (SIRIUS module)
 --------------------------------------------------------------------------------


 Changes of defaults for *QMMM  :
 --------------------------------

 +------------------+
 |  WORD: | CHANGE: |
 +------------------+
 |   QMMM |       T |
 +------------------+
 


   ****************************************************************************
   *************** Output of molecule and basis set information ***************
   ****************************************************************************


    The two title cards from your ".mol" input:
    ------------------------------------------------------------------------
 1:                                                                         
 2:                                                                         
    ------------------------------------------------------------------------

  Coordinates are entered in Angstrom and converted to atomic units.
          - Conversion factor : 1 bohr = 0.52917721 A

  Atomic type no.    1
  --------------------
  Nuclear charge:   7.00000
  Number of symmetry independent centers:    1
  Number of basis sets to read;    2
  The basis set is "6-311G**" from the basis set library.
  Basis set file used for this atomic type with Z =   7 :
     "/zhome/9a/4/124800/source/dalton/build-mlcc/basis/6-311G**"

  Info about the basis set file: your basis has no documentation.
  Basis set: 6-311G**                                                                        

  Atomic type no.    2
  --------------------
  Nuclear charge:   1.00000
  Number of symmetry independent centers:    4
  Number of basis sets to read;    2
  The basis set is "6-311G**" from the basis set library.
  Basis set file used for this atomic type with Z =   1 :
     "/zhome/9a/4/124800/source/dalton/build-mlcc/basis/6-311G**"

  Info about the basis set file: your basis has no documentation.
  Basis set: 6-311G**                                                                        

  Atomic type no.    3
  --------------------
  Nuclear charge:   8.00000
  Number of symmetry independent centers:    4
  Number of basis sets to read;    2
  The basis set is "6-311G**" from the basis set library.
  Basis set file used for this atomic type with Z =   8 :
     "/zhome/9a/4/124800/source/dalton/build-mlcc/basis/6-311G**"

  Info about the basis set file: your basis has no documentation.
  Basis set: 6-311G**                                                                        

  Atomic type no.    4
  --------------------
  Nuclear charge:   1.00000
  Number of symmetry independent centers:    8
  Number of basis sets to read;    2
  The basis set is "6-311G**" from the basis set library.
  Basis set file used for this atomic type with Z =   1 :
     "/zhome/9a/4/124800/source/dalton/build-mlcc/basis/6-311G**"

  Info about the basis set file: your basis has no documentation.
  Basis set: 6-311G**                                                                        

  Atomic type no.    5
  --------------------
  Nuclear charge:   0.00000
  Number of symmetry independent centers:    1
  Number of basis sets to read;    2
  The basis set is "diffs" from the basis set library.
  Basis set file used for this atomic type with Z =   0 :
     "/zhome/9a/4/124800/source/dalton/build-mlcc/basis/diffs"

  Info about the basis set file: your basis has no documentation.
  Basis set: diffs                                                                           


                         SYMGRP: Point group information
                         -------------------------------

@    Point group: C1 


                                 Isotopic Masses
                                 ---------------

                           N          14.003074
                           H           1.007825
                           H           1.007825
                           H           1.007825
                           H           1.007825
                           O          15.994915
                           O          15.994915
                           O          15.994915
                           O          15.994915
                           H           1.007825
                           H           1.007825
                           H           1.007825
                           H           1.007825
                           H           1.007825
                           H           1.007825
                           H           1.007825
                           H           1.007825

                       Total mass:    90.076634 amu
                       Natural abundance:  98.500 %

 Center-of-mass coordinates (a.u.):   -0.027928    0.050510    0.935808


  Atoms and basis sets
  --------------------

  Number of atom types :    5
  Total number of atoms:   18

  label    atoms   charge   prim   cont     basis
  ----------------------------------------------------------------------
  N           1    7.0000    31    18      [11s5p1d|4s3p1d]                                   
  H           4    1.0000     8     6      [5s1p|3s1p]                                        
  O           4    8.0000    31    18      [11s5p1d|4s3p1d]                                   
  H           8    1.0000     8     6      [5s1p|3s1p]                                        
  X           1    0.0000     1     1      [1s|1s]                                            
  ----------------------------------------------------------------------
  total:     18   51.0000   252   163
  ----------------------------------------------------------------------
  Spherical harmonic basis used.

  Threshold for neglecting AO integrals:  1.00D-12


  Cartesian Coordinates (a.u.)
  ----------------------------

  Total number of coordinates:   54
  N       :     1  x   0.0000000000    2  y   0.0000000000    3  z   0.0000000000
  H       :     4  x  -1.2175203067    5  y   0.5414651163    6  z   1.4859710206
  H       :     7  x  -0.6644825076    8  y   0.7546526794    9  z  -1.6777838914
  H       :    10  x  -0.1267363723   11  y  -1.9136935214   12  z  -0.1140563100
  H       :    13  x   1.8857293542   14  y   0.7647872806   15  z   0.1627942365
  O       :    16  x  -1.0327957985   17  y   2.3999975322   18  z  -4.7593054814
  O       :    19  x  -3.5014300733   20  y   1.2055262150   21  z   4.1209711142
  O       :    22  x   4.4535081101   23  y   2.4478151620   24  z   1.9830823750
  O       :    25  x   0.1446188506   26  y  -5.7730433920   27  z   3.4312834395
  H       :    28  x   0.2198696346   29  y   1.9325227525   30  z  -6.0979383355
  H       :    31  x  -2.5978046143   32  y   1.3213172936   33  z  -4.7141769318
  H       :    34  x  -3.9289258070   35  y   2.9182870473   36  z   4.4863572194
  H       :    37  x  -5.0986265941   38  y   0.3898089256   39  z   3.3717381693
  H       :    40  x   4.2573564281   41  y   4.1141227467   42  z   1.3108123061
  H       :    43  x   3.6902836331   44  y   2.3890919227   45  z   3.6784558372
  H       :    46  x   1.3975507352   47  y  -7.0161487007   48  z   3.5729713249
  H       :    49  x  -1.3270034795   50  y  -6.1302753289   51  z   2.3757561254
  X       :    52  x   0.0000000000   53  y   0.0000000000   54  z   0.0000000000

  Max    interatomic separation is    7.0002 Angstrom (   13.2285 Bohr)
  between atoms   16 and   10, "H     " and "H     ".

  Min HX interatomic separation is    0.9370 Angstrom (    1.7707 Bohr)

  Min YX interatomic separation is    2.8731 Angstrom (    5.4293 Bohr)


  Bond distances (Angstrom):
  --------------------------

                  atom 1     atom 2       distance
                  ------     ------       --------
  bond distance:  H          N            1.056189
  bond distance:  H          N            1.035079
  bond distance:  H          N            1.016694
  bond distance:  H          N            1.080270
  bond distance:  H          O            1.001200
  bond distance:  H          O            1.006111
  bond distance:  H          O            0.953960
  bond distance:  H          O            1.028536
  bond distance:  H          O            0.956480
  bond distance:  H          O            0.984362
  bond distance:  H          O            0.936991
  bond distance:  H          O            0.976819


  Bond angles (degrees):
  ----------------------

                  atom 1     atom 2     atom 3         angle
                  ------     ------     ------         -----
  bond angle:     H          N          H            109.069
  bond angle:     H          N          H            105.913
  bond angle:     H          N          H            113.733
  bond angle:     H          N          H            108.117
  bond angle:     H          N          H            103.749
  bond angle:     H          N          H            116.029
  bond angle:     H          O          H            114.936
  bond angle:     H          O          H            106.380
  bond angle:     H          O          H            108.878
  bond angle:     H          O          H            118.295




 Principal moments of inertia (u*A**2) and principal axes
 --------------------------------------------------------

   IA     320.731545         -0.068311   -0.678189    0.731706
   IB     502.977932          0.924476    0.232698    0.301987
   IC     537.914456         -0.375070    0.697074    0.611073


 Rotational constants
 --------------------

               A                   B                   C

           1575.7072           1004.7737            939.5156 MHz
            0.052560            0.033516            0.031339 cm-1


@  Nuclear repulsion energy :  192.551947415703 Hartree

  Number of floating/multiple basis set orbitals :    1


                     .---------------------------------------.
                     | Starting in Integral Section (HERMIT) |
                     `---------------------------------------'



 ***************************************************************************************
 ****************** Output from **INTEGRALS input processing (HERMIT) ******************
 ***************************************************************************************



    *************************************************************************
    ****************** Output from HERMIT input processing ******************
    *************************************************************************


 Default print level:        1

 * Nuclear model: Point charge

 Calculation of one- and two-electron Hamiltonian integrals.

 The following one-electron property integrals are calculated as requested:
          - overlap integrals
          - dipole length integrals

 Center of mass  (bohr):     -0.027928281442      0.050509848680      0.935808423490
 Operator center (bohr):      0.000000000000      0.000000000000      0.000000000000
 Gauge origin    (bohr):      0.000000000000      0.000000000000      0.000000000000
 Dipole origin   (bohr):      0.000000000000      0.000000000000      0.000000000000
 
  *********************************** 
  QMMM electrostatic potential: 
  Multipole order                                    0
  Isotropic polarization  
  *********************************** 
 
  ---------------- 
  QMMM information 
  ---------------- 
 
  MM coordinates in au 
  -------------------- 
     1     -2.808915      7.720002     -4.725468
     2     -2.117979      6.007889     -4.433175
     3     -1.351343      8.870134     -4.619936
     4      7.268353      9.371547     11.203738
     5      6.252820      9.668459     12.755831
     6      8.681948      8.250276     11.751313
     7      3.732014      4.619774     -5.007168
     8      2.993819      5.169081     -3.439532
     9      4.380542      2.785745     -4.503809
    10     -5.646443      0.814266     -1.965665
    11     -6.480559     -0.295890     -0.778955
    12     -6.227326      2.522815     -1.403564
    13      6.203899    -11.607066     -0.711881
    14      7.297230    -11.985873      0.655244
    15      7.094691    -12.377880     -2.259120
    16     -7.194883     -5.953639     -6.617577
    17     -7.725639     -4.188714     -6.352184
    18     -8.471805     -7.153851     -7.048043
    19      3.166523      7.546459      0.261888
    20      1.817112      8.811120      0.523222
    21      4.403816      8.584928     -0.613116
    22      7.988417      8.231284     -4.366326
    23      9.479354      7.495172     -3.502925
    24      6.827647      6.779665     -5.013691
    25     -4.892629     -6.625514      2.749538
    26     -5.824501     -7.307594      1.320582
    27     -5.634857     -7.879432      4.059568
    28      1.825381     -0.169287     -8.648549
    29      2.859337     -1.583464     -7.909921
    30      2.950089      1.258578     -9.039426
    31      3.971052     -9.294578      4.594346
    32      5.652044     -8.805973      4.033961
    33      4.052493    -11.123663      4.917404
    34     -3.556924      4.753580    -11.518731
    35     -4.271565      5.583742    -10.092421
    36     -4.101214      3.006741    -11.418855
    37     -7.585206      5.454226     -0.518943
    38     -9.142332      5.755633      0.424850
    39     -7.022428      6.995322     -1.339721
    40      9.275347     -9.760715     -5.799403
    41     10.729107    -10.046092     -6.989666
    42      8.464845    -11.458307     -5.612500
    43     11.480390      3.006118     -3.352491
    44     10.990957      3.216607     -5.109120
    45     12.984420      3.934243     -3.016288
    46     10.231406     -2.008080     -1.376879
    47     10.906791     -0.718294     -2.429426
    48     10.409965     -1.389278      0.402759
    49      9.393377      9.457682      2.573214
    50      7.816733      9.171262      3.770580
    51     10.654714     10.186983      3.766942
    52      5.305565     -9.175102    -10.945417
    53      3.441596     -8.832378    -11.455406
    54      5.174010     -8.723099     -9.231303
    55     -4.278289     11.059976     -0.826315
    56     -3.997733      9.709679     -2.161941
    57     -5.846051     11.983887     -1.291201
    58    -11.570746      5.053587      2.497876
    59    -12.679626      6.511751      2.191103
    60    -11.109581      5.186856      4.294061
    61      0.995460     11.341790     -4.591630
    62      1.798190     11.467057     -2.959861
    63      2.119001     10.770056     -5.909678
    64    -10.745353      2.442067     10.861800
    65     -9.055110      2.046968     11.638094
    66    -11.293616      0.698301     10.266842
    67      1.374245      0.294506      6.222228
    68      0.830943     -0.582060      7.789954
    69     -0.417119      0.701587      5.706128
    70     10.945702     -6.991752     -1.700045
    71     10.639262     -5.114317     -1.996103
    72     10.287599     -7.958362     -3.154809
    73     -4.903520     10.455535     -8.572257
    74     -3.846466     11.999001     -8.259161
    75     -4.341542      9.086381     -7.343680
    76    -11.529499     -3.103267     10.887871
    77     -9.801082     -3.785588     10.529586
    78    -12.675775     -3.808974      9.729884
    79     -7.120027     -6.134153     10.581979
    80     -7.388060     -7.003043     12.278805
    81     -5.293198     -5.783637     10.433579
    82      0.133870    -11.494331      1.552510
    83      1.289884    -10.164002      1.331803
    84     -1.461100    -11.163230      0.679254
    85     -7.701225     -0.871241     -6.333102
    86     -9.568118     -0.999947     -6.429249
    87     -7.200501     -0.016684     -4.692626
    88      2.755406      4.947675      8.085065
    89      2.023488      3.110682      7.706827
    90      1.376580      5.978513      8.957037
    91      4.688040     -4.582760     -5.926824
    92      6.475730     -5.024035     -6.311880
    93      4.350887     -5.371552     -4.328900
    94     -1.040595     -1.363589     10.706710
    95     -1.252579     -3.107815     10.130198
    96      0.254852     -1.172018     12.172200
    97     -0.427040      8.005649     10.378561
    98     -0.850811      8.769164      8.733209
    99     -1.850220      6.990322     11.063298
   100    -10.640022     10.706111      6.340182
   101    -11.413454     11.391972      7.840995
   102    -10.232642      8.897350      6.696324
   103     10.664764      0.246388      3.468298
   104      9.441053      0.148162      4.926956
   105     10.654113      2.053620      3.122929
   106     -9.655164    -10.033202     -9.596309
   107    -10.644646    -10.143319    -11.238596
   108     -8.415483    -11.428020     -9.655499
   109      7.439984     -5.636660      8.941615
   110      6.078399     -6.550617     10.051312
   111      7.593175     -6.533828      7.359950
   112     10.439805    -10.326093     10.087335
   113      8.948301    -11.472979     10.620786
   114      9.667051     -8.630430      9.950691
   115     -7.568170     -1.621007      2.743644
   116     -7.021158     -3.315783      3.077098
   117     -9.149387     -1.121685      3.763807
   118      5.329956      3.374535    -10.851996
   119      6.308743      4.572559     -9.837102
   120      4.735153      4.484619    -12.176309
   121      8.150604     -0.293244      8.390046
   122      7.076422     -1.831392      8.321403
   123      6.783981      0.705091      9.195250
   124     -1.669235     10.140425      5.975926
   125     -0.797387     10.724462      4.486529
   126     -3.171741     11.233949      5.954856
   127     -9.545345      5.769379      7.197048
   128     -7.651286      5.613568      6.654041
   129     -9.721244      4.589139      8.617217
   130     10.353260      5.245407     -8.647440
   131     11.766038      6.226107     -7.771281
   132     11.360170      3.855888     -9.662895
   133      5.348834      0.345213     -2.987608
   134      5.070377     -1.405643     -3.820454
   135      7.229542      0.269339     -2.792936
   136     -4.979799      6.205481      4.490123
   137     -5.985568      6.414906      2.928089
   138     -3.884018      7.656620      4.890018
   139     -5.585014      0.246354    -10.967995
   140     -3.979948     -0.515204    -11.543675
   141     -6.146809     -0.145533     -9.201521
   142     -2.374600     -5.745385      8.263332
   143     -2.159052     -5.303953      6.490994
   144     -1.494768     -7.318199      8.549614
   145      0.290209     -9.806360     10.940339
   146      0.685691    -11.636565     10.789539
   147     -0.636482     -9.783356     12.378356
   148     10.633489     -1.644022     -7.657903
   149     10.924499     -2.664510     -9.139549
   150      9.448678     -0.350867     -8.409982
   151      2.874255      8.712189     -8.320774
   152      2.053390      8.834424    -10.113004
   153      2.732491      7.030887     -7.620043
   154      5.299179      8.607638      5.783798
   155      4.096892      7.190106      5.706279
   156      5.914894      8.672565      7.511769
   157      3.974733     -6.545779     -1.575378
   158      4.332394     -5.260523     -0.303928
   159      4.948849     -8.085044     -1.145138
   160      8.277297     -6.387779      3.606903
   161      7.215454     -4.950631      3.207906
   162      9.617255     -6.172331      2.386974
   163     -9.253743      8.914199     -5.206222
   164    -10.297730     10.245713     -4.606538
   165     -7.968467      9.680664     -6.283816
   166      4.917485     -2.786741      2.108298
   167      3.451779     -2.803390      3.210614
   168      5.681925     -1.095673      2.016888
   169     -6.049892    -10.287049      6.237633
   170     -7.620449    -11.417523      5.945910
   171     -6.273371     -9.484707      7.873907
   172     -7.836040     -8.649751     -1.586172
   173     -7.399604     -7.874402     -3.291861
   174     -9.696230     -8.556045     -1.582532
   175     -1.803761     -8.671160     -7.858175
   176     -1.154948     -9.571108     -6.377138
   177     -2.728447     -7.147725     -7.181035
 
  MM charges 
  ---------- 
     1     -0.674440
     2      0.337220
     3      0.337220
     4     -0.674440
     5      0.337220
     6      0.337220
     7     -0.674440
     8      0.337220
     9      0.337220
    10     -0.674440
    11      0.337220
    12      0.337220
    13     -0.674440
    14      0.337220
    15      0.337220
    16     -0.674440
    17      0.337220
    18      0.337220
    19     -0.674440
    20      0.337220
    21      0.337220
    22     -0.674440
    23      0.337220
    24      0.337220
    25     -0.674440
    26      0.337220
    27      0.337220
    28     -0.674440
    29      0.337220
    30      0.337220
    31     -0.674440
    32      0.337220
    33      0.337220
    34     -0.674440
    35      0.337220
    36      0.337220
    37     -0.674440
    38      0.337220
    39      0.337220
    40     -0.674440
    41      0.337220
    42      0.337220
    43     -0.674440
    44      0.337220
    45      0.337220
    46     -0.674440
    47      0.337220
    48      0.337220
    49     -0.674440
    50      0.337220
    51      0.337220
    52     -0.674440
    53      0.337220
    54      0.337220
    55     -0.674440
    56      0.337220
    57      0.337220
    58     -0.674440
    59      0.337220
    60      0.337220
    61     -0.674440
    62      0.337220
    63      0.337220
    64     -0.674440
    65      0.337220
    66      0.337220
    67     -0.674440
    68      0.337220
    69      0.337220
    70     -0.674440
    71      0.337220
    72      0.337220
    73     -0.674440
    74      0.337220
    75      0.337220
    76     -0.674440
    77      0.337220
    78      0.337220
    79     -0.674440
    80      0.337220
    81      0.337220
    82     -0.674440
    83      0.337220
    84      0.337220
    85     -0.674440
    86      0.337220
    87      0.337220
    88     -0.674440
    89      0.337220
    90      0.337220
    91     -0.674440
    92      0.337220
    93      0.337220
    94     -0.674440
    95      0.337220
    96      0.337220
    97     -0.674440
    98      0.337220
    99      0.337220
   100     -0.674440
   101      0.337220
   102      0.337220
   103     -0.674440
   104      0.337220
   105      0.337220
   106     -0.674440
   107      0.337220
   108      0.337220
   109     -0.674440
   110      0.337220
   111      0.337220
   112     -0.674440
   113      0.337220
   114      0.337220
   115     -0.674440
   116      0.337220
   117      0.337220
   118     -0.674440
   119      0.337220
   120      0.337220
   121     -0.674440
   122      0.337220
   123      0.337220
   124     -0.674440
   125      0.337220
   126      0.337220
   127     -0.674440
   128      0.337220
   129      0.337220
   130     -0.674440
   131      0.337220
   132      0.337220
   133     -0.674440
   134      0.337220
   135      0.337220
   136     -0.674440
   137      0.337220
   138      0.337220
   139     -0.674440
   140      0.337220
   141      0.337220
   142     -0.674440
   143      0.337220
   144      0.337220
   145     -0.674440
   146      0.337220
   147      0.337220
   148     -0.674440
   149      0.337220
   150      0.337220
   151     -0.674440
   152      0.337220
   153      0.337220
   154     -0.674440
   155      0.337220
   156      0.337220
   157     -0.674440
   158      0.337220
   159      0.337220
   160     -0.674440
   161      0.337220
   162      0.337220
   163     -0.674440
   164      0.337220
   165      0.337220
   166     -0.674440
   167      0.337220
   168      0.337220
   169     -0.674440
   170      0.337220
   171      0.337220
   172     -0.674440
   173      0.337220
   174      0.337220
   175     -0.674440
   176      0.337220
   177      0.337220
 
  MM isotropic polarizabilities in au 
  ----------------------------------- 
     1      5.739350
     2      2.308390
     3      2.308390
     4      5.739350
     5      2.308390
     6      2.308390
     7      5.739350
     8      2.308390
     9      2.308390
    10      5.739350
    11      2.308390
    12      2.308390
    13      5.739350
    14      2.308390
    15      2.308390
    16      5.739350
    17      2.308390
    18      2.308390
    19      5.739350
    20      2.308390
    21      2.308390
    22      5.739350
    23      2.308390
    24      2.308390
    25      5.739350
    26      2.308390
    27      2.308390
    28      5.739350
    29      2.308390
    30      2.308390
    31      5.739350
    32      2.308390
    33      2.308390
    34      5.739350
    35      2.308390
    36      2.308390
    37      5.739350
    38      2.308390
    39      2.308390
    40      5.739350
    41      2.308390
    42      2.308390
    43      5.739350
    44      2.308390
    45      2.308390
    46      5.739350
    47      2.308390
    48      2.308390
    49      5.739350
    50      2.308390
    51      2.308390
    52      5.739350
    53      2.308390
    54      2.308390
    55      5.739350
    56      2.308390
    57      2.308390
    58      5.739350
    59      2.308390
    60      2.308390
    61      5.739350
    62      2.308390
    63      2.308390
    64      5.739350
    65      2.308390
    66      2.308390
    67      5.739350
    68      2.308390
    69      2.308390
    70      5.739350
    71      2.308390
    72      2.308390
    73      5.739350
    74      2.308390
    75      2.308390
    76      5.739350
    77      2.308390
    78      2.308390
    79      5.739350
    80      2.308390
    81      2.308390
    82      5.739350
    83      2.308390
    84      2.308390
    85      5.739350
    86      2.308390
    87      2.308390
    88      5.739350
    89      2.308390
    90      2.308390
    91      5.739350
    92      2.308390
    93      2.308390
    94      5.739350
    95      2.308390
    96      2.308390
    97      5.739350
    98      2.308390
    99      2.308390
   100      5.739350
   101      2.308390
   102      2.308390
   103      5.739350
   104      2.308390
   105      2.308390
   106      5.739350
   107      2.308390
   108      2.308390
   109      5.739350
   110      2.308390
   111      2.308390
   112      5.739350
   113      2.308390
   114      2.308390
   115      5.739350
   116      2.308390
   117      2.308390
   118      5.739350
   119      2.308390
   120      2.308390
   121      5.739350
   122      2.308390
   123      2.308390
   124      5.739350
   125      2.308390
   126      2.308390
   127      5.739350
   128      2.308390
   129      2.308390
   130      5.739350
   131      2.308390
   132      2.308390
   133      5.739350
   134      2.308390
   135      2.308390
   136      5.739350
   137      2.308390
   138      2.308390
   139      5.739350
   140      2.308390
   141      2.308390
   142      5.739350
   143      2.308390
   144      2.308390
   145      5.739350
   146      2.308390
   147      2.308390
   148      5.739350
   149      2.308390
   150      2.308390
   151      5.739350
   152      2.308390
   153      2.308390
   154      5.739350
   155      2.308390
   156      2.308390
   157      5.739350
   158      2.308390
   159      2.308390
   160      5.739350
   161      2.308390
   162      2.308390
   163      5.739350
   164      2.308390
   165      2.308390
   166      5.739350
   167      2.308390
   168      2.308390
   169      5.739350
   170      2.308390
   171      2.308390
   172      5.739350
   173      2.308390
   174      2.308390
   175      5.739350
   176      2.308390
   177      2.308390


     ************************************************************************
     ************************** Output from HERINT **************************
     ************************************************************************



                      Nuclear contribution to dipole moments
                      --------------------------------------

                 au               Debye          C m (/(10**-30)

      x     -2.99910119        -7.62295436       -25.42743875
      y      2.30830235         5.86711898        19.57060234
      z     46.04915235       117.04526296       390.42097236



 Threshold for neglecting two-electron integrals:  1.00D-12
 HERMIT - Number of two-electron integrals written:    34209267 ( 38.3% )
 HERMIT - Megabytes written:                            391.715

  Time used in TWOINT     is       7.28 seconds
  Total CPU  time used in HERMIT:   7.51 seconds
  Total wall time used in HERMIT:   9.65 seconds


                        .----------------------------------.
                        | End of Integral Section (HERMIT) |
                        `----------------------------------'



                   .--------------------------------------------.
                   | Starting in Wave Function Section (SIRIUS) |
                   `--------------------------------------------'

NCCEXCI for singlet:    1
 CCSD_INPUT: core-val requested
 Requested number of virtual orbs per sym
                     1
 Indices of requested virtual orbs
                     1
 CCSD_INPUT: core-val requested
 Requested number of core orbs per sym
                     1
 Indices of requested core orbs
                     1

 *** Output from Huckel module :

     Using EWMO model:          T
     Using EHT  model:          F
     Number of Huckel orbitals each symmetry:   37

 EWMO - Energy Weighted Maximum Overlap - is a Huckel type method,
        which normally is better than Extended Huckel Theory.
 Reference: Linderberg and Ohrn, Propagators in Quantum Chemistry (Wiley, 1973)

 Huckel EWMO eigenvalues for symmetry :  1
          -20.684987     -20.684836     -20.684555     -20.684353     -15.675354
           -1.787724      -1.610612      -1.604288      -1.599741      -1.489127
           -0.822768      -0.817595      -0.797272      -0.787490      -0.760052
           -0.745236      -0.724825      -0.677538      -0.670742      -0.670592
           -0.665148      -0.615337      -0.588682      -0.567464      -0.557231
           -0.261743      -0.247741      -0.238265      -0.237243      -0.185741
           -0.179782      -0.176243      -0.171095      -0.163633      -0.150348
           -0.148394      -0.142021

 **********************************************************************
 *SIRIUS* a direct, restricted step, second order MCSCF program       *
 **********************************************************************

 
     Date and time (Linux)  : Thu Nov 29 03:05:18 2018
     Host name              : n-62-29-9                               

 Title lines from ".mol" input file:
                                                                             
                                                                             

 Print level on unit LUPRI =   2 is   0
 Print level on unit LUW4  =   2 is  11

@    (Integral direct) CC calculation.

@    This is a combination run starting with
@              a restricted, closed shell Hartree-Fock calculation


 Initial molecular orbitals are obtained according to
 ".MOSTART EWMO  " input option

@    QM part is embedded in an environment :

@         Model: QMMM

     Wave function specification
     ============================

     For the specification of the Coupled Cluster: see later.

@    Wave function type        --- CC ---
@    Number of closed shell electrons          50
@    Number of electrons in active shells       0
@    Total charge of the molecule               1

@    Spin multiplicity and 2 M_S                1         0
@    Total number of symmetries                 1 (point group: C1 )
@    Reference state symmetry                   1 (irrep name : A  )

     Orbital specifications
     ======================
@    Abelian symmetry species          All |    1
@                                          |  A  
                                       --- |  ---
@    Occupied SCF orbitals              25 |   25
@    Secondary orbitals                138 |  138
@    Total number of orbitals          163 |  163
@    Number of basis functions         163 |  163

     Optimization information
     ========================
@    Number of configurations                 1
@    Number of orbital rotations           3450
     ------------------------------------------
@    Total number of variables             3451

     Maximum number of Fock   iterations      0
     Maximum number of DIIS   iterations     60
     Maximum number of QC-SCF iterations     60
     Threshold for SCF convergence     1.00D-07


 Changes of defaults for CC:
 ---------------------------


 -Implicit frozen core calculation
 -Excitation energies calculated
 -One-photon absorption strengths will be calculated
 -Oscillator strengths calculated
  
* Read MO coefficients from SIRIUS.RST with label "NEWORB  " and header info: 29Nov18  REORTHO 


 ***********************************************
 ***** DIIS acceleration of SCF iterations *****
 ***********************************************

 C1-DIIS algorithm; max error vectors =    8
 -----------------------------------------------------------------------------

 *** DIIS iteration number    1
 RDSUPM called. NFMAT, ISYMDM(1:NFMAT)                     1
                     1

Calculating AOSUPINT
     (Precalculated two-electron integrals are transformed to P-supermatrix elements.
      Threshold for discarding integrals :  1.00D-12 )
  CPU  time used in FORMSUP    is   6.54 seconds
  WALL time used in FORMSUP    is  22.46 seconds

 ITDIIS, energy, error norm, change in energy, scr.thr., difden:
@ DIIS iter.   1    -360.186599426        4.00837D+00   -3.60D+02  -20    F

 (DIIS_RED) Control Parameters C2DIIS =         F NEVC =    1


 (DIIS_RED) B matrix:

               Column   1
       1      16.06705917
    ==== End of matrix output ====

 DIIS C vector; C2DIIS = F, LAMBDA = -1.61D+01
    1.000000
* Read MO coefficients from SIRIUS.RST with label "NEWORB  " and header info: 29Nov18  DIIS   1
      Virial theorem: -V/T =      2.003382
@      MULPOP N       0.14; H       0.16; H       0.18; H       0.17; H       0.17; O      -0.61; O      -0.59; O      -0.61; O      -0.65; H       0.32; 
@             H       0.34; H       0.32; H       0.33; H       0.33; H       0.33; H       0.33; H       0.33; 
   1  Level shift: doubly occupied orbital energies shifted by -2.00D-01

 DIIS Fock eigenvalues in symmetry 1
      -20.85626      -20.83204      -20.81098      -20.80192      -16.52296
       -1.76595       -1.66819       -1.65582       -1.63768       -1.61851
       -1.25126       -1.23626       -1.22097       -1.04546       -1.04443
       -1.04206       -1.01389       -0.92203       -0.89366       -0.87706
       -0.86828       -0.86519       -0.85564       -0.84152       -0.83759
       -0.03921       -0.00005        0.03226        0.05110        0.05998
        0.10430        0.12139        0.13216        0.15483        0.16443
        0.17247        0.17986        0.19634        0.22649        0.26037
        0.27696        0.40908        0.45035        0.45194        0.46086
        0.46996        0.47610        0.48607        0.50211        0.51276
        0.62707        0.66734        0.70358        0.82151        0.83914
        0.87421        0.88364        0.89448        0.93892        0.95092
        0.97036        0.98098        0.99395        1.00475        1.01219
        1.03888        1.06128        1.08817        1.20172        1.23846
        1.24341        1.29427        1.34357        1.35310        1.35952
        1.37083        1.37767        1.40282        1.47275        1.50150
        1.51911        1.54577        1.54963        1.56717        1.58572
        1.65965        1.66787        1.70081        1.70872        1.73966
        1.74869        1.80460        1.90439        1.93975        2.04325
        2.06243        2.11095        2.12305        2.14159        2.15999
        2.17706        2.19344        2.20433        2.22226        2.23233
        2.36148        2.42994        2.49474        2.50208        2.52025
        2.53953        2.57039        2.58231        2.61024        2.63083
        2.63842        2.66760        2.70343        2.72297        2.94721
        2.95914        3.02168        3.05921        3.27434        3.28432
        3.28587        3.32673        3.38178        3.40756        3.42047
        3.47012        3.47398        3.48578        3.50199        3.54503
        3.84203        3.92335        3.95479        4.00821        4.03211
        4.06111        4.06684        4.08332        4.61169        4.67680
        4.76579        5.24021        5.24299        5.30095        5.32120
        5.54961        5.62276        5.68797        5.70140        5.97199
        6.01459        6.04760        6.16619       36.28808       51.43062
       51.46308       51.46957       51.49157
 Time used in FCKEIG, thr_jaco:   5.40D-02  1.18D-01  1.71D-04
 CPU and wall times used in FCKEIG, THR_FCKEIG:   5.40D-02  1.18D-01  4.01D-02
 -----------------------------------------------------------------------------

 *** DIIS iteration number    2
 RDSUPM called. NFMAT, ISYMDM(1:NFMAT)                     1
                     1

 ITDIIS, energy, error norm, change in energy, scr.thr., difden:
@ DIIS iter.   2    -361.089722051        1.16478D+00   -9.03D-01  -20    F

 (DIIS_RED) Control Parameters C2DIIS =         F NEVC =    2


 (DIIS_RED) B matrix:

               Column   1     Column   2
       1      16.06705917
       2       0.74773562     1.35670919
    ==== End of matrix output ====

 DIIS C vector; C2DIIS = F, LAMBDA = -1.33D+00
    0.038232    0.961768
* Read MO coefficients from SIRIUS.RST with label "NEWORB  " and header info: 29Nov18  DIIS   2
      Virial theorem: -V/T =      2.001975
@      MULPOP N      -0.54; H       0.33; H       0.33; H       0.32; H       0.36; O      -0.58; O      -0.60; O      -0.56; O      -0.62; H       0.34; 
@             H       0.30; H       0.32; H       0.34; H       0.32; H       0.30; H       0.32; H       0.31; 
   2  Level shift: doubly occupied orbital energies shifted by -1.00D-01

 DIIS Fock eigenvalues in symmetry 1
      -20.79095      -20.77717      -20.77266      -20.73320      -15.66190
       -1.55539       -1.54563       -1.52216       -1.52197       -1.40733
       -0.92225       -0.91748       -0.91700       -0.90898       -0.89890
       -0.88674       -0.86834       -0.80484       -0.78620       -0.76636
       -0.75290       -0.73928       -0.71989       -0.70970       -0.70668
       -0.00005        0.03766        0.08888        0.09741        0.10570
        0.15410        0.17023        0.17414        0.19783        0.20383
        0.22568        0.24916        0.29032        0.32588        0.34225
        0.35844        0.44966        0.48511        0.48637        0.50612
        0.50954        0.52760        0.53550        0.54644        0.58115
        0.77785        0.80442        0.84871        0.85770        0.89538
        0.91556        0.94132        0.95643        0.97721        0.99448
        1.01105        1.01352        1.03692        1.03929        1.08224
        1.12142        1.16557        1.18751        1.22285        1.28185
        1.29621        1.35933        1.40184        1.41099        1.41653
        1.43170        1.45012        1.47257        1.54762        1.59678
        1.60540        1.60974        1.62620        1.65084        1.68748
        1.71872        1.74610        1.75181        1.76491        1.80131
        1.81272        1.92036        2.01464        2.04113        2.10798
        2.16242        2.17432        2.19420        2.23839        2.25082
        2.25610        2.27003        2.27620        2.29280        2.32661
        2.47222        2.54704        2.59266        2.61616        2.61778
        2.63984        2.65263        2.66415        2.69110        2.70853
        2.72980        2.74129        2.89355        2.96000        3.11723
        3.23343        3.28872        3.29461        3.31570        3.32794
        3.33352        3.37021        3.42367        3.43349        3.45246
        3.49884        3.50505        3.52237        3.53509        3.57446
        3.87043        3.95081        3.96898        4.04497        4.04590
        4.09554        4.09939        4.10949        5.02600        5.09039
        5.18040        5.25155        5.25868        5.30217        5.30886
        5.56186        5.61040        5.70107        5.70815        5.99623
        6.01515        6.07039        6.20106       37.03170       51.39467
       51.40043       51.42485       51.47149
 Time used in FCKEIG, thr_jaco:   3.40D-02  3.70D-02  4.96D-05
 CPU and wall times used in FCKEIG, THR_FCKEIG:   3.40D-02  3.80D-02  1.16D-02
 -----------------------------------------------------------------------------

 *** DIIS iteration number    3
 RDSUPM called. NFMAT, ISYMDM(1:NFMAT)                     1
                     1

 ITDIIS, energy, error norm, change in energy, scr.thr., difden:
@ DIIS iter.   3    -361.167643817        3.81386D-01   -7.79D-02  -20    F

 (DIIS_RED) Control Parameters C2DIIS =         F NEVC =    3


 (DIIS_RED) B matrix:

               Column   1     Column   2     Column   3
       1      16.06705917
       2       0.74773562     1.35670919
       3       0.84702023    -0.01582455     0.14545525
    ==== End of matrix output ====

 DIIS C vector; C2DIIS = F, LAMBDA = -9.40D-02
   -0.048780    0.107121    0.941658
* Read MO coefficients from SIRIUS.RST with label "NEWORB  " and header info: 29Nov18  DIIS   3
      Virial theorem: -V/T =      2.003209
@      MULPOP N      -0.34; H       0.29; H       0.29; H       0.26; H       0.33; O      -0.65; O      -0.67; O      -0.62; O      -0.65; H       0.38; 
@             H       0.32; H       0.35; H       0.37; H       0.35; H       0.32; H       0.34; H       0.33; 
   3  Level shift: doubly occupied orbital energies shifted by -5.00D-02

 DIIS Fock eigenvalues in symmetry 1
      -20.70548      -20.68469      -20.67633      -20.66981      -15.82894
       -1.48854       -1.47814       -1.46420       -1.45186       -1.41199
       -0.89477       -0.87674       -0.86553       -0.85607       -0.84747
       -0.84652       -0.82531       -0.73842       -0.71596       -0.69219
       -0.68932       -0.66665       -0.64747       -0.63943       -0.63534
       -0.00005        0.04042        0.09269        0.10291        0.11196
        0.15570        0.17397        0.17892        0.20248        0.20691
        0.22493        0.24819        0.28806        0.32218        0.34015
        0.35800        0.45933        0.49592        0.49833        0.51693
        0.51887        0.53779        0.54386        0.55351        0.58000
        0.76496        0.79601        0.83451        0.87232        0.90492
        0.91862        0.94732        0.96518        0.98822        1.00864
        1.02072        1.02354        1.04875        1.05079        1.09628
        1.11949        1.16020        1.17980        1.23070        1.29537
        1.30447        1.36649        1.41601        1.42447        1.42887
        1.44581        1.45899        1.48093        1.55743        1.60270
        1.61138        1.61942        1.63544        1.65451        1.69279
        1.72876        1.75083        1.76377        1.77559        1.81278
        1.82380        1.91921        2.01521        2.04392        2.12118
        2.17826        2.19038        2.19644        2.24545        2.26229
        2.26724        2.27851        2.28718        2.29700        2.32986
        2.47648        2.55057        2.59846        2.62193        2.62737
        2.64967        2.65819        2.67322        2.70308        2.71371
        2.73957        2.74401        2.86105        2.92552        3.10982
        3.18879        3.26643        3.28703        3.32542        3.33428
        3.34174        3.38344        3.44218        3.45904        3.47292
        3.52083        3.52347        3.53789        3.55987        3.59981
        3.89434        3.97556        3.99766        4.06126        4.07649
        4.11551        4.12226        4.13637        4.93719        5.00331
        5.09410        5.27348        5.28042        5.33458        5.34325
        5.57763        5.64525        5.72854        5.73631        6.02513
        6.05194        6.10103        6.21808       36.82107       51.43345
       51.44813       51.46299       51.48547
 Time used in FCKEIG, thr_jaco:   3.40D-02  3.70D-02  1.62D-05
 CPU and wall times used in FCKEIG, THR_FCKEIG:   3.40D-02  3.70D-02  3.81D-03
 -----------------------------------------------------------------------------

 *** DIIS iteration number    4
 RDSUPM called. NFMAT, ISYMDM(1:NFMAT)                     1
                     1

 ITDIIS, energy, error norm, change in energy, scr.thr., difden:
@ DIIS iter.   4    -361.178149650        9.05740D-02   -1.05D-02  -20    F

 (DIIS_RED) Control Parameters C2DIIS =         F NEVC =    4


 (DIIS_RED) B matrix:

               Column   1     Column   2     Column   3     Column   4
       1      16.06705917
       2       0.74773562     1.35670919
       3       0.84702023    -0.01582455     0.14545525
       4       0.06230193     0.07690516     0.00598287     0.00820364
    ==== End of matrix output ====

 DIIS C vector; C2DIIS = F, LAMBDA = -4.24D-03
   -0.000107   -0.058236   -0.020930    1.079273
* Read MO coefficients from SIRIUS.RST with label "NEWORB  " and header info: 29Nov18  DIIS   4
      Virial theorem: -V/T =      2.002919
@      MULPOP N      -0.41; H       0.31; H       0.30; H       0.28; H       0.35; O      -0.65; O      -0.68; O      -0.63; O      -0.67; H       0.39; 
@             H       0.33; H       0.35; H       0.38; H       0.35; H       0.33; H       0.35; H       0.34; 
   4  Level shift: doubly occupied orbital energies shifted by -1.25D-02

 DIIS Fock eigenvalues in symmetry 1
      -20.68068      -20.65997      -20.65728      -20.63447      -15.76034
       -1.45562       -1.44494       -1.42826       -1.42061       -1.36380
       -0.84748       -0.83042       -0.82166       -0.82017       -0.81303
       -0.81053       -0.79082       -0.70255       -0.67983       -0.65847
       -0.65010       -0.62946       -0.61006       -0.60043       -0.59820
       -0.00005        0.04174        0.09279        0.10216        0.11108
        0.15634        0.17418        0.17861        0.20232        0.20686
        0.22728        0.25136        0.29157        0.32759        0.34477
        0.36228        0.45928        0.49541        0.49641        0.51563
        0.51818        0.53659        0.54402        0.55430        0.58329
        0.77082        0.80149        0.84068        0.87248        0.90670
        0.92152        0.94859        0.96725        0.98758        1.00691
        1.02086        1.02321        1.04962        1.04984        1.09416
        1.12262        1.16467        1.18337        1.23051        1.29476
        1.30543        1.36766        1.41369        1.42302        1.42764
        1.44473        1.45960        1.48108        1.55732        1.60498
        1.61339        1.61896        1.63575        1.65859        1.69455
        1.72837        1.75282        1.76185        1.77483        1.81142
        1.82317        1.92364        2.01904        2.04780        2.11912
        2.17619        2.18896        2.19850        2.24613        2.26127
        2.26688        2.27923        2.28591        2.29755        2.33181
        2.47901        2.55573        2.59985        2.62611        2.62719
        2.64923        2.66076        2.67360        2.70220        2.71455
        2.73852        2.74515        2.87007        2.93556        3.11666
        3.20046        3.27638        3.29502        3.32174        3.33487
        3.34045        3.38174        3.43983        3.45604        3.46881
        3.51874        3.52117        3.53811        3.55665        3.59698
        3.89070        3.97226        3.99187        4.06126        4.07081
        4.11546        4.11907        4.13322        4.95419        5.02022
        5.11096        5.27234        5.27519        5.32776        5.33466
        5.57746        5.63645        5.72272        5.73089        6.01842
        6.04212        6.09456        6.21679       36.85181       51.42076
       51.43044       51.45055       51.48349
 Time used in FCKEIG, thr_jaco:   3.20D-02  3.40D-02  3.86D-06
 CPU and wall times used in FCKEIG, THR_FCKEIG:   3.20D-02  3.40D-02  9.06D-04
 -----------------------------------------------------------------------------

 *** DIIS iteration number    5
 RDSUPM called. NFMAT, ISYMDM(1:NFMAT)                     1
                     1

 ITDIIS, energy, error norm, change in energy, scr.thr., difden:
@ DIIS iter.   5    -361.179098805        2.80009D-02   -9.49D-04  -20    F

 (DIIS_RED) Control Parameters C2DIIS =         F NEVC =    5


 (DIIS_RED) B matrix:

               Column   1     Column   2     Column   3     Column   4     Column   5
       1      16.06705917
       2       0.74773562     1.35670919
       3       0.84702023    -0.01582455     0.14545525
       4       0.06230193     0.07690516     0.00598287     0.00820364
       5       0.02032836     0.00696731     0.00528013     0.00074973     0.00078405
    ==== End of matrix output ====

 DIIS C vector; C2DIIS = F, LAMBDA = -5.32D-04
    0.001284   -0.012223   -0.044009    0.115922    0.939025
* Read MO coefficients from SIRIUS.RST with label "NEWORB  " and header info: 29Nov18  DIIS   5
      Virial theorem: -V/T =      2.002612
@      MULPOP N      -0.40; H       0.30; H       0.30; H       0.27; H       0.34; O      -0.67; O      -0.69; O      -0.64; O      -0.68; H       0.39; 
@             H       0.33; H       0.36; H       0.38; H       0.36; H       0.33; H       0.35; H       0.34; 

 DIIS Fock eigenvalues in symmetry 1
      -20.66125      -20.64020      -20.63543      -20.62025      -15.74494
       -1.44072       -1.42988       -1.41512       -1.40494       -1.35002
       -0.83378       -0.81661       -0.80799       -0.80718       -0.79879
       -0.79653       -0.77640       -0.68811       -0.66510       -0.64308
       -0.63697       -0.61391       -0.59435       -0.58522       -0.58309
       -0.00005        0.04218        0.09304        0.10248        0.11142
        0.15663        0.17449        0.17891        0.20263        0.20703
        0.22788        0.25202        0.29245        0.32853        0.34555
        0.36305        0.45985        0.49604        0.49711        0.51619
        0.51839        0.53711        0.54450        0.55469        0.58409
        0.77195        0.80268        0.84183        0.87428        0.90789
        0.92270        0.95019        0.96846        0.98881        1.00852
        1.02165        1.02402        1.05120        1.05126        1.09575
        1.12390        1.16591        1.18453        1.23095        1.29639
        1.30697        1.36874        1.41408        1.42339        1.42791
        1.44538        1.46044        1.48187        1.55818        1.60567
        1.61404        1.61911        1.63639        1.65945        1.69521
        1.72846        1.75353        1.76214        1.77484        1.81156
        1.82349        1.92465        2.02004        2.04876        2.11979
        2.17721        2.18988        2.19949        2.24703        2.26156
        2.26769        2.28020        2.28605        2.29822        2.33257
        2.47978        2.55664        2.60033        2.62668        2.62744
        2.64964        2.66139        2.67393        2.70218        2.71496
        2.73852        2.74551        2.87118        2.93673        3.11780
        3.20182        3.27810        3.29681        3.32488        3.33571
        3.34294        3.38428        3.44225        3.45867        3.47201
        3.52153        3.52225        3.53882        3.55905        3.59957
        3.89311        3.97484        3.99511        4.06185        4.07436
        4.11629        4.12153        4.13604        4.95591        5.02192
        5.11270        5.27428        5.27866        5.33248        5.33981
        5.57858        5.64153        5.72649        5.73485        6.02194
        6.04698        6.09829        6.21759       36.85465       51.42777
       51.43948       51.45773       51.48519
 Time used in FCKEIG, thr_jaco:   2.60D-02  2.80D-02  1.19D-06
 CPU and wall times used in FCKEIG, THR_FCKEIG:   2.60D-02  2.80D-02  2.80D-04
 -----------------------------------------------------------------------------

 *** DIIS iteration number    6
 RDSUPM called. NFMAT, ISYMDM(1:NFMAT)                     1
                     1

 ITDIIS, energy, error norm, change in energy, scr.thr., difden:
@ DIIS iter.   6    -361.179172878        1.01923D-02   -7.41D-05  -20    F

 (DIIS_RED) Control Parameters C2DIIS =         F NEVC =    6


 (DIIS_RED) B matrix:

               Column   1     Column   2     Column   3     Column   4     Column   5     Column   6
       1      16.06705917
       2       0.74773562     1.35670919
       3       0.84702023    -0.01582455     0.14545525
       4       0.06230193     0.07690516     0.00598287     0.00820364
       5       0.02032836     0.00696731     0.00528013     0.00074973     0.00078405
       6      -0.00466246     0.00003470     0.00066010     0.00050320     0.00000308     0.00010388
    ==== End of matrix output ====

 DIIS C vector; C2DIIS = F, LAMBDA = -3.25D-05
    0.000737    0.005773   -0.007857   -0.123138    0.137867    0.986618
* Read MO coefficients from SIRIUS.RST with label "NEWORB  " and header info: 29Nov18  DIIS   6
      Virial theorem: -V/T =      2.002836
@      MULPOP N      -0.39; H       0.30; H       0.30; H       0.27; H       0.34; O      -0.67; O      -0.69; O      -0.64; O      -0.68; H       0.39; 
@             H       0.33; H       0.36; H       0.39; H       0.36; H       0.34; H       0.35; H       0.34; 

 DIIS Fock eigenvalues in symmetry 1
      -20.66332      -20.64231      -20.63833      -20.62063      -15.74657
       -1.44130       -1.43048       -1.41517       -1.40580       -1.35040
       -0.83416       -0.81698       -0.80839       -0.80762       -0.79947
       -0.79712       -0.77717       -0.68887       -0.66585       -0.64404
       -0.63714       -0.61425       -0.59473       -0.58523       -0.58334
       -0.00005        0.04212        0.09297        0.10232        0.11126
        0.15656        0.17438        0.17878        0.20248        0.20690
        0.22779        0.25193        0.29232        0.32843        0.34548
        0.36297        0.45962        0.49579        0.49681        0.51591
        0.51825        0.53686        0.54432        0.55455        0.58397
        0.77169        0.80243        0.84154        0.87393        0.90770
        0.92258        0.94984        0.96836        0.98839        1.00802
        1.02139        1.02372        1.05082        1.05097        1.09533
        1.12366        1.16570        1.18426        1.23090        1.29598
        1.30661        1.36845        1.41371        1.42310        1.42765
        1.44505        1.46015        1.48155        1.55786        1.60546
        1.61385        1.61892        1.63611        1.65938        1.69499
        1.72829        1.75332        1.76180        1.77466        1.81126
        1.82322        1.92453        2.01991        2.04862        2.11932
        2.17667        2.18937        2.19918        2.24670        2.26126
        2.26732        2.27985        2.28575        2.29792        2.33229
        2.47956        2.55670        2.60003        2.62659        2.62730
        2.64931        2.66122        2.67373        2.70187        2.71468
        2.73819        2.74515        2.87078        2.93636        3.11771
        3.20133        3.27752        3.29623        3.32398        3.33559
        3.34222        3.38357        3.44150        3.45788        3.47101
        3.52091        3.52176        3.53871        3.55832        3.59884
        3.89233        3.97404        3.99404        4.06167        4.07327
        4.11608        4.12077        4.13522        4.95516        5.02118
        5.11198        5.27400        5.27768        5.33121        5.33836
        5.57833        5.63999        5.72535        5.73370        6.02077
        6.04537        6.09711        6.21732       36.85305       51.42568
       51.43667       51.45564       51.48481
 Time used in FCKEIG, thr_jaco:   2.90D-02  3.10D-02  4.34D-07
 CPU and wall times used in FCKEIG, THR_FCKEIG:   2.90D-02  3.10D-02  1.02D-04
 -----------------------------------------------------------------------------

 *** DIIS iteration number    7
 RDSUPM called. NFMAT, ISYMDM(1:NFMAT)                     1
                     1

 ITDIIS, energy, error norm, change in energy, scr.thr., difden:
@ DIIS iter.   7    -361.179183400        2.13096D-03   -1.05D-05  -20    F

 (DIIS_RED) Control Parameters C2DIIS =         F NEVC =    7


 (DIIS_RED) B matrix:

               Column   1     Column   2     Column   3     Column   4     Column   5     Column   6
       1      16.06705917
       2       0.74773562     1.35670919
       3       0.84702023    -0.01582455     0.14545525
       4       0.06230193     0.07690516     0.00598287     0.00820364
       5       0.02032836     0.00696731     0.00528013     0.00074973     0.00078405
       6      -0.00466246     0.00003470     0.00066010     0.00050320     0.00000308     0.00010388
       7       0.00006350     0.00023906    -0.00002201     0.00000935     0.00004110     0.00000059

               Column   7
       7       0.00000454
    ==== End of matrix output ====

 DIIS C vector; C2DIIS = F, LAMBDA = -1.10D-06
   -0.000223   -0.000726    0.004901    0.021643   -0.103300   -0.139023    1.216728
* Read MO coefficients from SIRIUS.RST with label "NEWORB  " and header info: 29Nov18  DIIS   7
      Virial theorem: -V/T =      2.002782
@      MULPOP N      -0.39; H       0.30; H       0.30; H       0.27; H       0.34; O      -0.67; O      -0.70; O      -0.64; O      -0.68; H       0.39; 
@             H       0.33; H       0.36; H       0.39; H       0.36; H       0.34; H       0.36; H       0.34; 

 DIIS Fock eigenvalues in symmetry 1
      -20.66310      -20.64211      -20.63789      -20.62062      -15.74618
       -1.44119       -1.43037       -1.41510       -1.40561       -1.35020
       -0.83401       -0.81683       -0.80833       -0.80755       -0.79942
       -0.79703       -0.77705       -0.68885       -0.66582       -0.64394
       -0.63715       -0.61409       -0.59456       -0.58506       -0.58315
       -0.00005        0.04219        0.09300        0.10235        0.11129
        0.15660        0.17441        0.17880        0.20251        0.20692
        0.22785        0.25200        0.29240        0.32855        0.34558
        0.36307        0.45967        0.49583        0.49685        0.51595
        0.51828        0.53689        0.54436        0.55461        0.58408
        0.77181        0.80255        0.84168        0.87401        0.90777
        0.92267        0.94994        0.96845        0.98846        1.00812
        1.02145        1.02379        1.05089        1.05106        1.09541
        1.12378        1.16582        1.18438        1.23096        1.29609
        1.30673        1.36853        1.41370        1.42310        1.42766
        1.44508        1.46022        1.48159        1.55792        1.60553
        1.61392        1.61894        1.63615        1.65949        1.69506
        1.72831        1.75340        1.76181        1.77468        1.81126
        1.82323        1.92464        2.02001        2.04873        2.11934
        2.17671        2.18940        2.19929        2.24678        2.26128
        2.26737        2.27991        2.28578        2.29798        2.33236
        2.47964        2.55681        2.60008        2.62664        2.62736
        2.64932        2.66128        2.67376        2.70187        2.71473
        2.73818        2.74520        2.87095        2.93654        3.11785
        3.20153        3.27772        3.29641        3.32415        3.33565
        3.34236        3.38367        3.44161        3.45798        3.47119
        3.52106        3.52184        3.53876        3.55843        3.59894
        3.89242        3.97413        3.99421        4.06172        4.07347
        4.11614        4.12088        4.13534        4.95541        5.02144
        5.11223        5.27408        5.27782        5.33140        5.33860
        5.57838        5.64024        5.72549        5.73383        6.02090
        6.04561        6.09723        6.21736       36.85343       51.42590
       51.43709       51.45584       51.48482
 Time used in FCKEIG, thr_jaco:   3.60D-02  9.10D-02  9.07D-08
 CPU and wall times used in FCKEIG, THR_FCKEIG:   3.60D-02  9.10D-02  2.13D-05
 -----------------------------------------------------------------------------

 *** DIIS iteration number    8
 RDSUPM called. NFMAT, ISYMDM(1:NFMAT)                     1
                     1

 ITDIIS, energy, error norm, change in energy, scr.thr., difden:
@ DIIS iter.   8    -361.179183932        3.59086D-04   -5.32D-07  -20    F

 (DIIS_RED) Control Parameters C2DIIS =         F NEVC =    8


 (DIIS_RED) B matrix:

               Column   1     Column   2     Column   3     Column   4     Column   5     Column   6
       1      16.06705917
       2       0.74773562     1.35670919
       3       0.84702023    -0.01582455     0.14545525
       4       0.06230193     0.07690516     0.00598287     0.00820364
       5       0.02032836     0.00696731     0.00528013     0.00074973     0.00078405
       6      -0.00466246     0.00003470     0.00066010     0.00050320     0.00000308     0.00010388
       7       0.00006350     0.00023906    -0.00002201     0.00000935     0.00004110     0.00000059
       8       0.00009320    -0.00002933     0.00000869     0.00000184     0.00000059     0.00000143

               Column   7     Column   8
       7       0.00000454
       8       0.00000035     0.00000013
    ==== End of matrix output ====

 DIIS C vector; C2DIIS = F, LAMBDA = -7.22D-08
    0.000007    0.000004   -0.000618   -0.000467    0.014676   -0.008672   -0.211139    1.206210
* Read MO coefficients from SIRIUS.RST with label "NEWORB  " and header info: 29Nov18  DIIS   8
      Virial theorem: -V/T =      2.002796
@      MULPOP N      -0.39; H       0.30; H       0.30; H       0.27; H       0.34; O      -0.67; O      -0.70; O      -0.64; O      -0.68; H       0.39; 
@             H       0.33; H       0.36; H       0.39; H       0.36; H       0.34; H       0.36; H       0.34; 

 DIIS Fock eigenvalues in symmetry 1
      -20.66308      -20.64206      -20.63798      -20.62058      -15.74619
       -1.44118       -1.43035       -1.41508       -1.40563       -1.35020
       -0.83400       -0.81683       -0.80832       -0.80754       -0.79940
       -0.79703       -0.77706       -0.68887       -0.66582       -0.64399
       -0.63716       -0.61407       -0.59454       -0.58505       -0.58315
       -0.00005        0.04219        0.09300        0.10235        0.11128
        0.15660        0.17441        0.17880        0.20251        0.20693
        0.22785        0.25200        0.29240        0.32855        0.34558
        0.36308        0.45967        0.49583        0.49685        0.51594
        0.51828        0.53689        0.54436        0.55461        0.58408
        0.77181        0.80255        0.84167        0.87400        0.90776
        0.92268        0.94994        0.96845        0.98847        1.00811
        1.02146        1.02380        1.05089        1.05107        1.09541
        1.12377        1.16582        1.18439        1.23097        1.29609
        1.30673        1.36853        1.41370        1.42310        1.42766
        1.44507        1.46021        1.48159        1.55792        1.60553
        1.61392        1.61894        1.63615        1.65949        1.69506
        1.72831        1.75339        1.76181        1.77468        1.81126
        1.82323        1.92464        2.02002        2.04873        2.11934
        2.17670        2.18940        2.19928        2.24677        2.26128
        2.26737        2.27991        2.28578        2.29798        2.33236
        2.47964        2.55682        2.60008        2.62664        2.62737
        2.64932        2.66128        2.67376        2.70186        2.71473
        2.73818        2.74519        2.87095        2.93653        3.11785
        3.20152        3.27772        3.29641        3.32413        3.33566
        3.34235        3.38369        3.44162        3.45800        3.47116
        3.52104        3.52184        3.53877        3.55843        3.59896
        3.89242        3.97415        3.99418        4.06173        4.07344
        4.11615        4.12089        4.13535        4.95540        5.02143
[...]
 | 1 1 1 1 |  26   1   8   1 |      992        1 |       491537 |    0.099836  |
 | 1 1 1 1 |  27   1   8   1 |      993        1 |       492529 |   -0.117511  |
 | 1 1 1 1 |  12   1   9   1 |     1116        1 |       622171 |    0.066354  |
 | 1 1 1 1 |  28   1  10   1 |     1270        1 |       805816 |    0.079856  |
 | 1 1 1 1 |  27   1  12   1 |     1545        1 |      1192741 |    0.086596  |
 | 1 1 1 1 |  28   1  13   1 |     1684        1 |      1417087 |   -0.082041  |
 +=============================================================================+


          Norm of Printed Amplitude Vector :             0.8424

          Printed all single excitations greater than 0.381294

          Printed all double excitations greater than 0.064689



+======================================================================+
| contributions of excitation levels to right eigenvectors as computed |
| from the (RE|RE) self overlap                                        |
+----------------------------------------------------------------------+
| sym | multi | state |    E / eV  | % singles | % doubles | % triples |
+======================================================================+
|    1|   1   |   1   |  412.34745 |  88.1440  |  11.8560  |   0.0000  |
+======================================================================+





+======================================================================+
| contributions of excitation levels to excited states as computed     |
| from the (LE|RE) overlap                                             |
+----------------------------------------------------------------------+
| sym | multi | state |    E / eV  | % singles | % doubles | % triples |
+======================================================================+
|    1|   1   |   1   |  412.34745 |  79.0707  |  20.9293  |   0.0000  |
+======================================================================+



 --------------------------
 Symmetry class Nr.:     1
 Multiplicity      :     3
 --------------------------

 Length of Excitation vectors in this class is:   8404200
 No Excitation Energies calculated in this symmetry class
     

   *******************************************************************
   *                                                                 *
   *--------   OUTPUT FROM PROPERTY AND SYMMETRY ANALYSIS   ---------*
   *                                                                 *
   *******************************************************************



                         +-------------------------------+
                         ! REQUESTED PROPERTY OPERATORS: !
                         +-------------------------------+

             Index   Oper. Label  Symmetry  Transp.  PDBS  Atom
             --------------------------------------------------
                1     HAM0            1        1      T      0
                2     XDIPLEN         1        1      F      0
                3     YDIPLEN         1        1      F      0
                4     ZDIPLEN         1        1      F      0
             --------------------------------------------------




                         +-------------------------------+
                         ! REQUESTED EXPECTATION VALUES: !
                         +-------------------------------+

                       Index   Oper. Label  Symmetry
                       -----------------------------
                       -----------------------------




                       +------------------------------------+
                       ! REQUESTED EFFECTIVE FOCK MATRICES: !
                       +------------------------------------+

                       Index   Oper. Label  Symmetry
                       -----------------------------
                       -----------------------------




                        +----------------------------------+
                        ! REQUESTED FIRST ORDER M-VECTORS: !
                        +----------------------------------+

               Index   State Symmetry  Frequency
               --------------------------------------------------
                  1             1    1     1.515349D+01
               --------------------------------------------------


      

    *******************************************************************
    *          SOLVING COUPLED CLUSTER RESPONSE EQUATIONS             *
    *******************************************************************



 
 +======================================================================+
 !                     RHS & ETA VECTORS TO COMPUTE:                    !
 +======================================================================+
 | TYPE | # VEC. |  NEEDED FOR:                                         |
 +----------------------------------------------------------------------+
 +======================================================================+



 +======================================================================+
 !                       LINEAR EQUATIONS TO SOLVE:                     !
 +======================================================================+
 | TYPE | # VEC. |  EQUATION:                                           |
 +----------------------------------------------------------------------+
 |  M1  |    1   |  first-order ground - excited state multipliers      |
 +======================================================================+



 +======================================================================+
 !                F MATRIX TRANSFORMATIONS TO COMPUTE:                  !
 +======================================================================+
 | TYPE | # VEC. |  TRANSFORMED:                                        |
 +----------------------------------------------------------------------+
 |  FR  |    1   |  right eigenvectors (RE)                             |
 +======================================================================+





 Testing R1 list: 

 List nr.  Label     Symmetry      Frequency      T1-norm        T2-norm


 Testing L1 list: 

 List nr.  Label     Symmetry      Frequency      T1-norm        T2-norm
  Solvent 1-order response equations converged in                     0 
  solvent iterations
 SONIAPRI                     0
 CCEQ_STR: CVSEPARATION =  T
 CCEQ_STR: IONIZATION =  T
 CCEQ_STR: REMOVE_CORE =  F
 could not find required file CCM1_1___1
 IOPTSV is    33 ... program continues nevertheless.
 Vector nr.  1 of type M1  and symmetry  1 was not found on file.
     M1  start vector nr.  1 of symmetry  1 generated from gradient
 CCEQ_STR: freeze VALENCE OR VIRT
 CCEQ_SOL: CVSEPARA=     T
 CCEQ_SOL: LIONISAT=     T
 CCEQ_SOL: REMOVE_CORE =  F



 ----- COUPLED CLUSTER RESPONSE SOLVER -----

    Iter  #Vectors  time (min)   residual
    --------------------------------------
 CCRED CVS/IONIS sigma_                     1 
 project out valence occupied or virtual
      1       1         1.56     0.22E+01
 CCRED CVS/IONIS sigma_                     2 
 project out valence occupied or virtual
      2       1         1.57     0.42E+00
 CCRED CVS/IONIS sigma_                     3 
 project out valence occupied or virtual
      3       1         1.55     0.50E-01
 CCRED CVS/IONIS sigma_                     4 
 project out valence occupied or virtual
      4       1         1.49     0.50E-02
 CCRED CVS/IONIS sigma_                     5 
 project out valence occupied or virtual
                    -1  vectors with norm le:  1.000000000000000E-035  REMOVED

 CCORT,**WARNING**  number vectors added is zero after check for vector norm , NBADD :    0

 CCORT, number vectors added is zero , NBADD :    0

 CCORT, number vectors added is zero , NBADD :    0

 CCORT, number vectors added is zero , NBADD :    0

 CCORT, number vectors added is zero , NBADD :    0

 CCORT, number vectors added is zero , NBADD :    0

 *** MICROITERATIONS STOPPED DUE TO LINEAR DEPENDENCE BETWEEN ALL NEW TRIAL VECTORS
                     0  trial vectors converged
  LINEAR DEPENDENCE BETWEEN                     1  NON CONVERGED TRIAL VECTORS
      5       1         1.51     0.73E-03

 ***  CCEQ_SOL -MICROITERATIONS STOPPED  
     LINEAR DEPENDENCE BETWEEN ALL NEW TRIAL VECTORS
    --------------------------------------
    converged in  5 iterations
    threshold:    0.10E-08


         Routine          Time (min)
         ---------------------------
         CC_TRDRV            7.69
         CCRED               0.06
         CCNEX               0.09
         ---------------------------
         Total time          7.84


  Total CPU  time used in CCEQ_SOLV:  7 minutes 51 seconds
  Total wall time used in CCEQ_SOLV: 12 minutes 32 seconds


 xxxxxxxxxxxxxxxxxxxxxxxxxxxxxxxxxxxxx

 
 Solution of CC response equations completed.
 

 *******************************************************************
 *                                                                 *
 *--------  OUTPUT FROM COUPLED CLUSTER LINEAR RESPONSE   ---------*
 *                                                                 *
 *--------      CALCULATION OF SECOND ORDER RESIDUES      ---------*
 *                                                                 *
 *******************************************************************



                  +---------------------------------------------+
                  ! CC_SOPR: Calculation of CCSD       Residues !
                  +---------------------------------------------+

 Doing the Mf*CsiA
 Doing the Mf*CsiA
 Doing the Mf*CsiA


 CCSD  Right transition moments in atomic units:
 -----------------------------------------------

  1      15.153491  <XDIPLEN |f> =      -0.00000002
  1      15.153491  <YDIPLEN |f> =      -0.00000007
  1      15.153491  <ZDIPLEN |f> =       0.00000002


 CCSD  Left  transition moments in atomic units:
 -----------------------------------------------

  1      15.153491  <f|XDIPLEN > =      -0.00000001
  1      15.153491  <f|YDIPLEN > =      -0.00000003
  1      15.153491  <f|ZDIPLEN > =       0.00000001


 CCSD  linear response residue property in atomic units:
 -------------------------------------------------------

 RES{<<XDIPLEN ,XDIPLEN >>(15.153491)} =     0.00000000 (   0.00000002)
 RES{<<XDIPLEN ,YDIPLEN >>(15.153491)} =     0.00000000 (   0.00000003)
 RES{<<XDIPLEN ,ZDIPLEN >>(15.153491)} =    -0.00000000 (  -0.00000002)
 RES{<<YDIPLEN ,XDIPLEN >>(15.153491)} =     0.00000000 (   0.00000003)
 RES{<<YDIPLEN ,YDIPLEN >>(15.153491)} =     0.00000000 (   0.00000005)
 RES{<<YDIPLEN ,ZDIPLEN >>(15.153491)} =    -0.00000000 (  -0.00000003)
 RES{<<ZDIPLEN ,XDIPLEN >>(15.153491)} =    -0.00000000 (  -0.00000002)
 RES{<<ZDIPLEN ,YDIPLEN >>(15.153491)} =    -0.00000000 (  -0.00000003)
 RES{<<ZDIPLEN ,ZDIPLEN >>(15.153491)} =     0.00000000 (   0.00000002)


 CCSD  Transition strength matrix for state nr.  1 of symmetry 1
 CCSD  excitation energy:15.15349050

 Gauge: length

               Column   1     Column   2     Column   3
       1     2.734573D-16   8.116450D-16  -2.591727D-16
       2     8.116450D-16   2.409032D-15  -7.692481D-16
       3    -2.591727D-16  -7.692481D-16   2.456137D-16
    ==== End of matrix output ====

 Principal values of diagonalized transition strength matrix:

             a.u.               
 1       0.00000000
 2       0.00000000
 3       0.00000000

 Principal axis of diagonalized transition strength matrix:


               Column   1     Column   2     Column   3
       1       1.00000000     0.00000000     0.00000000
       2       0.00000000     1.00000000     0.00000000
       3       0.00000000     0.00000000     1.00000000
    ==== End of matrix output ====


 CCSD   oscillator strength matrix for state nr.  1 of symmetry 1
 CCSD  excitation energy:15.15349050


               Column   1     Column   2     Column   3
       1     2.762555D-15   8.199503D-15  -2.618247D-15
       2     8.199503D-15   2.433683D-14  -7.771195D-15
       3    -2.618247D-15  -7.771195D-15   2.481269D-15
    ==== End of matrix output ====

 Principal values of diagonalized oscillator strength matrix:

             a.u.               
 1       0.00000000
 2       0.00000000
 3       0.00000000

 Principal axis of diagonalized oscillator strength matrix:


               Column   1     Column   2     Column   3
       1       1.00000000     0.00000000     0.00000000
       2       0.00000000     1.00000000     0.00000000
       3       0.00000000     0.00000000     1.00000000
    ==== End of matrix output ====

  Total time for      9 linear response residues:       3.46 seconds.
  

 *******************************************************************************
 *******************************************************************************
 *                                                                             *
 *                                                                             *
 *                   SUMMARY OF COUPLED CLUSTER CALCULATION                    *
 *                                                                             *
 *                                                                             *
 *******************************************************************************
 *******************************************************************************

                                                                                
                                                                                
            Total SCF   energy:                  -361.1791839503                
            Total MP2   energy:                  -362.2799120937                
            Total CCSD  energy:                  -362.3215955238                
                                                                                
                                                                                
            Total SCF   energy:                  -361.1791839503                
            Total RSTAR energy:                  -362.3215955238                
            Total CCSD  energy:                  -362.3217109701                
                                                                                
                                                                                
            Total SCF   energy:                  -361.1791839503                
            Total RSTAR energy:                  -362.3217109701                
            Total CCSD  energy:                  -362.3217108966                
                                                                                
                                                                                
            Total SCF   energy:                  -361.1791839503                
            Total RSTAR energy:                  -362.3217108966                
            Total CCSD  energy:                  -362.3217109728                
                                                                                
                                                                                
            Total SCF   energy:                  -361.1791839503                
            Total RSTAR energy:                  -362.3217109728                
            Total CCSD  energy:                  -362.3217109731                
                                                                                
                                                                                
            Total SCF   energy:                  -361.1791839503                
            Total RSTAR energy:                  -362.3217109731                
            Total CCSD  energy:                  -362.3217109731                
            CCSD Total  energy:                  -362.7273280220                
            CCSD E(QM/MM)     :                    -0.4014474474                
                                                                                
                                                                                
                                                                                
 +=============================================================================+
 |  sym. | Exci.  |        CCSD       Excitation energies            | ||T1||  |
 |(spin, |        +------------------------------------------------------------+
 | spat) |        |     Hartree    |       eV.      |     cm-1       |    %    |
 +=============================================================================+
 | ^1A   |    1   |    15.1534905  |     412.34745  |   3325806.712  |  88.14  |
 +=============================================================================+
                                                                                
                                                                                
     Total energies in Hartree:                                                 
             1 ^1A       -347.1723900702                                        
                                                                                
                                                                                
 +=============================================================================+
 |  sym. | Exci.  |        CCSD       Length   Gauge Oscillator Strength       |
 |(spin, |        +------------------------------------------------------------+
 | spat) |        | Dipole Strength(a.u.) | Oscillator strength  | Direction   |
 +=============================================================================+
 | ^1A   |    1   |        0.0000000      |      0.0000000       |    -        |
 +=============================================================================+

  1 a.u. =        27.21138 eV.  
  1 a.u. =    219474.62934 cm-1.
  

 *******************************************************************************
 *******************************************************************************
 *                                                                             *
 *                                                                             *
 *                      END OF COUPLED CLUSTER CALCULATION                     *
 *                                                                             *
 *                                                                             *
 *******************************************************************************
 *******************************************************************************


 CPU and wall time for CC :    7104.191   11436.258

 
     Date and time (Linux)  : Thu Nov 29 06:19:15 2018
     Host name              : n-62-29-9                               


                      .-------------------------------------.
                      | End of Coupled Cluster Section (CC) |
                      `-------------------------------------'

  Total CPU  time used in DALTON:   2 hours  0 minutes 47 seconds
  Total wall time used in DALTON:   3 hours 14 minutes  7 seconds

 
     Date and time (Linux)  : Thu Nov 29 06:19:15 2018
     Host name              : n-62-29-9                               
  

 +---------------------------------------------------------+ 
 | List of selected calculated molecular properties (a.u.) | 
 +---------------------------------------------------------+ 

  Properties are read from unit number                      4

 CCSD       properties :
 #  1 1 CCSD/MM  Ground state Energy =    -362.7273280220
 #  2 1 E_QM/MM  Ground state Energy =      -0.4014474474
 #  3 1 Sy: 1 Sp: 1 Exc:  1 E_tot:   -347.1723900702 w:     15.1534905044 E_grs:   -362.3258805746
 #  4 1 Exctot   Excited state Energy =    -347.1723900702
 #  5 1 |<O|XDIPLEN |i(15.153491)>| =     0.00000002
 #  7 1 |<O|YDIPLEN |i(15.153491)>| =     0.00000005
 #  9 1 |<O|ZDIPLEN |i(15.153491)>| =     0.00000002

 THE_END   
