

     ************************************************************************
     *************** Dalton - An Electronic Structure Program ***************
     ************************************************************************

    This is output from DALTON release Dalton2017.alpha (2016)
         ( Web site: http://daltonprogram.org )

   ----------------------------------------------------------------------------

    NOTE:
     
    Dalton is an experimental code for the evaluation of molecular
    properties using (MC)SCF, DFT, CI, and CC wave functions.
    The authors accept no responsibility for the performance of
    the code or for the correctness of the results.
     
    The code (in whole or part) is provided under a licence and
    is not to be reproduced for further distribution without
    the written permission of the authors or their representatives.
     
    See the home page "http://daltonprogram.org" for further information.
     
    If results obtained with this code are published,
    the appropriate citations would be both of:
     
       K. Aidas, C. Angeli, K. L. Bak, V. Bakken, R. Bast,
       L. Boman, O. Christiansen, R. Cimiraglia, S. Coriani,
       P. Dahle, E. K. Dalskov, U. Ekstroem,
       T. Enevoldsen, J. J. Eriksen, P. Ettenhuber, B. Fernandez,
       L. Ferrighi, H. Fliegl, L. Frediani, K. Hald, A. Halkier,
       C. Haettig, H. Heiberg, T. Helgaker, A. C. Hennum,
       H. Hettema, E. Hjertenaes, S. Hoest, I.-M. Hoeyvik,
       M. F. Iozzi, B. Jansik, H. J. Aa. Jensen, D. Jonsson,
       P. Joergensen, J. Kauczor, S. Kirpekar,
       T. Kjaergaard, W. Klopper, S. Knecht, R. Kobayashi, H. Koch,
       J. Kongsted, A. Krapp, K. Kristensen, A. Ligabue,
       O. B. Lutnaes, J. I. Melo, K. V. Mikkelsen, R. H. Myhre,
       C. Neiss, C. B. Nielsen, P. Norman, J. Olsen,
       J. M. H. Olsen, A. Osted, M. J. Packer, F. Pawlowski,
       T. B. Pedersen, P. F. Provasi, S. Reine, Z. Rinkevicius,
       T. A. Ruden, K. Ruud, V. Rybkin, P. Salek, C. C. M. Samson,
       A. Sanchez de Meras, T. Saue, S. P. A. Sauer,
       B. Schimmelpfennig, K. Sneskov, A. H. Steindal,
       K. O. Sylvester-Hvid, P. R. Taylor, A. M. Teale,
       E. I. Tellgren, D. P. Tew, A. J. Thorvaldsen, L. Thoegersen,
       O. Vahtras, M. A. Watson, D. J. D. Wilson, M. Ziolkowski
       and H. Agren,
       "The Dalton quantum chemistry program system",
       WIREs Comput. Mol. Sci. 2014, 4:269–284 (doi: 10.1002/wcms.1172)
     
    and
     
       Dalton, a Molecular Electronic Structure Program,
       Release Dalton2017.alpha (2016), see http://daltonprogram.org
   ----------------------------------------------------------------------------

    Authors in alphabetical order (major contribution(s) in parenthesis):

  Kestutis Aidas,           Vilnius University,           Lithuania   (QM/MM)
  Celestino Angeli,         University of Ferrara,        Italy       (NEVPT2)
  Keld L. Bak,              UNI-C,                        Denmark     (AOSOPPA, non-adiabatic coupling, magnetic properties)
  Vebjoern Bakken,          University of Oslo,           Norway      (DALTON; geometry optimizer, symmetry detection)
  Radovan Bast,             UiT The Arctic U. of Norway,  Norway      (DALTON installation and execution frameworks)
  Pablo Baudin,             University of Valencia,       Spain       (Cholesky excitation energies)
  Linus Boman,              NTNU,                         Norway      (Cholesky decomposition and subsystems)
  Ove Christiansen,         Aarhus University,            Denmark     (CC module)
  Renzo Cimiraglia,         University of Ferrara,        Italy       (NEVPT2)
  Sonia Coriani,            University of Trieste,        Italy       (CC module, MCD in RESPONS)
  Janusz Cukras,            University of Trieste,        Italy       (MChD in RESPONS)
  Paal Dahle,               University of Oslo,           Norway      (Parallelization)
  Erik K. Dalskov,          UNI-C,                        Denmark     (SOPPA)
  Thomas Enevoldsen,        Univ. of Southern Denmark,    Denmark     (SOPPA)
  Janus J. Eriksen,         Aarhus University,            Denmark     (Polarizable embedding model, TDA)
  Rasmus Faber,             University of Copenhagen,     Denmark     (Vib.avg. NMR with SOPPA, parallel AO-SOPPA)
  Berta Fernandez,          U. of Santiago de Compostela, Spain       (doublet spin, ESR in RESPONS)
  Lara Ferrighi,            Aarhus University,            Denmark     (PCM Cubic response)
  Heike Fliegl,             University of Oslo,           Norway      (CCSD(R12))
  Luca Frediani,            UiT The Arctic U. of Norway,  Norway      (PCM)
  Bin Gao,                  UiT The Arctic U. of Norway,  Norway      (Gen1Int library)
  Christof Haettig,         Ruhr-University Bochum,       Germany     (CC module)
  Kasper Hald,              Aarhus University,            Denmark     (CC module)
  Asger Halkier,            Aarhus University,            Denmark     (CC module)
  Frederik Beyer Hansen,    University of Copenhagen,     Denmark     (Parallel AO-SOPPA)
  Erik D. Hedegaard,        Univ. of Southern Denmark,    Denmark     (Polarizable embedding model, QM/MM)
  Hanne Heiberg,            University of Oslo,           Norway      (geometry analysis, selected one-electron integrals)
  Trygve Helgaker,          University of Oslo,           Norway      (DALTON; ABACUS, ERI, DFT modules, London, and much more)
  Alf Christian Hennum,     University of Oslo,           Norway      (Parity violation)
  Hinne Hettema,            University of Auckland,       New Zealand (quadratic response in RESPONS; SIRIUS supersymmetry)
  Eirik Hjertenaes,         NTNU,                         Norway      (Cholesky decomposition)
  Pi A. B. Haase,           University of Copenhagen,     Denmark     (Triplet AO-SOPPA)
  Maria Francesca Iozzi,    University of Oslo,           Norway      (RPA)
  Brano Jansik              Technical Univ. of Ostrava    Czech Rep.  (DFT cubic response)
  Hans Joergen Aa. Jensen,  Univ. of Southern Denmark,    Denmark     (DALTON; SIRIUS, RESPONS, ABACUS modules, London, and much more)
  Dan Jonsson,              UiT The Arctic U. of Norway,  Norway      (cubic response in RESPONS module)
  Poul Joergensen,          Aarhus University,            Denmark     (RESPONS, ABACUS, and CC modules)
  Maciej Kaminski,          University of Warsaw,         Poland      (CPPh in RESPONS)
  Joanna Kauczor,           Linkoeping University,        Sweden      (Complex polarization propagator (CPP) module)
  Sheela Kirpekar,          Univ. of Southern Denmark,    Denmark     (Mass-velocity & Darwin integrals)
  Wim Klopper,              KIT Karlsruhe,                Germany     (R12 code in CC, SIRIUS, and ABACUS modules)
  Stefan Knecht,            ETH Zurich,                   Switzerland (Parallel CI and MCSCF)
  Rika Kobayashi,           Australian National Univ.,    Australia   (DIIS in CC, London in MCSCF)
  Henrik Koch,              NTNU,                         Norway      (CC module, Cholesky decomposition)
  Jacob Kongsted,           Univ. of Southern Denmark,    Denmark     (Polarizable embedding model, QM/MM)
  Andrea Ligabue,           University of Modena,         Italy       (CTOCD, AOSOPPA)
  Nanna H. List             Univ. of Southern Denmark,    Denmark     (Polarizable embedding model)
  Ola B. Lutnaes,           University of Oslo,           Norway      (DFT Hessian)
  Juan I. Melo,             University of Buenos Aires,   Argentina   (LRESC, Relativistic Effects on NMR Shieldings)
  Kurt V. Mikkelsen,        University of Copenhagen,     Denmark     (MC-SCRF and QM/MM)
  Rolf H. Myhre,            NTNU,                         Norway      (Cholesky, subsystems and ECC2)
  Christian Neiss,          Univ. Erlangen-Nuernberg,     Germany     (CCSD(R12))
  Christian B. Nielsen,     University of Copenhagen,     Denmark     (QM/MM)
  Patrick Norman,           Linkoeping University,        Sweden      (Cubic response and complex frequency response in RESPONS)
  Jeppe Olsen,              Aarhus University,            Denmark     (SIRIUS CI/density modules)
  Jogvan Magnus H. Olsen,   Univ. of Southern Denmark,    Denmark     (Polarizable embedding model, QM/MM)
  Anders Osted,             Copenhagen University,        Denmark     (QM/MM)
  Martin J. Packer,         University of Sheffield,      UK          (SOPPA)
  Filip Pawlowski,          Kazimierz Wielki University,  Poland      (CC3)
  Morten N. Pedersen,       Univ. of Southern Denmark,    Denmark     (Polarizable embedding model)
  Thomas B. Pedersen,       University of Oslo,           Norway      (Cholesky decomposition)
  Patricio F. Provasi,      University of Northeastern,   Argentina   (Analysis of coupling constants in localized orbitals)
  Zilvinas Rinkevicius,     KTH Stockholm,                Sweden      (open-shell DFT, ESR)
  Elias Rudberg,            KTH Stockholm,                Sweden      (DFT grid and basis info)
  Torgeir A. Ruden,         University of Oslo,           Norway      (Numerical derivatives in ABACUS)
  Kenneth Ruud,             UiT The Arctic U. of Norway,  Norway      (DALTON; ABACUS magnetic properties and much more)
  Pawel Salek,              KTH Stockholm,                Sweden      (DALTON; DFT code)
  Claire C. M. Samson       University of Karlsruhe       Germany     (Boys localization, r12 integrals in ERI)
  Alfredo Sanchez de Meras, University of Valencia,       Spain       (CC module, Cholesky decomposition)
  Trond Saue,               Paul Sabatier University,     France      (direct Fock matrix construction)
  Stephan P. A. Sauer,      University of Copenhagen,     Denmark     (SOPPA(CCSD), SOPPA prop., AOSOPPA, vibrational g-factors)
  Bernd Schimmelpfennig,    Forschungszentrum Karlsruhe,  Germany     (AMFI module)
  Kristian Sneskov,         Aarhus University,            Denmark     (Polarizable embedding model, QM/MM)
  Arnfinn H. Steindal,      UiT The Arctic U. of Norway,  Norway      (parallel QM/MM, Polarizable embedding model)
  Casper Steinmann,         Univ. of Southern Denmark,    Denmark     (QFIT, Polarizable embedding model)
  K. O. Sylvester-Hvid,     University of Copenhagen,     Denmark     (MC-SCRF)
  Peter R. Taylor,          VLSCI/Univ. of Melbourne,     Australia   (Symmetry handling ABACUS, integral transformation)
  Andrew M. Teale,          University of Nottingham,     England     (DFT-AC, DFT-D)
  David P. Tew,             University of Bristol,        England     (CCSD(R12))
  Olav Vahtras,             KTH Stockholm,                Sweden      (triplet response, spin-orbit, ESR, TDDFT, open-shell DFT)
  David J. Wilson,          La Trobe University,          Australia   (DFT Hessian and DFT magnetizabilities)
  Hans Agren,               KTH Stockholm,                Sweden      (SIRIUS module, RESPONS, MC-SCRF solvation model)
 --------------------------------------------------------------------------------

     Date and time (Linux)  : Sun Dec  2 17:03:38 2018
     Host name              : n-62-23-31                              

 * Work memory size             :  1280000000 =  9.537 gigabytes.

 * Directories for basis set searches:
   1) /zhome/d7/7/119775/My_Codes/dalton-private/build2016/basis/diffs
   2) /zhome/37/3/129401/NH3NH4/CCSD/AIMD_SAMPLING/nh4_4h2o_nd
   3) /zhome/9a/4/124800/source/dalton/build-mlcc/basis


Compilation information
-----------------------

 Who compiled             | rfaber
 Host                     | hpclogin1
 System                   | Linux-2.6.32-696.1.1.el6.x86_64
 CMake generator          | Unix Makefiles
 Processor                | x86_64
 64-bit integers          | ON
 MPI                      | OFF
 Fortran compiler         | /opt/intel/2016update2/compilers_and_libraries_201
                          | 6.2.181/linux/bin/intel64/ifort
 Fortran compiler version | ifort (IFORT) 16.0.2 20160204
 C compiler               | /opt/intel/2016update2/compilers_and_libraries_201
                          | 6.2.181/linux/bin/intel64/icc
 C compiler version       | icc (ICC) 16.0.2 20160204
 C++ compiler             | /opt/intel/2016update2/compilers_and_libraries_201
                          | 6.2.181/linux/bin/intel64/icpc
 C++ compiler version     | icpc (ICC) 16.0.2 20160204
 Static linking           | OFF
 Last Git revision        | bb4d1599ca5680a9f3980451fc8bbefdba436d59
 Git branch               | mlcc
 Configuration time       | 2017-06-13 16:11:03.928841


   Content of the .dal input file
 ----------------------------------

**DALTON
.RUN WAVE FUNCTIONS
*QMMM
.QMMM
**INTEGRALS
.DIPLEN
**WAVE FUNCTIONS
.CC
*PRINT
!To check the origin of excit
.PRINTL
   0 11
*SCF INP
.THRESH
1.0D-7
!*ORBITAL INPUT
!.MOSTART
!NEWORB
*CC INP
!.RESTART
.CCSD
.THRLEQ
 1.0D-9
.THRENR
 1.0D-10
.FROIMP
4
0
.PRINT
 1
.MAX IT
 1200
.MAXRED
 1200
.MXLRV
1199
*CCSLV
.CCMM
.MXSLIT
200
.MXINIT
4 5
*CCEXCI
.NCCEXC
 1
.IONISATION
1
1
.CVSEPARA
1
1
*CCLRSD
.DIPOLE
**END OF DALTON INPUT


   Content of the .mol file
 ----------------------------

ATOMBASIS


Atomtypes=5 Charge=1 Nosymm Angstrom
   7.00000    1    Basis=6-311G**
N          0.000000        0.000000        0.000000
   1.00000    4    Basis=6-311G**
H          0.169658        0.533640       -0.960242
H          0.868701       -0.510246        0.213792
H         -0.829724       -0.680110       -0.103976
H         -0.222591        0.782351        0.720833
   8.00000    4    Basis=6-311G**
O          0.378635        2.111149       -1.938174
O         -2.209121       -1.713051       -0.365374
O         -1.019192       -0.877272        2.529194
O          2.485479       -1.240924       -0.568657
   1.00000    8    Basis=6-311G**
H          0.178869        1.577189       -2.765280
H          1.365873        2.114224       -2.092742
H         -2.122312       -2.534327        0.180500
H         -2.801599       -1.066157        0.083793
H         -0.832628       -0.145704        3.193541
H         -0.259142       -1.517853        2.592894
H          2.364837       -2.141958       -0.101038
H          3.445225       -1.237721       -0.599010
   0.00000    1    Basis=diffs
X          0.000000        0.000000        0.000000


       *******************************************************************
       *********** Output from DALTON general input processing ***********
       *******************************************************************

 --------------------------------------------------------------------------------
   Overall default print level:    0
   Print level for DALTON.STAT:    1

    HERMIT 1- and 2-electron integral sections will be executed
    "Old" integral transformation used (limited to max 255 basis functions)
    Wave function sections will be executed (SIRIUS module)
 --------------------------------------------------------------------------------


 Changes of defaults for *QMMM  :
 --------------------------------

 +------------------+
 |  WORD: | CHANGE: |
 +------------------+
 |   QMMM |       T |
 +------------------+
 


   ****************************************************************************
   *************** Output of molecule and basis set information ***************
   ****************************************************************************


    The two title cards from your ".mol" input:
    ------------------------------------------------------------------------
 1:                                                                         
 2:                                                                         
    ------------------------------------------------------------------------

  Coordinates are entered in Angstrom and converted to atomic units.
          - Conversion factor : 1 bohr = 0.52917721 A

  Atomic type no.    1
  --------------------
  Nuclear charge:   7.00000
  Number of symmetry independent centers:    1
  Number of basis sets to read;    2
  The basis set is "6-311G**" from the basis set library.
  Basis set file used for this atomic type with Z =   7 :
     "/zhome/9a/4/124800/source/dalton/build-mlcc/basis/6-311G**"

  Info about the basis set file: your basis has no documentation.
  Basis set: 6-311G**                                                                        

  Atomic type no.    2
  --------------------
  Nuclear charge:   1.00000
  Number of symmetry independent centers:    4
  Number of basis sets to read;    2
  The basis set is "6-311G**" from the basis set library.
  Basis set file used for this atomic type with Z =   1 :
     "/zhome/9a/4/124800/source/dalton/build-mlcc/basis/6-311G**"

  Info about the basis set file: your basis has no documentation.
  Basis set: 6-311G**                                                                        

  Atomic type no.    3
  --------------------
  Nuclear charge:   8.00000
  Number of symmetry independent centers:    4
  Number of basis sets to read;    2
  The basis set is "6-311G**" from the basis set library.
  Basis set file used for this atomic type with Z =   8 :
     "/zhome/9a/4/124800/source/dalton/build-mlcc/basis/6-311G**"

  Info about the basis set file: your basis has no documentation.
  Basis set: 6-311G**                                                                        

  Atomic type no.    4
  --------------------
  Nuclear charge:   1.00000
  Number of symmetry independent centers:    8
  Number of basis sets to read;    2
  The basis set is "6-311G**" from the basis set library.
  Basis set file used for this atomic type with Z =   1 :
     "/zhome/9a/4/124800/source/dalton/build-mlcc/basis/6-311G**"

  Info about the basis set file: your basis has no documentation.
  Basis set: 6-311G**                                                                        

  Atomic type no.    5
  --------------------
  Nuclear charge:   0.00000
  Number of symmetry independent centers:    1
  Number of basis sets to read;    2
  The basis set is "diffs" from the basis set library.
  Basis set file used for this atomic type with Z =   0 :
     "/zhome/9a/4/124800/source/dalton/build-mlcc/basis/diffs"

  Info about the basis set file: your basis has no documentation.
  Basis set: diffs                                                                           


                         SYMGRP: Point group information
                         -------------------------------

@    Point group: C1 


                                 Isotopic Masses
                                 ---------------

                           N          14.003074
                           H           1.007825
                           H           1.007825
                           H           1.007825
                           H           1.007825
                           O          15.994915
                           O          15.994915
                           O          15.994915
                           O          15.994915
                           H           1.007825
                           H           1.007825
                           H           1.007825
                           H           1.007825
                           H           1.007825
                           H           1.007825
                           H           1.007825
                           H           1.007825

                       Total mass:    90.076634 amu
                       Natural abundance:  98.500 %

 Center-of-mass coordinates (a.u.):   -0.094192   -0.679246   -0.107424


  Atoms and basis sets
  --------------------

  Number of atom types :    5
  Total number of atoms:   18

  label    atoms   charge   prim   cont     basis
  ----------------------------------------------------------------------
  N           1    7.0000    31    18      [11s5p1d|4s3p1d]                                   
  H           4    1.0000     8     6      [5s1p|3s1p]                                        
  O           4    8.0000    31    18      [11s5p1d|4s3p1d]                                   
  H           8    1.0000     8     6      [5s1p|3s1p]                                        
  X           1    0.0000     1     1      [1s|1s]                                            
  ----------------------------------------------------------------------
  total:     18   51.0000   252   163
  ----------------------------------------------------------------------
  Spherical harmonic basis used.

  Threshold for neglecting AO integrals:  1.00D-12


  Cartesian Coordinates (a.u.)
  ----------------------------

  Total number of coordinates:   54
  N       :     1  x   0.0000000000    2  y   0.0000000000    3  z   0.0000000000
  H       :     4  x   0.3206071549    5  y   1.0084334493    6  z  -1.8145943937
  H       :     7  x   1.6416069745    8  y  -0.9642251964    9  z   0.4040083277
  H       :    10  x  -1.5679511193   11  y  -1.2852216349   12  z  -0.1964861636
  H       :    13  x  -0.4206360279   14  y   1.4784291236   15  z   1.3621769519
  O       :    16  x   0.7155164513   17  y   3.9894934191   18  z  -3.6626180426
  O       :    19  x  -4.1746336670   20  y  -3.2371972281   21  z  -0.6904567932
  O       :    22  x  -1.9259937488   23  y  -1.6578038171   24  z   4.7794839770
  O       :    25  x   4.6968745994   26  y  -2.3450065019   27  z  -1.0746059891
  H       :    28  x   0.3380134223   29  y   2.9804552574   30  z  -5.2256218589
  H       :    31  x   2.5811258915   32  y   3.9953043269   33  z  -3.9547092303
  H       :    34  x  -4.0105884318   35  y  -4.7891839412   36  z   0.3410955656
  H       :    37  x  -5.2942548221   38  y  -2.0147447362   39  z   0.1583458212
  H       :    40  x  -1.5734388840   41  y  -0.2753406553   42  z   6.0349178589
  H       :    43  x  -0.4897074075   44  y  -2.8683264680   45  z   4.8998595311
  H       :    46  x   4.4688942603   47  y  -4.0477139912   48  z  -0.1909341482
  H       :    49  x   6.5105316890   50  y  -2.3389537092   51  z  -1.1319648461
  X       :    52  x   0.0000000000   53  y   0.0000000000   54  z   0.0000000000

  Max    interatomic separation is    6.2864 Angstrom (   11.8795 Bohr)
  between atoms   17 and   13, "H     " and "H     ".

  Min HX interatomic separation is    0.9602 Angstrom (    1.8146 Bohr)

  Min YX interatomic separation is    2.8193 Angstrom (    5.3276 Bohr)


  Bond distances (Angstrom):
  --------------------------

                  atom 1     atom 2       distance
                  ------     ------       --------
  bond distance:  H          N            1.111585
  bond distance:  H          N            1.029903
  bond distance:  H          N            1.077869
  bond distance:  H          N            1.086839
  bond distance:  H          O            1.004552
  bond distance:  H          O            0.999270
  bond distance:  H          O            0.989954
  bond distance:  H          O            0.985522
  bond distance:  H          O            1.005661
  bond distance:  H          O            0.996031
  bond distance:  H          O            1.022294
  bond distance:  H          O            0.960231


  Bond angles (degrees):
  ----------------------

                  atom 1     atom 2     atom 3         angle
                  ------     ------     ------         -----
  bond angle:     H          N          H            106.764
  bond angle:     H          N          H            109.699
  bond angle:     H          N          H            104.988
  bond angle:     H          N          H            110.898
  bond angle:     H          N          H            113.060
  bond angle:     H          N          H            111.132
  bond angle:     H          O          H             94.057
  bond angle:     H          O          H            110.240
  bond angle:     H          O          H            106.501
  bond angle:     H          O          H             97.779




 Principal moments of inertia (u*A**2) and principal axes
 --------------------------------------------------------

   IA     258.491397         -0.595074   -0.487429    0.638983
   IB     426.303218          0.789548   -0.502973    0.351615
   IC     512.467934          0.150004    0.713745    0.684154


 Rotational constants
 --------------------

               A                   B                   C

           1955.1096           1185.4919            986.1671 MHz
            0.065215            0.039544            0.032895 cm-1


@  Nuclear repulsion energy :  201.451458138632 Hartree

  Number of floating/multiple basis set orbitals :    1


                     .---------------------------------------.
                     | Starting in Integral Section (HERMIT) |
                     `---------------------------------------'



 ***************************************************************************************
 ****************** Output from **INTEGRALS input processing (HERMIT) ******************
 ***************************************************************************************



    *************************************************************************
    ****************** Output from HERMIT input processing ******************
    *************************************************************************


 Default print level:        1

 * Nuclear model: Point charge

 Calculation of one- and two-electron Hamiltonian integrals.

 The following one-electron property integrals are calculated as requested:
          - overlap integrals
          - dipole length integrals

 Center of mass  (bohr):     -0.094191841938     -0.679245606316     -0.107423989536
 Operator center (bohr):      0.000000000000      0.000000000000      0.000000000000
 Gauge origin    (bohr):      0.000000000000      0.000000000000      0.000000000000
 Dipole origin   (bohr):      0.000000000000      0.000000000000      0.000000000000
 
  *********************************** 
  QMMM electrostatic potential: 
  Multipole order                                    0
  Isotropic polarization  
  *********************************** 
 
  ---------------- 
  QMMM information 
  ---------------- 
 
  MM coordinates in au 
  -------------------- 
     1    -11.183955      7.007995     -7.465688
     2    -12.741866      7.987175     -7.920933
     3    -11.779549      5.224526     -7.537341
     4      6.090071      4.670112     -4.053412
     5      7.458227      5.774578     -3.108027
     6      7.127028      3.488939     -5.081477
     7      9.022622      7.908621     -1.661734
     8      9.010526      7.106670      0.076906
     9     10.966857      8.109132     -2.027610
    10      9.063754     -5.654992    -10.788516
    11      8.667626     -6.475969    -12.477181
    12     11.060248     -5.283447    -10.760985
    13      4.042086      3.758096      1.895994
    14      3.455170      5.486328      1.635913
    15      4.564626      3.409519      0.131682
    16     -9.543899      8.272732     -2.363758
    17     -9.435932      7.734513     -4.154733
    18     -9.290198     10.175875     -2.186364
    19      0.670690     -6.910683      4.149746
    20     -0.357039     -8.403824      3.596296
    21      0.295716     -6.799745      5.904655
    22      6.396043     -0.985713    -10.806439
    23      5.438683     -1.233301     -9.190222
    24      7.651894     -2.420363    -10.695215
    25      7.397862    -11.436348      5.276331
    26      9.088831    -11.325983      4.228867
    27      7.926347    -12.556703      6.660646
    28     -1.427750      6.932651     -9.277503
    29     -1.357207      8.431482    -10.319278
    30     -2.948065      5.815150     -9.850058
    31     -7.877074      0.525089      0.533029
    32     -9.081614      0.256330      2.026656
    33     -7.143586      2.195799      0.665917
    34      7.166586     -9.671649     -7.366653
    35      7.932088     -8.132323     -8.171667
    36      6.987637     -9.294361     -5.540545
    37      3.943862     -2.091702     -6.481107
    38      3.009557     -3.732717     -6.329129
    39      4.837179     -2.028016     -4.813091
    40    -10.619210      0.426849     -3.985198
    41     -8.928021     -0.223842     -4.446917
    42    -10.180395      1.297752     -2.337412
    43     10.910014     -7.548575     -1.460310
    44      9.392152     -8.518540     -1.853904
    45     10.334277     -5.654395     -1.434824
    46      9.240836      6.086027      2.933361
    47     10.414530      6.875844      4.104942
    48      7.541502      6.298421      3.603710
    49      8.350902      9.389036     -9.525132
    50      6.689489      8.666148     -9.350106
    51      8.193601     10.919083     -8.436083
    52     -1.926872      7.407859     -0.610635
    53     -0.993754      6.245985     -1.663320
    54     -3.538901      6.591779      0.045745
    55     11.010058      0.424444      2.781469
    56     10.960000      0.311072      4.647630
    57     10.276232      2.135434      2.526978
    58      0.966563     -9.410564     -3.544308
    59      2.762615     -9.729453     -3.138777
    60      0.344678    -11.050706     -4.370834
    61     -6.326504     -3.838986      6.891302
    62     -7.674047     -3.985720      5.672754
    63     -4.754107     -3.431323      5.805955
    64      0.469570      1.909982      7.973100
    65      1.481679      0.553484      8.784022
    66      1.365433      3.454737      7.819435
    67     -8.186381    -10.184006     -1.801754
    68     -7.063762    -10.075345     -3.452870
    69     -9.273478     -8.777103     -2.035201
    70     -1.713275      9.984927     -4.928440
    71     -2.428495      9.085756     -3.376531
    72     -1.808948      8.527487     -6.133637
    73    -10.314951     -4.496497      3.540453
    74    -12.230888     -4.041370      3.836611
    75     -9.886828     -4.012601      1.824241
    76     -4.259809     -6.532570     -9.909425
    77     -4.823312     -7.982793     -8.797013
    78     -2.820775     -5.928470     -8.975470
    79      3.046596     10.161407      3.379395
    80      4.706132     11.043484      3.762131
    81      1.686832     11.446209      3.170070
    82     -6.355049     -1.656986     -5.325641
    83     -6.933815     -2.786299     -6.719486
    84     -6.111654     -2.775414     -3.916765
    85      3.987694     -1.272780      4.525561
    86      4.244610      0.522488      4.025784
    87      3.879538     -1.287754      6.298217
    88      3.329990     -9.455292     11.581362
    89      1.999020    -10.750244     11.405914
    90      4.391943     -9.844713     13.082281
    91      2.846149     -2.779936      9.408207
    92      1.674350     -4.102571      9.871933
    93      3.982205     -2.139374     10.777424
    94      6.698353      4.369187      8.866423
    95      6.061482      4.478532     10.558973
    96      7.806302      2.775904      8.806099
    97     -3.643802      5.558968      6.098738
    98     -3.553998      4.294673      7.413603
    99     -1.825149      5.701746      5.654372
   100     -7.100104     -9.335081      6.614750
   101     -6.449159     -9.120310      4.915909
   102     -7.108275     -7.622541      7.379458
   103     -5.158724    -10.354558     -6.390545
   104     -6.081229    -11.562756     -7.519196
   105     -3.638108    -11.232897     -5.919229
   106      7.276014     -7.499960      8.329898
   107      7.439627     -8.936740      6.995785
   108      5.789248     -8.051823      9.219745
   109     -7.147243      9.327698     -9.834086
   110     -8.917400      8.564849     -9.359107
   111     -7.050901      9.525336    -11.640745
   112     -4.775565     -8.054430      1.470441
   113     -3.489359     -9.224700      0.789422
   114     -6.172118     -8.559433      0.466328
   115     10.181088      0.428830      7.976097
   116     11.923786      0.387590      8.780391
   117      9.345104     -1.210923      7.972224
   118      8.330328     -4.023733      4.769538
   119      7.964135     -5.261028      6.156875
   120      6.828945     -2.955959      4.467838
   121     -0.395539     10.532228     10.557478
   122     -2.133248     10.773954      9.887848
   123      0.541756      9.693626      9.254102
   124      9.906073     -2.477824     -1.413534
   125     10.127934     -1.708186      0.168654
   126     11.195148     -1.656254     -2.583770
   127     -3.581522      1.812225    -11.618769
   128     -1.976805      2.344963    -12.537441
   129     -2.853348      1.020445    -10.059672
   130     -8.443357      0.055688      9.399577
   131     -7.070100      1.195603      9.965212
   132     -7.584499     -1.167843      8.273678
   133      9.311896      2.483762     -7.193486
   134      8.847439      1.650328     -8.821274
   135     10.647548      1.589074     -6.159177
   136      2.225812      6.653639      7.069564
   137      2.272471      7.926460      5.579050
   138      3.964730      6.052997      7.341845
   139     -0.948344     -0.070685     -6.962955
   140      0.745418     -0.850655     -7.059890
   141     -2.078005     -1.169397     -5.937117
   142     -0.914431     -6.436020      9.052323
   143     -0.883307     -8.265802      9.601791
   144     -2.703249     -5.916510      9.260206
   145      0.801474     -6.327347     -7.866546
   146      0.807391     -7.506654     -6.409106
   147      1.534461     -7.439122     -9.236352
   148     -8.707678     -3.938095    -10.084943
   149     -7.004865     -4.939619     -9.883774
   150     -8.281829     -2.766026    -11.627534
   151      4.153508      6.177751     -8.860270
   152      2.311628      6.100932     -9.182066
   153      4.443256      5.677225     -7.173665
   154      9.598650      9.111700      8.952492
   155      9.537582      9.768692     10.695308
   156      9.179371      7.301598      9.077761
   157      6.553253    -10.812300     -1.879830
   158      6.315045     -9.800299     -0.254881
   159      7.176552    -12.533854     -1.375339
   160      5.102293     -6.547790      1.291431
   161      6.517671     -6.302136      2.547423
   162      3.537499     -6.750236      2.257055
   163    -11.645061     -9.919830      3.279703
   164    -11.499566     -9.023764      1.572571
   165    -10.777435     -8.698874      4.328493
   166     -6.601705      5.372605      1.160235
   167     -7.696558      6.581372      0.313645
   168     -6.644007      5.808740      2.961824
   169     -4.975579     10.117034      9.017176
   170     -4.989295      8.776538      7.735275
   171     -5.827328     11.556144      8.222703
   172    -10.293709      8.162294      5.250927
   173    -10.273388      9.696840      4.133920
   174    -11.212921      8.810251      6.768236
   175     -0.767724    -11.054369      0.717833
   176     -0.793464    -12.848427      0.260822
   177      0.259374    -10.305359     -0.573774
 
  MM charges 
  ---------- 
     1     -0.674440
     2      0.337220
     3      0.337220
     4     -0.674440
     5      0.337220
     6      0.337220
     7     -0.674440
     8      0.337220
     9      0.337220
    10     -0.674440
    11      0.337220
    12      0.337220
    13     -0.674440
    14      0.337220
    15      0.337220
    16     -0.674440
    17      0.337220
    18      0.337220
    19     -0.674440
    20      0.337220
    21      0.337220
    22     -0.674440
    23      0.337220
    24      0.337220
    25     -0.674440
    26      0.337220
    27      0.337220
    28     -0.674440
    29      0.337220
    30      0.337220
    31     -0.674440
    32      0.337220
    33      0.337220
    34     -0.674440
    35      0.337220
    36      0.337220
    37     -0.674440
    38      0.337220
    39      0.337220
    40     -0.674440
    41      0.337220
    42      0.337220
    43     -0.674440
    44      0.337220
    45      0.337220
    46     -0.674440
    47      0.337220
    48      0.337220
    49     -0.674440
    50      0.337220
    51      0.337220
    52     -0.674440
    53      0.337220
    54      0.337220
    55     -0.674440
    56      0.337220
    57      0.337220
    58     -0.674440
    59      0.337220
    60      0.337220
    61     -0.674440
    62      0.337220
    63      0.337220
    64     -0.674440
    65      0.337220
    66      0.337220
    67     -0.674440
    68      0.337220
    69      0.337220
    70     -0.674440
    71      0.337220
    72      0.337220
    73     -0.674440
    74      0.337220
    75      0.337220
    76     -0.674440
    77      0.337220
    78      0.337220
    79     -0.674440
    80      0.337220
    81      0.337220
    82     -0.674440
    83      0.337220
    84      0.337220
    85     -0.674440
    86      0.337220
    87      0.337220
    88     -0.674440
    89      0.337220
    90      0.337220
    91     -0.674440
    92      0.337220
    93      0.337220
    94     -0.674440
    95      0.337220
    96      0.337220
    97     -0.674440
    98      0.337220
    99      0.337220
   100     -0.674440
   101      0.337220
   102      0.337220
   103     -0.674440
   104      0.337220
   105      0.337220
   106     -0.674440
   107      0.337220
   108      0.337220
   109     -0.674440
   110      0.337220
   111      0.337220
   112     -0.674440
   113      0.337220
   114      0.337220
   115     -0.674440
   116      0.337220
   117      0.337220
   118     -0.674440
   119      0.337220
   120      0.337220
   121     -0.674440
   122      0.337220
   123      0.337220
   124     -0.674440
   125      0.337220
   126      0.337220
   127     -0.674440
   128      0.337220
   129      0.337220
   130     -0.674440
   131      0.337220
   132      0.337220
   133     -0.674440
   134      0.337220
   135      0.337220
   136     -0.674440
   137      0.337220
   138      0.337220
   139     -0.674440
   140      0.337220
   141      0.337220
   142     -0.674440
   143      0.337220
   144      0.337220
   145     -0.674440
   146      0.337220
   147      0.337220
   148     -0.674440
   149      0.337220
   150      0.337220
   151     -0.674440
   152      0.337220
   153      0.337220
   154     -0.674440
   155      0.337220
   156      0.337220
   157     -0.674440
   158      0.337220
   159      0.337220
   160     -0.674440
   161      0.337220
   162      0.337220
   163     -0.674440
   164      0.337220
   165      0.337220
   166     -0.674440
   167      0.337220
   168      0.337220
   169     -0.674440
   170      0.337220
   171      0.337220
   172     -0.674440
   173      0.337220
   174      0.337220
   175     -0.674440
   176      0.337220
   177      0.337220
 
  MM isotropic polarizabilities in au 
  ----------------------------------- 
     1      5.739350
     2      2.308390
     3      2.308390
     4      5.739350
     5      2.308390
     6      2.308390
     7      5.739350
     8      2.308390
     9      2.308390
    10      5.739350
    11      2.308390
    12      2.308390
    13      5.739350
    14      2.308390
    15      2.308390
    16      5.739350
    17      2.308390
    18      2.308390
    19      5.739350
    20      2.308390
    21      2.308390
    22      5.739350
    23      2.308390
    24      2.308390
    25      5.739350
    26      2.308390
    27      2.308390
    28      5.739350
    29      2.308390
    30      2.308390
    31      5.739350
    32      2.308390
    33      2.308390
    34      5.739350
    35      2.308390
    36      2.308390
    37      5.739350
    38      2.308390
    39      2.308390
    40      5.739350
    41      2.308390
    42      2.308390
    43      5.739350
    44      2.308390
    45      2.308390
    46      5.739350
    47      2.308390
    48      2.308390
    49      5.739350
    50      2.308390
    51      2.308390
    52      5.739350
    53      2.308390
    54      2.308390
    55      5.739350
    56      2.308390
    57      2.308390
    58      5.739350
    59      2.308390
    60      2.308390
    61      5.739350
    62      2.308390
    63      2.308390
    64      5.739350
    65      2.308390
    66      2.308390
    67      5.739350
    68      2.308390
    69      2.308390
    70      5.739350
    71      2.308390
    72      2.308390
    73      5.739350
    74      2.308390
    75      2.308390
    76      5.739350
    77      2.308390
    78      2.308390
    79      5.739350
    80      2.308390
    81      2.308390
    82      5.739350
    83      2.308390
    84      2.308390
    85      5.739350
    86      2.308390
    87      2.308390
    88      5.739350
    89      2.308390
    90      2.308390
    91      5.739350
    92      2.308390
    93      2.308390
    94      5.739350
    95      2.308390
    96      2.308390
    97      5.739350
    98      2.308390
    99      2.308390
   100      5.739350
   101      2.308390
   102      2.308390
   103      5.739350
   104      2.308390
   105      2.308390
   106      5.739350
   107      2.308390
   108      2.308390
   109      5.739350
   110      2.308390
   111      2.308390
   112      5.739350
   113      2.308390
   114      2.308390
   115      5.739350
   116      2.308390
   117      2.308390
   118      5.739350
   119      2.308390
   120      2.308390
   121      5.739350
   122      2.308390
   123      2.308390
   124      5.739350
   125      2.308390
   126      2.308390
   127      5.739350
   128      2.308390
   129      2.308390
   130      5.739350
   131      2.308390
   132      2.308390
   133      5.739350
   134      2.308390
   135      2.308390
   136      5.739350
   137      2.308390
   138      2.308390
   139      5.739350
   140      2.308390
   141      2.308390
   142      5.739350
   143      2.308390
   144      2.308390
   145      5.739350
   146      2.308390
   147      2.308390
   148      5.739350
   149      2.308390
   150      2.308390
   151      5.739350
   152      2.308390
   153      2.308390
   154      5.739350
   155      2.308390
   156      2.308390
   157      5.739350
   158      2.308390
   159      2.308390
   160      5.739350
   161      2.308390
   162      2.308390
   163      5.739350
   164      2.308390
   165      2.308390
   166      5.739350
   167      2.308390
   168      2.308390
   169      5.739350
   170      2.308390
   171      2.308390
   172      5.739350
   173      2.308390
   174      2.308390
   175      5.739350
   176      2.308390
   177      2.308390


     ************************************************************************
     ************************** Output from HERINT **************************
     ************************************************************************



                      Nuclear contribution to dipole moments
                      --------------------------------------

                 au               Debye          C m (/(10**-30)

      x     -3.00168822        -7.62952995       -25.44937255
      y    -35.12520120       -89.27935046      -297.80385756
      z     -4.49948137       -11.43654015       -38.14819168



 Threshold for neglecting two-electron integrals:  1.00D-12
 HERMIT - Number of two-electron integrals written:    39728727 ( 44.5% )
 HERMIT - Megabytes written:                            454.915

  Time used in TWOINT     is       7.42 seconds
  Total CPU  time used in HERMIT:   7.59 seconds
  Total wall time used in HERMIT:   8.36 seconds


                        .----------------------------------.
                        | End of Integral Section (HERMIT) |
                        `----------------------------------'



                   .--------------------------------------------.
                   | Starting in Wave Function Section (SIRIUS) |
                   `--------------------------------------------'

NCCEXCI for singlet:    1
 CCSD_INPUT: core-val requested
 Requested number of virtual orbs per sym
                     1
 Indices of requested virtual orbs
                     1
 CCSD_INPUT: core-val requested
 Requested number of core orbs per sym
                     1
 Indices of requested core orbs
                     1

 *** Output from Huckel module :

     Using EWMO model:          T
     Using EHT  model:          F
     Number of Huckel orbitals each symmetry:   37

 EWMO - Energy Weighted Maximum Overlap - is a Huckel type method,
        which normally is better than Extended Huckel Theory.
 Reference: Linderberg and Ohrn, Propagators in Quantum Chemistry (Wiley, 1973)

 Huckel EWMO eigenvalues for symmetry :  1
          -20.684756     -20.684548     -20.684373     -20.684205     -15.674398
           -1.790378      -1.625740      -1.605743      -1.572179      -1.473025
           -0.827629      -0.802934      -0.780780      -0.767791      -0.759268
           -0.739736      -0.725575      -0.701230      -0.699878      -0.655681
           -0.651701      -0.613515      -0.598156      -0.567486      -0.544786
           -0.266357      -0.245773      -0.239656      -0.234908      -0.192614
           -0.182913      -0.181787      -0.177936      -0.176407      -0.165405
           -0.152098      -0.144454

 **********************************************************************
 *SIRIUS* a direct, restricted step, second order MCSCF program       *
 **********************************************************************

 
     Date and time (Linux)  : Sun Dec  2 17:03:47 2018
     Host name              : n-62-23-31                              

 Title lines from ".mol" input file:
                                                                             
                                                                             

 Print level on unit LUPRI =   2 is   0
 Print level on unit LUW4  =   2 is  11

@    (Integral direct) CC calculation.

@    This is a combination run starting with
@              a restricted, closed shell Hartree-Fock calculation


 Initial molecular orbitals are obtained according to
 ".MOSTART EWMO  " input option

@    QM part is embedded in an environment :

@         Model: QMMM

     Wave function specification
     ============================

     For the specification of the Coupled Cluster: see later.

@    Wave function type        --- CC ---
@    Number of closed shell electrons          50
@    Number of electrons in active shells       0
@    Total charge of the molecule               1

@    Spin multiplicity and 2 M_S                1         0
@    Total number of symmetries                 1 (point group: C1 )
@    Reference state symmetry                   1 (irrep name : A  )

     Orbital specifications
     ======================
@    Abelian symmetry species          All |    1
@                                          |  A  
                                       --- |  ---
@    Occupied SCF orbitals              25 |   25
@    Secondary orbitals                138 |  138
@    Total number of orbitals          163 |  163
@    Number of basis functions         163 |  163

     Optimization information
     ========================
@    Number of configurations                 1
@    Number of orbital rotations           3450
     ------------------------------------------
@    Total number of variables             3451

     Maximum number of Fock   iterations      0
     Maximum number of DIIS   iterations     60
     Maximum number of QC-SCF iterations     60
     Threshold for SCF convergence     1.00D-07


 Changes of defaults for CC:
 ---------------------------


 -Implicit frozen core calculation
 -Excitation energies calculated
 -One-photon absorption strengths will be calculated
 -Oscillator strengths calculated
  
* Read MO coefficients from SIRIUS.RST with label "NEWORB  " and header info:  2Dec18  REORTHO 


 ***********************************************
 ***** DIIS acceleration of SCF iterations *****
 ***********************************************

 C1-DIIS algorithm; max error vectors =    8
 -----------------------------------------------------------------------------

 *** DIIS iteration number    1
 RDSUPM called. NFMAT, ISYMDM(1:NFMAT)                     1
                     1

Calculating AOSUPINT
     (Precalculated two-electron integrals are transformed to P-supermatrix elements.
      Threshold for discarding integrals :  1.00D-12 )
  CPU  time used in FORMSUP    is   4.40 seconds
  WALL time used in FORMSUP    is  18.93 seconds

 ITDIIS, energy, error norm, change in energy, scr.thr., difden:
@ DIIS iter.   1    -360.181940455        3.96971D+00   -3.60D+02  -20    F

 (DIIS_RED) Control Parameters C2DIIS =         F NEVC =    1


 (DIIS_RED) B matrix:

               Column   1
       1      15.75856085
    ==== End of matrix output ====

 DIIS C vector; C2DIIS = F, LAMBDA = -1.58D+01
    1.000000
* Read MO coefficients from SIRIUS.RST with label "NEWORB  " and header info:  2Dec18  DIIS   1
      Virial theorem: -V/T =      2.003121
@      MULPOP N       0.15; H       0.16; H       0.17; H       0.17; H       0.15; O      -0.61; O      -0.58; O      -0.63; O      -0.59; H       0.34; 
@             H       0.34; H       0.32; H       0.33; H       0.32; H       0.33; H       0.33; H       0.31; 
   1  Level shift: doubly occupied orbital energies shifted by -2.00D-01

 DIIS Fock eigenvalues in symmetry 1
      -20.83940      -20.81044      -20.80666      -20.80271      -16.47166
       -1.71322       -1.65296       -1.63464       -1.63318       -1.62824
       -1.20223       -1.18992       -1.16931       -1.03717       -1.01173
       -0.99642       -0.98210       -0.89674       -0.89439       -0.88751
       -0.87822       -0.86158       -0.84258       -0.84050       -0.83371
       -0.02365       -0.00005        0.04044        0.05165        0.07298
        0.08992        0.13720        0.15306        0.16190        0.17570
        0.18052        0.19644        0.20733        0.25269        0.28262
        0.31393        0.43300        0.43556        0.45013        0.45507
        0.47789        0.48805        0.49765        0.52041        0.54063
        0.63514        0.66661        0.70626        0.79826        0.86179
        0.87856        0.91000        0.94279        0.94915        0.98042
        0.98961        1.01058        1.01819        1.02718        1.04941
        1.06411        1.08296        1.11454        1.20975        1.23687
        1.25523        1.30760        1.32301        1.32895        1.35057
        1.37884        1.40821        1.41821        1.43776        1.45340
        1.49039        1.51956        1.53070        1.57522        1.59332
        1.62269        1.64832        1.72791        1.73788        1.75725
        1.83491        1.84466        1.92951        2.02470        2.03926
        2.07118        2.08521        2.09491        2.11647        2.12543
        2.14787        2.18710        2.20396        2.24845        2.26067
        2.38932        2.45732        2.48755        2.51483        2.53284
        2.54305        2.60439        2.61123        2.65008        2.66869
        2.70059        2.70344        2.74733        2.77198        2.96748
        2.98542        3.05598        3.10002        3.29614        3.32242
        3.33861        3.35259        3.38272        3.40020        3.40623
        3.42141        3.50862        3.51883        3.52896        3.55356
        3.84541        3.86608        3.88216        3.91241        4.05198
        4.09517        4.13682        4.18177        4.54262        4.65955
        4.72799        5.24800        5.29722        5.30432        5.35841
        5.65504        5.69617        5.73496        5.75960        5.87764
        5.95670        5.96421        6.00025       36.28132       51.44906
       51.45730       51.45964       51.47078
 Time used in FCKEIG, thr_jaco:   5.60D-02  6.70D-02  1.69D-04
 CPU and wall times used in FCKEIG, THR_FCKEIG:   5.60D-02  6.70D-02  3.97D-02
 -----------------------------------------------------------------------------

 *** DIIS iteration number    2
 RDSUPM called. NFMAT, ISYMDM(1:NFMAT)                     1
                     1

 ITDIIS, energy, error norm, change in energy, scr.thr., difden:
@ DIIS iter.   2    -361.069774864        1.13761D+00   -8.88D-01  -20    F

 (DIIS_RED) Control Parameters C2DIIS =         F NEVC =    2


 (DIIS_RED) B matrix:

               Column   1     Column   2
       1      15.75856085
       2       0.62920432     1.29414989
    ==== End of matrix output ====

 DIIS C vector; C2DIIS = F, LAMBDA = -1.27D+00
    0.042100    0.957900
* Read MO coefficients from SIRIUS.RST with label "NEWORB  " and header info:  2Dec18  DIIS   2
      Virial theorem: -V/T =      2.003072
@      MULPOP N      -0.54; H       0.32; H       0.33; H       0.35; H       0.33; O      -0.55; O      -0.58; O      -0.58; O      -0.59; H       0.30; 
@             H       0.32; H       0.33; H       0.32; H       0.31; H       0.29; H       0.33; H       0.30; 
   2  Level shift: doubly occupied orbital energies shifted by -1.00D-01

 DIIS Fock eigenvalues in symmetry 1
      -20.78199      -20.78171      -20.77308      -20.75468      -15.65552
       -1.54554       -1.53187       -1.52333       -1.52146       -1.37056
       -0.91692       -0.89114       -0.88713       -0.87032       -0.86455
       -0.85031       -0.84223       -0.79833       -0.78881       -0.77492
       -0.76959       -0.72609       -0.71899       -0.70906       -0.69934
       -0.00005        0.04899        0.09604        0.11066        0.11873
        0.13381        0.17040        0.19033        0.20168        0.22192
        0.22472        0.26271        0.29274        0.34312        0.36228
        0.38451        0.46732        0.47424        0.48976        0.49921
        0.52150        0.53191        0.55486        0.57169        0.59680
        0.78107        0.79297        0.82936        0.85694        0.88736
        0.92100        0.96718        0.97702        0.99023        1.00738
        1.03689        1.04471        1.05089        1.07593        1.07846
        1.16859        1.18482        1.20135        1.26361        1.28600
        1.31581        1.35261        1.37589        1.38908        1.41566
        1.43525        1.46613        1.47927        1.50974        1.51860
        1.58356        1.59138        1.61153        1.66660        1.68036
        1.69146        1.74829        1.79279        1.80726        1.85340
        1.90261        1.91200        2.02554        2.08777        2.11287
        2.12471        2.13489        2.16161        2.22439        2.22608
        2.24418        2.27677        2.29731        2.31930        2.34046
        2.49097        2.52867        2.56504        2.61445        2.62686
        2.64595        2.68078        2.72791        2.76354        2.79431
        2.80597        2.83362        2.89276        2.91243        3.14981
        3.25296        3.28117        3.31077        3.33953        3.34441
        3.36449        3.37197        3.40236        3.43366        3.45092
        3.46310        3.53370        3.54064        3.55297        3.58527
        3.87153        3.87920        3.90167        3.93638        4.07497
        4.11363        4.14580        4.20925        4.93582        5.05164
        5.10986        5.25716        5.29178        5.31046        5.34330
        5.64738        5.70044        5.73929        5.75540        5.87790
        5.97072        5.97601        6.01987       36.98149       51.38577
       51.38748       51.41504       51.42657
 Time used in FCKEIG, thr_jaco:   3.90D-02  5.10D-02  4.84D-05
 CPU and wall times used in FCKEIG, THR_FCKEIG:   3.90D-02  5.10D-02  1.14D-02
 -----------------------------------------------------------------------------

 *** DIIS iteration number    3
 RDSUPM called. NFMAT, ISYMDM(1:NFMAT)                     1
                     1

 ITDIIS, energy, error norm, change in energy, scr.thr., difden:
@ DIIS iter.   3    -361.144959567        3.84715D-01   -7.52D-02  -20    F

 (DIIS_RED) Control Parameters C2DIIS =         F NEVC =    3


 (DIIS_RED) B matrix:

               Column   1     Column   2     Column   3
       1      15.75856085
       2       0.62920432     1.29414989
       3       0.81058817    -0.01267923     0.14800579
    ==== End of matrix output ====

 DIIS C vector; C2DIIS = F, LAMBDA = -9.99D-02
   -0.046224    0.108843    0.937381
* Read MO coefficients from SIRIUS.RST with label "NEWORB  " and header info:  2Dec18  DIIS   3
      Virial theorem: -V/T =      2.003713
@      MULPOP N      -0.35; H       0.28; H       0.30; H       0.32; H       0.27; O      -0.62; O      -0.64; O      -0.63; O      -0.66; H       0.33; 
@             H       0.35; H       0.35; H       0.34; H       0.34; H       0.31; H       0.36; H       0.33; 
   3  Level shift: doubly occupied orbital energies shifted by -5.00D-02

 DIIS Fock eigenvalues in symmetry 1
      -20.69004      -20.68519      -20.67522      -20.66986      -15.81850
       -1.47574       -1.45853       -1.45719       -1.45576       -1.37499
       -0.86691       -0.85443       -0.84006       -0.82654       -0.82172
       -0.79523       -0.78612       -0.72431       -0.71812       -0.71025
       -0.70312       -0.65284       -0.64592       -0.63619       -0.62734
       -0.00005        0.05219        0.10203        0.11125        0.12481
        0.13917        0.17356        0.19513        0.20710        0.22366
        0.23048        0.25996        0.29236        0.34063        0.36195
        0.38548        0.47829        0.48580        0.49994        0.50721
        0.53072        0.54106        0.56251        0.57942        0.60125
        0.77085        0.77897        0.83291        0.84597        0.90395
        0.93266        0.97972        0.98527        1.00343        1.02224
        1.05107        1.05970        1.06524        1.08251        1.09279
        1.16118        1.17988        1.20539        1.27657        1.29723
        1.32385        1.36610        1.38656        1.40059        1.42738
        1.44774        1.48057        1.49278        1.52034        1.52554
        1.59078        1.60286        1.61700        1.67274        1.68643
        1.69861        1.75152        1.80631        1.81526        1.85050
        1.91702        1.91907        2.02796        2.10775        2.12134
        2.13714        2.14892        2.17922        2.22029        2.23412
        2.25714        2.28672        2.29323        2.33435        2.35034
        2.49726        2.53947        2.57431        2.62059        2.63417
        2.65260        2.69315        2.73719        2.76770        2.79929
        2.80730        2.83668        2.86281        2.89064        3.13922
        3.20775        3.25626        3.28602        3.35634        3.36515
        3.38861        3.39850        3.42472        3.45576        3.46979
        3.47965        3.56381        3.56722        3.57750        3.60849
        3.89386        3.91015        3.92426        3.96238        4.10290
        4.13875        4.17947        4.23311        4.84778        4.96445
        5.02779        5.28246        5.31916        5.34004        5.38329
        5.67455        5.73219        5.76982        5.79163        5.91812
        5.99903        6.00352        6.05311       36.77463       51.42445
       51.44317       51.45562       51.46317
 Time used in FCKEIG, thr_jaco:   3.10D-02  3.90D-02  1.64D-05
 CPU and wall times used in FCKEIG, THR_FCKEIG:   3.10D-02  3.90D-02  3.85D-03
 -----------------------------------------------------------------------------

 *** DIIS iteration number    4
 RDSUPM called. NFMAT, ISYMDM(1:NFMAT)                     1
                     1

 ITDIIS, energy, error norm, change in energy, scr.thr., difden:
@ DIIS iter.   4    -361.155618827        9.69388D-02   -1.07D-02  -20    F

 (DIIS_RED) Control Parameters C2DIIS =         F NEVC =    4


 (DIIS_RED) B matrix:

               Column   1     Column   2     Column   3     Column   4
       1      15.75856085
       2       0.62920432     1.29414989
       3       0.81058817    -0.01267923     0.14800579
       4       0.05083659     0.08342076     0.00377069     0.00939712
    ==== End of matrix output ====

 DIIS C vector; C2DIIS = F, LAMBDA = -4.57D-03
   -0.000652   -0.064687    0.001819    1.063520
* Read MO coefficients from SIRIUS.RST with label "NEWORB  " and header info:  2Dec18  DIIS   4
      Virial theorem: -V/T =      2.003679
@      MULPOP N      -0.43; H       0.30; H       0.32; H       0.34; H       0.29; O      -0.63; O      -0.65; O      -0.64; O      -0.67; H       0.33; 
@             H       0.36; H       0.36; H       0.35; H       0.34; H       0.32; H       0.37; H       0.34; 
   4  Level shift: doubly occupied orbital energies shifted by -2.50D-02

 DIIS Fock eigenvalues in symmetry 1
      -20.67879      -20.66946      -20.66850      -20.65539      -15.75859
       -1.45471       -1.43830       -1.43711       -1.43493       -1.33706
       -0.83366       -0.82219       -0.81274       -0.79915       -0.79006
       -0.77208       -0.76504       -0.70313       -0.69426       -0.68695
       -0.67927       -0.62738       -0.62040       -0.61069       -0.60288
       -0.00005        0.05391        0.10179        0.11270        0.12451
        0.13891        0.17364        0.19589        0.20726        0.22565
        0.23022        0.26361        0.29678        0.34711        0.36725
        0.39023        0.47793        0.48562        0.50044        0.50747
        0.53029        0.54033        0.56189        0.57951        0.60247
        0.77885        0.78491        0.83803        0.85021        0.90386
        0.93443        0.98014        0.98668        1.00349        1.02132
        1.05067        1.05972        1.06502        1.08385        1.09168
        1.16570        1.18498        1.20673        1.27665        1.29718
        1.32586        1.36648        1.38761        1.40010        1.42759
        1.44613        1.47868        1.49048        1.51968        1.52753
        1.59290        1.60318        1.62026        1.67547        1.68974
        1.69982        1.75601        1.80631        1.81525        1.85541
        1.91503        1.91888        2.03288        2.10406        2.12322
        2.13568        2.14650        2.17748        2.22796        2.23636
        2.25713        2.28739        2.29860        2.33128        2.35012
        2.50030        2.53811        2.57474        2.62327        2.63748
        2.65644        2.69350        2.73708        2.77098        2.80163
        2.80893        2.84204        2.87228        2.89878        3.14793
        3.22136        3.26649        3.29634        3.35530        3.36332
        3.38613        3.39418        3.42269        3.45282        3.46837
        3.47856        3.56117        3.56308        3.57529        3.60614
        3.89115        3.90528        3.92181        3.95945        4.10016
        4.13647        4.17449        4.23077        4.86719        4.98399
        5.04658        5.27786        5.31502        5.33449        5.37454
        5.67059        5.72647        5.76429        5.78376        5.90870
        5.99422        5.99802        6.04662       36.80912       51.41526
       51.42540       51.44315       51.45213
 Time used in FCKEIG, thr_jaco:   2.50D-02  2.90D-02  4.13D-06
 CPU and wall times used in FCKEIG, THR_FCKEIG:   2.50D-02  2.90D-02  9.69D-04
 -----------------------------------------------------------------------------

 *** DIIS iteration number    5
 RDSUPM called. NFMAT, ISYMDM(1:NFMAT)                     1
                     1

 ITDIIS, energy, error norm, change in energy, scr.thr., difden:
@ DIIS iter.   5    -361.156702385        2.92904D-02   -1.08D-03  -20    F

 (DIIS_RED) Control Parameters C2DIIS =         F NEVC =    5


 (DIIS_RED) B matrix:

               Column   1     Column   2     Column   3     Column   4     Column   5
       1      15.75856085
       2       0.62920432     1.29414989
       3       0.81058817    -0.01267923     0.14800579
       4       0.05083659     0.08342076     0.00377069     0.00939712
       5       0.02191656     0.00750328     0.00586538     0.00100433     0.00085793
    ==== End of matrix output ====

 DIIS C vector; C2DIIS = F, LAMBDA = -6.04D-04
    0.001122   -0.010070   -0.043811    0.058955    0.993804
* Read MO coefficients from SIRIUS.RST with label "NEWORB  " and header info:  2Dec18  DIIS   5
      Virial theorem: -V/T =      2.003368
@      MULPOP N      -0.41; H       0.30; H       0.31; H       0.34; H       0.29; O      -0.64; O      -0.66; O      -0.65; O      -0.68; H       0.34; 
@             H       0.36; H       0.36; H       0.36; H       0.35; H       0.32; H       0.38; H       0.34; 
   5  Level shift: doubly occupied orbital energies shifted by -1.25D-02

 DIIS Fock eigenvalues in symmetry 1
      -20.65806      -20.65317      -20.64682      -20.63801      -15.74275
       -1.43929       -1.42336       -1.42248       -1.42064       -1.32320
       -0.81968       -0.80813       -0.79869       -0.78581       -0.77594
       -0.75837       -0.75007       -0.68816       -0.67983       -0.67338
       -0.66521       -0.61163       -0.60535       -0.59558       -0.58674
       -0.00005        0.05438        0.10212        0.11304        0.12484
        0.13921        0.17384        0.19635        0.20757        0.22622
        0.23058        0.26422        0.29775        0.34814        0.36812
        0.39107        0.47842        0.48644        0.50114        0.50792
        0.53071        0.54072        0.56222        0.58014        0.60331
        0.77995        0.78618        0.83924        0.85156        0.90578
        0.93598        0.98125        0.98789        1.00492        1.02265
        1.05217        1.06151        1.06657        1.08507        1.09294
        1.16697        1.18626        1.20760        1.27769        1.29808
        1.32733        1.36776        1.38867        1.40066        1.42831
        1.44632        1.47915        1.49072        1.52013        1.52859
        1.59341        1.60400        1.62098        1.67631        1.69041
        1.70028        1.75689        1.80671        1.81528        1.85620
        1.91515        1.91903        2.03388        2.10514        2.12413
        2.13624        2.14677        2.17850        2.22909        2.23732
        2.25820        2.28802        2.29952        2.33180        2.35117
        2.50102        2.53817        2.57488        2.62386        2.63818
        2.65712        2.69368        2.73701        2.77161        2.80216
        2.80903        2.84283        2.87331        2.89997        3.14911
        3.22283        3.26819        3.29806        3.35828        3.36483
        3.38799        3.39746        3.42412        3.45591        3.47109
        3.48044        3.56381        3.56591        3.57745        3.60781
        3.89293        3.90867        3.92338        3.96212        4.10293
        4.13844        4.17809        4.23264        4.86917        4.98593
        5.04850        5.28086        5.31756        5.33922        5.37997
        5.67279        5.73093        5.76746        5.78830        5.91352
        5.99611        6.00047        6.05090       36.81239       51.41919
       51.43442       51.45029       51.45780
 Time used in FCKEIG, thr_jaco:   3.10D-02  3.80D-02  1.25D-06
 CPU and wall times used in FCKEIG, THR_FCKEIG:   3.10D-02  3.80D-02  2.93D-04
 -----------------------------------------------------------------------------

 *** DIIS iteration number    6
 RDSUPM called. NFMAT, ISYMDM(1:NFMAT)                     1
                     1

 ITDIIS, energy, error norm, change in energy, scr.thr., difden:
@ DIIS iter.   6    -361.156797764        1.11930D-02   -9.54D-05  -20    F

 (DIIS_RED) Control Parameters C2DIIS =         F NEVC =    6


 (DIIS_RED) B matrix:

               Column   1     Column   2     Column   3     Column   4     Column   5     Column   6
       1      15.75856085
       2       0.62920432     1.29414989
       3       0.81058817    -0.01267923     0.14800579
       4       0.05083659     0.08342076     0.00377069     0.00939712
       5       0.02191656     0.00750328     0.00586538     0.00100433     0.00085793
       6      -0.00443420    -0.00022759     0.00083272     0.00055039     0.00004050     0.00012528
    ==== End of matrix output ====

 DIIS C vector; C2DIIS = F, LAMBDA = -3.90D-05
    0.000798    0.007765   -0.011475   -0.138662    0.151195    0.990378
* Read MO coefficients from SIRIUS.RST with label "NEWORB  " and header info:  2Dec18  DIIS   6
      Virial theorem: -V/T =      2.003602
@      MULPOP N      -0.41; H       0.29; H       0.31; H       0.34; H       0.29; O      -0.64; O      -0.66; O      -0.65; O      -0.69; H       0.34; 
@             H       0.36; H       0.36; H       0.36; H       0.35; H       0.32; H       0.38; H       0.35; 

 DIIS Fock eigenvalues in symmetry 1
      -20.64824      -20.64175      -20.63741      -20.62699      -15.73241
       -1.42756       -1.41121       -1.41075       -1.40853       -1.31130
       -0.80784       -0.79627       -0.78685       -0.77374       -0.76389
       -0.74635       -0.73834       -0.67682       -0.66808       -0.66162
       -0.65342       -0.59958       -0.59302       -0.58318       -0.57481
       -0.00005        0.05427        0.10197        0.11295        0.12466
        0.13903        0.17371        0.19623        0.20744        0.22604
        0.23045        0.26407        0.29752        0.34787        0.36798
        0.39096        0.47820        0.48618        0.50089        0.50771
        0.53049        0.54043        0.56195        0.57986        0.60303
        0.77955        0.78586        0.83889        0.85117        0.90519
        0.93585        0.98093        0.98759        1.00449        1.02227
        1.05174        1.06108        1.06624        1.08470        1.09259
        1.16656        1.18593        1.20732        1.27738        1.29780
        1.32698        1.36737        1.38836        1.40034        1.42794
        1.44600        1.47879        1.49038        1.51982        1.52821
        1.59317        1.60369        1.62077        1.67598        1.69018
        1.70005        1.75671        1.80641        1.81502        1.85598
        1.91484        1.91873        2.03371        2.10457        2.12380
        2.13586        2.14635        2.17792        2.22892        2.23697
        2.25776        2.28772        2.29921        2.33139        2.35066
        2.50072        2.53785        2.57461        2.62356        2.63804
        2.65691        2.69336        2.73668        2.77125        2.80187
        2.80863        2.84263        2.87277        2.89950        3.14883
        3.22213        3.26744        3.29738        3.35737        3.36443
        3.38744        3.39638        3.42367        3.45492        3.47021
        3.47984        3.56302        3.56497        3.57678        3.60726
        3.89239        3.90760        3.92286        3.96123        4.10206
        4.13784        4.17694        4.23207        4.86811        4.98488
        5.04742        5.28009        5.31696        5.33781        5.37829
        5.67215        5.72950        5.76645        5.78680        5.91184
        5.99545        5.99962        6.04942       36.81027       51.41806
       51.43138       51.44805       51.45597
 Time used in FCKEIG, thr_jaco:   2.70D-02  6.10D-02  4.76D-07
 CPU and wall times used in FCKEIG, THR_FCKEIG:   2.70D-02  6.10D-02  1.12D-04
 -----------------------------------------------------------------------------

 *** DIIS iteration number    7
 RDSUPM called. NFMAT, ISYMDM(1:NFMAT)                     1
                     1

 ITDIIS, energy, error norm, change in energy, scr.thr., difden:
@ DIIS iter.   7    -361.156811338        2.37838D-03   -1.36D-05  -20    F

 (DIIS_RED) Control Parameters C2DIIS =         F NEVC =    7


 (DIIS_RED) B matrix:

               Column   1     Column   2     Column   3     Column   4     Column   5     Column   6
       1      15.75856085
       2       0.62920432     1.29414989
       3       0.81058817    -0.01267923     0.14800579
       4       0.05083659     0.08342076     0.00377069     0.00939712
       5       0.02191656     0.00750328     0.00586538     0.00100433     0.00085793
       6      -0.00443420    -0.00022759     0.00083272     0.00055039     0.00004050     0.00012528
       7       0.00027154     0.00021145    -0.00000963     0.00001522     0.00004753     0.00000085

               Column   7
       7       0.00000566
    ==== End of matrix output ====

 DIIS C vector; C2DIIS = F, LAMBDA = -1.30D-06
   -0.000245   -0.001079    0.005958    0.026493   -0.115669   -0.127074    1.211615
* Read MO coefficients from SIRIUS.RST with label "NEWORB  " and header info:  2Dec18  DIIS   7
      Virial theorem: -V/T =      2.003540
@      MULPOP N      -0.41; H       0.29; H       0.31; H       0.34; H       0.29; O      -0.64; O      -0.66; O      -0.66; O      -0.69; H       0.34; 
@             H       0.36; H       0.36; H       0.36; H       0.35; H       0.32; H       0.38; H       0.35; 

 DIIS Fock eigenvalues in symmetry 1
      -20.64788      -20.64166      -20.63693      -20.62686      -15.73197
       -1.42739       -1.41109       -1.41058       -1.40842       -1.31107
       -0.80769       -0.79612       -0.78671       -0.77367       -0.76371
       -0.74626       -0.73818       -0.67676       -0.66804       -0.66163
       -0.65340       -0.59938       -0.59286       -0.58302       -0.57457
       -0.00005        0.05434        0.10201        0.11300        0.12470
        0.13907        0.17375        0.19628        0.20747        0.22610
        0.23049        0.26415        0.29762        0.34801        0.36810
        0.39107        0.47825        0.48625        0.50096        0.50777
        0.53054        0.54047        0.56198        0.57992        0.60312
        0.77971        0.78599        0.83899        0.85129        0.90528
        0.93595        0.98100        0.98769        1.00460        1.02237
        1.05185        1.06119        1.06633        1.08480        1.09266
        1.16671        1.18607        1.20740        1.27746        1.29788
        1.32712        1.36746        1.38846        1.40038        1.42800
        1.44602        1.47882        1.49039        1.51987        1.52832
        1.59324        1.60376        1.62087        1.67607        1.69027
        1.70012        1.75682        1.80644        1.81505        1.85609
        1.91484        1.91876        2.03384        2.10463        2.12388
        2.13591        2.14637        2.17798        2.22907        2.23706
        2.25784        2.28779        2.29933        2.33141        2.35075
        2.50080        2.53787        2.57465        2.62364        2.63813
        2.65700        2.69339        2.73670        2.77133        2.80193
        2.80867        2.84274        2.87294        2.89966        3.14900
        3.22235        3.26765        3.29759        3.35755        3.36451
        3.38753        3.39658        3.42376        3.45511        3.47037
        3.47996        3.56318        3.56515        3.57690        3.60736
        3.89247        3.90778        3.92295        3.96137        4.10222
        4.13796        4.17716        4.23217        4.86840        4.98516
        5.04771        5.28021        5.31706        5.33804        5.37859
        5.67224        5.72972        5.76659        5.78705        5.91211
        5.99553        5.99972        6.04963       36.81069       51.41816
       51.43185       51.44833       51.45616
 Time used in FCKEIG, thr_jaco:   2.40D-02  3.00D-02  1.01D-07
 CPU and wall times used in FCKEIG, THR_FCKEIG:   2.40D-02  3.00D-02  2.38D-05
 -----------------------------------------------------------------------------

 *** DIIS iteration number    8
 RDSUPM called. NFMAT, ISYMDM(1:NFMAT)                     1
                     1

 ITDIIS, energy, error norm, change in energy, scr.thr., difden:
@ DIIS iter.   8    -361.156811986        3.87569D-04   -6.47D-07  -20    F

 (DIIS_RED) Control Parameters C2DIIS =         F NEVC =    8


 (DIIS_RED) B matrix:

               Column   1     Column   2     Column   3     Column   4     Column   5     Column   6
       1      15.75856085
       2       0.62920432     1.29414989
       3       0.81058817    -0.01267923     0.14800579
       4       0.05083659     0.08342076     0.00377069     0.00939712
       5       0.02191656     0.00750328     0.00586538     0.00100433     0.00085793
       6      -0.00443420    -0.00022759     0.00083272     0.00055039     0.00004050     0.00012528
       7       0.00027154     0.00021145    -0.00000963     0.00001522     0.00004753     0.00000085
       8       0.00010388    -0.00003170     0.00000301     0.00000304     0.00000012     0.00000188

               Column   7     Column   8
       7       0.00000566
       8       0.00000035     0.00000015
    ==== End of matrix output ====

 DIIS C vector; C2DIIS = F, LAMBDA = -8.32D-08
    0.000004    0.000039   -0.000629   -0.001320    0.016939   -0.011228   -0.199891    1.196087
* Read MO coefficients from SIRIUS.RST with label "NEWORB  " and header info:  2Dec18  DIIS   8
      Virial theorem: -V/T =      2.003557
@      MULPOP N      -0.41; H       0.29; H       0.31; H       0.34; H       0.29; O      -0.64; O      -0.66; O      -0.66; O      -0.69; H       0.34; 
@             H       0.36; H       0.36; H       0.36; H       0.35; H       0.32; H       0.38; H       0.35; 

 DIIS Fock eigenvalues in symmetry 1
      -20.64788      -20.64160      -20.63703      -20.62680      -15.73198
       -1.42739       -1.41107       -1.41060       -1.40840       -1.31107
       -0.80769       -0.79612       -0.78671       -0.77365       -0.76371
       -0.74624       -0.73820       -0.67682       -0.66805       -0.66163
       -0.65341       -0.59937       -0.59284       -0.58300       -0.57459
       -0.00005        0.05434        0.10201        0.11301        0.12469
        0.13907        0.17375        0.19628        0.20748        0.22610
        0.23049        0.26414        0.29762        0.34801        0.36810
        0.39107        0.47826        0.48624        0.50096        0.50778
        0.53054        0.54047        0.56199        0.57992        0.60312
        0.77971        0.78599        0.83899        0.85129        0.90525
        0.93596        0.98101        0.98770        1.00460        1.02237
        1.05184        1.06118        1.06633        1.08481        1.09267
        1.16670        1.18607        1.20741        1.27746        1.29788
        1.32711        1.36746        1.38846        1.40038        1.42799
        1.44602        1.47881        1.49039        1.51987        1.52831
        1.59324        1.60375        1.62087        1.67607        1.69026
        1.70012        1.75682        1.80644        1.81505        1.85609
        1.91484        1.91877        2.03383        2.10461        2.12388
        2.13591        2.14637        2.17798        2.22907        2.23706
        2.25783        2.28779        2.29933        2.33142        2.35073
        2.50080        2.53787        2.57465        2.62363        2.63813
        2.65699        2.69339        2.73670        2.77132        2.80193
        2.80867        2.84273        2.87294        2.89965        3.14899
        3.22235        3.26764        3.29758        3.35754        3.36453
        3.38755        3.39654        3.42378        3.45508        3.47036
        3.47997        3.56317        3.56512        3.57691        3.60738
        3.89249        3.90774        3.92296        3.96137        4.10222
[...]
 | 1 1 1 1 |  28   1   9   1 |     1132        1 |       640147 |    0.087498  |
 | 1 1 1 1 |   4   1  11   1 |     1384        1 |       957037 |    0.067915  |
 | 1 1 1 1 |  10   1  11   1 |     1390        1 |       965356 |    0.077528  |
 | 1 1 1 1 |  26   1  11   1 |     1406        1 |       987716 |    0.074483  |
 | 1 1 1 1 |  27   1  11   1 |     1407        1 |       989122 |    0.141789  |
 | 1 1 1 1 | 119   1  11   1 |     1499        1 |      1122752 |   -0.070942  |
 | 1 1 1 1 |  13   1  21   1 |     2773        1 |      3843379 |   -0.074292  |
 | 1 1 1 1 |  27   1  21   1 |     2787        1 |      3882292 |    0.079807  |
 +=============================================================================+


          Norm of Printed Amplitude Vector :             0.8427

          Printed all single excitations greater than 0.378331

          Printed all double excitations greater than 0.065381



+======================================================================+
| contributions of excitation levels to right eigenvectors as computed |
| from the (RE|RE) self overlap                                        |
+----------------------------------------------------------------------+
| sym | multi | state |    E / eV  | % singles | % doubles | % triples |
+======================================================================+
|    1|   1   |   1   |  411.76840 |  87.8789  |  12.1211  |   0.0000  |
+======================================================================+





+======================================================================+
| contributions of excitation levels to excited states as computed     |
| from the (LE|RE) overlap                                             |
+----------------------------------------------------------------------+
| sym | multi | state |    E / eV  | % singles | % doubles | % triples |
+======================================================================+
|    1|   1   |   1   |  411.76840 |  78.5702  |  21.4298  |   0.0000  |
+======================================================================+



 --------------------------
 Symmetry class Nr.:     1
 Multiplicity      :     3
 --------------------------

 Length of Excitation vectors in this class is:   8404200
 No Excitation Energies calculated in this symmetry class
     

   *******************************************************************
   *                                                                 *
   *--------   OUTPUT FROM PROPERTY AND SYMMETRY ANALYSIS   ---------*
   *                                                                 *
   *******************************************************************



                         +-------------------------------+
                         ! REQUESTED PROPERTY OPERATORS: !
                         +-------------------------------+

             Index   Oper. Label  Symmetry  Transp.  PDBS  Atom
             --------------------------------------------------
                1     HAM0            1        1      T      0
                2     XDIPLEN         1        1      F      0
                3     YDIPLEN         1        1      F      0
                4     ZDIPLEN         1        1      F      0
             --------------------------------------------------




                         +-------------------------------+
                         ! REQUESTED EXPECTATION VALUES: !
                         +-------------------------------+

                       Index   Oper. Label  Symmetry
                       -----------------------------
                       -----------------------------




                       +------------------------------------+
                       ! REQUESTED EFFECTIVE FOCK MATRICES: !
                       +------------------------------------+

                       Index   Oper. Label  Symmetry
                       -----------------------------
                       -----------------------------




                        +----------------------------------+
                        ! REQUESTED FIRST ORDER M-VECTORS: !
                        +----------------------------------+

               Index   State Symmetry  Frequency
               --------------------------------------------------
                  1             1    1     1.513221D+01
               --------------------------------------------------


      

    *******************************************************************
    *          SOLVING COUPLED CLUSTER RESPONSE EQUATIONS             *
    *******************************************************************



 
 +======================================================================+
 !                     RHS & ETA VECTORS TO COMPUTE:                    !
 +======================================================================+
 | TYPE | # VEC. |  NEEDED FOR:                                         |
 +----------------------------------------------------------------------+
 +======================================================================+



 +======================================================================+
 !                       LINEAR EQUATIONS TO SOLVE:                     !
 +======================================================================+
 | TYPE | # VEC. |  EQUATION:                                           |
 +----------------------------------------------------------------------+
 |  M1  |    1   |  first-order ground - excited state multipliers      |
 +======================================================================+



 +======================================================================+
 !                F MATRIX TRANSFORMATIONS TO COMPUTE:                  !
 +======================================================================+
 | TYPE | # VEC. |  TRANSFORMED:                                        |
 +----------------------------------------------------------------------+
 |  FR  |    1   |  right eigenvectors (RE)                             |
 +======================================================================+





 Testing R1 list: 

 List nr.  Label     Symmetry      Frequency      T1-norm        T2-norm


 Testing L1 list: 

 List nr.  Label     Symmetry      Frequency      T1-norm        T2-norm
  Solvent 1-order response equations converged in                     0 
  solvent iterations
 SONIAPRI                     0
 CCEQ_STR: CVSEPARATION =  T
 CCEQ_STR: IONIZATION =  T
 CCEQ_STR: REMOVE_CORE =  F
 could not find required file CCM1_1___1
 IOPTSV is    33 ... program continues nevertheless.
 Vector nr.  1 of type M1  and symmetry  1 was not found on file.
     M1  start vector nr.  1 of symmetry  1 generated from gradient
 CCEQ_STR: freeze VALENCE OR VIRT
 CCEQ_SOL: CVSEPARA=     T
 CCEQ_SOL: LIONISAT=     T
 CCEQ_SOL: REMOVE_CORE =  F



 ----- COUPLED CLUSTER RESPONSE SOLVER -----

    Iter  #Vectors  time (min)   residual
    --------------------------------------
 CCRED CVS/IONIS sigma_                     1 
 project out valence occupied or virtual
      1       1         1.74     0.22E+01
 CCRED CVS/IONIS sigma_                     2 
 project out valence occupied or virtual
      2       1         1.73     0.40E+00
 CCRED CVS/IONIS sigma_                     3 
 project out valence occupied or virtual
      3       1         1.70     0.50E-01
 CCRED CVS/IONIS sigma_                     4 
 project out valence occupied or virtual
                    -1  vectors with norm le:  1.000000000000000E-035  REMOVED

 CCORT,**WARNING**  number vectors added is zero after check for vector norm , NBADD :    0

 CCORT, number vectors added is zero , NBADD :    0

 CCORT, number vectors added is zero , NBADD :    0

 CCORT, number vectors added is zero , NBADD :    0

 CCORT, number vectors added is zero , NBADD :    0

 *** MICROITERATIONS STOPPED DUE TO LINEAR DEPENDENCE BETWEEN ALL NEW TRIAL VECTORS
                     0  trial vectors converged
  LINEAR DEPENDENCE BETWEEN                     1  NON CONVERGED TRIAL VECTORS
      4       1         1.65     0.56E-02

 ***  CCEQ_SOL -MICROITERATIONS STOPPED  
     LINEAR DEPENDENCE BETWEEN ALL NEW TRIAL VECTORS
    --------------------------------------
    converged in  4 iterations
    threshold:    0.10E-08


         Routine          Time (min)
         ---------------------------
         CC_TRDRV            6.83
         CCRED               0.03
         CCNEX               0.05
         ---------------------------
         Total time          6.91


  Total CPU  time used in CCEQ_SOLV:  6 minutes 54 seconds
  Total wall time used in CCEQ_SOLV:  7 minutes  9 seconds


 xxxxxxxxxxxxxxxxxxxxxxxxxxxxxxxxxxxxx

 
 Solution of CC response equations completed.
 

 *******************************************************************
 *                                                                 *
 *--------  OUTPUT FROM COUPLED CLUSTER LINEAR RESPONSE   ---------*
 *                                                                 *
 *--------      CALCULATION OF SECOND ORDER RESIDUES      ---------*
 *                                                                 *
 *******************************************************************



                  +---------------------------------------------+
                  ! CC_SOPR: Calculation of CCSD       Residues !
                  +---------------------------------------------+

 Doing the Mf*CsiA
 Doing the Mf*CsiA
 Doing the Mf*CsiA


 CCSD  Right transition moments in atomic units:
 -----------------------------------------------

  1      15.132211  <XDIPLEN |f> =      -0.00000001
  1      15.132211  <YDIPLEN |f> =       0.00000005
  1      15.132211  <ZDIPLEN |f> =       0.00000004


 CCSD  Left  transition moments in atomic units:
 -----------------------------------------------

  1      15.132211  <f|XDIPLEN > =      -0.00000001
  1      15.132211  <f|YDIPLEN > =       0.00000002
  1      15.132211  <f|ZDIPLEN > =       0.00000002


 CCSD  linear response residue property in atomic units:
 -------------------------------------------------------

 RES{<<XDIPLEN ,XDIPLEN >>(15.132211)} =     0.00000000 (   0.00000001)
 RES{<<XDIPLEN ,YDIPLEN >>(15.132211)} =    -0.00000000 (  -0.00000002)
 RES{<<XDIPLEN ,ZDIPLEN >>(15.132211)} =    -0.00000000 (  -0.00000001)
 RES{<<YDIPLEN ,XDIPLEN >>(15.132211)} =    -0.00000000 (  -0.00000002)
 RES{<<YDIPLEN ,YDIPLEN >>(15.132211)} =     0.00000000 (   0.00000003)
 RES{<<YDIPLEN ,ZDIPLEN >>(15.132211)} =     0.00000000 (   0.00000003)
 RES{<<ZDIPLEN ,XDIPLEN >>(15.132211)} =    -0.00000000 (  -0.00000001)
 RES{<<ZDIPLEN ,YDIPLEN >>(15.132211)} =     0.00000000 (   0.00000003)
 RES{<<ZDIPLEN ,ZDIPLEN >>(15.132211)} =     0.00000000 (   0.00000003)


 CCSD  Transition strength matrix for state nr.  1 of symmetry 1
 CCSD  excitation energy:15.13221062

 Gauge: length

               Column   1     Column   2     Column   3
       1     6.214251D-17  -2.601054D-16  -2.092682D-16
       2    -2.601054D-16   1.088686D-15   8.759149D-16
       3    -2.092682D-16   8.759149D-16   7.047208D-16
    ==== End of matrix output ====

 Principal values of diagonalized transition strength matrix:

             a.u.               
 1       0.00000000
 2       0.00000000
 3       0.00000000

 Principal axis of diagonalized transition strength matrix:


               Column   1     Column   2     Column   3
       1       1.00000000     0.00000000     0.00000000
       2       0.00000000     1.00000000     0.00000000
       3       0.00000000     0.00000000     1.00000000
    ==== End of matrix output ====


 CCSD   oscillator strength matrix for state nr.  1 of symmetry 1
 CCSD  excitation energy:15.13221062


               Column   1     Column   2     Column   3
       1     6.269024D-16  -2.623979D-15  -2.111127D-15
       2    -2.623979D-15   1.098282D-14   8.836352D-15
       3    -2.111127D-15   8.836352D-15   7.109323D-15
    ==== End of matrix output ====

 Principal values of diagonalized oscillator strength matrix:

             a.u.               
 1       0.00000000
 2       0.00000000
 3       0.00000000

 Principal axis of diagonalized oscillator strength matrix:


               Column   1     Column   2     Column   3
       1       1.00000000     0.00000000     0.00000000
       2       0.00000000     1.00000000     0.00000000
       3       0.00000000     0.00000000     1.00000000
    ==== End of matrix output ====

  Total time for      9 linear response residues:       3.27 seconds.
  

 *******************************************************************************
 *******************************************************************************
 *                                                                             *
 *                                                                             *
 *                   SUMMARY OF COUPLED CLUSTER CALCULATION                    *
 *                                                                             *
 *                                                                             *
 *******************************************************************************
 *******************************************************************************

                                                                                
                                                                                
            Total SCF   energy:                  -361.1568120051                
            Total MP2   energy:                  -362.2688631436                
            Total CCSD  energy:                  -362.3096083601                
                                                                                
                                                                                
            Total SCF   energy:                  -361.1568120051                
            Total RSTAR energy:                  -362.3096083601                
            Total CCSD  energy:                  -362.3097523438                
                                                                                
                                                                                
            Total SCF   energy:                  -361.1568120051                
            Total RSTAR energy:                  -362.3097523438                
            Total CCSD  energy:                  -362.3097531853                
                                                                                
                                                                                
            Total SCF   energy:                  -361.1568120051                
            Total RSTAR energy:                  -362.3097531853                
            Total CCSD  energy:                  -362.3097533080                
                                                                                
                                                                                
            Total SCF   energy:                  -361.1568120051                
            Total RSTAR energy:                  -362.3097533080                
            Total CCSD  energy:                  -362.3097533118                
                                                                                
                                                                                
            Total SCF   energy:                  -361.1568120051                
            Total RSTAR energy:                  -362.3097533118                
            Total CCSD  energy:                  -362.3097533121                
            CCSD Total  energy:                  -362.6998901565                
            CCSD E(QM/MM)     :                    -0.3853393252                
                                                                                
                                                                                
                                                                                
 +=============================================================================+
 |  sym. | Exci.  |        CCSD       Excitation energies            | ||T1||  |
 |(spin, |        +------------------------------------------------------------+
 | spat) |        |     Hartree    |       eV.      |     cm-1       |    %    |
 +=============================================================================+
 | ^1A   |    1   |    15.1322106  |     411.76840  |   3321136.316  |  87.88  |
 +=============================================================================+
                                                                                
                                                                                
     Total energies in Hartree:                                                 
             1 ^1A       -347.1823402149                                        
                                                                                
                                                                                
 +=============================================================================+
 |  sym. | Exci.  |        CCSD       Length   Gauge Oscillator Strength       |
 |(spin, |        +------------------------------------------------------------+
 | spat) |        | Dipole Strength(a.u.) | Oscillator strength  | Direction   |
 +=============================================================================+
 | ^1A   |    1   |        0.0000000      |      0.0000000       |    -        |
 +=============================================================================+

  1 a.u. =        27.21138 eV.  
  1 a.u. =    219474.62934 cm-1.
  

 *******************************************************************************
 *******************************************************************************
 *                                                                             *
 *                                                                             *
 *                      END OF COUPLED CLUSTER CALCULATION                     *
 *                                                                             *
 *                                                                             *
 *******************************************************************************
 *******************************************************************************


 CPU and wall time for CC :    8063.079   10978.970

 
     Date and time (Linux)  : Sun Dec  2 20:10:03 2018
     Host name              : n-62-23-31                              


                      .-------------------------------------.
                      | End of Coupled Cluster Section (CC) |
                      `-------------------------------------'

  Total CPU  time used in DALTON:   2 hours 16 minutes 43 seconds
  Total wall time used in DALTON:   3 hours  6 minutes 25 seconds

 
     Date and time (Linux)  : Sun Dec  2 20:10:03 2018
     Host name              : n-62-23-31                              
  

 +---------------------------------------------------------+ 
 | List of selected calculated molecular properties (a.u.) | 
 +---------------------------------------------------------+ 

  Properties are read from unit number                      4

 CCSD       properties :
 #  1 1 CCSD/MM  Ground state Energy =    -362.6998901565
 #  2 1 E_QM/MM  Ground state Energy =      -0.3853393252
 #  3 1 Sy: 1 Sp: 1 Exc:  1 E_tot:   -347.1823402149 w:     15.1322106164 E_grs:   -362.3145508312
 #  4 1 Exctot   Excited state Energy =    -347.1823402149
 #  5 1 |<O|XDIPLEN |i(15.132211)>| =     0.00000001
 #  7 1 |<O|YDIPLEN |i(15.132211)>| =     0.00000003
 #  9 1 |<O|ZDIPLEN |i(15.132211)>| =     0.00000003

 THE_END   
