

     ************************************************************************
     *************** Dalton - An Electronic Structure Program ***************
     ************************************************************************

    This is output from DALTON release Dalton2017.alpha (2016)
         ( Web site: http://daltonprogram.org )

   ----------------------------------------------------------------------------

    NOTE:
     
    Dalton is an experimental code for the evaluation of molecular
    properties using (MC)SCF, DFT, CI, and CC wave functions.
    The authors accept no responsibility for the performance of
    the code or for the correctness of the results.
     
    The code (in whole or part) is provided under a licence and
    is not to be reproduced for further distribution without
    the written permission of the authors or their representatives.
     
    See the home page "http://daltonprogram.org" for further information.
     
    If results obtained with this code are published,
    the appropriate citations would be both of:
     
       K. Aidas, C. Angeli, K. L. Bak, V. Bakken, R. Bast,
       L. Boman, O. Christiansen, R. Cimiraglia, S. Coriani,
       P. Dahle, E. K. Dalskov, U. Ekstroem,
       T. Enevoldsen, J. J. Eriksen, P. Ettenhuber, B. Fernandez,
       L. Ferrighi, H. Fliegl, L. Frediani, K. Hald, A. Halkier,
       C. Haettig, H. Heiberg, T. Helgaker, A. C. Hennum,
       H. Hettema, E. Hjertenaes, S. Hoest, I.-M. Hoeyvik,
       M. F. Iozzi, B. Jansik, H. J. Aa. Jensen, D. Jonsson,
       P. Joergensen, J. Kauczor, S. Kirpekar,
       T. Kjaergaard, W. Klopper, S. Knecht, R. Kobayashi, H. Koch,
       J. Kongsted, A. Krapp, K. Kristensen, A. Ligabue,
       O. B. Lutnaes, J. I. Melo, K. V. Mikkelsen, R. H. Myhre,
       C. Neiss, C. B. Nielsen, P. Norman, J. Olsen,
       J. M. H. Olsen, A. Osted, M. J. Packer, F. Pawlowski,
       T. B. Pedersen, P. F. Provasi, S. Reine, Z. Rinkevicius,
       T. A. Ruden, K. Ruud, V. Rybkin, P. Salek, C. C. M. Samson,
       A. Sanchez de Meras, T. Saue, S. P. A. Sauer,
       B. Schimmelpfennig, K. Sneskov, A. H. Steindal,
       K. O. Sylvester-Hvid, P. R. Taylor, A. M. Teale,
       E. I. Tellgren, D. P. Tew, A. J. Thorvaldsen, L. Thoegersen,
       O. Vahtras, M. A. Watson, D. J. D. Wilson, M. Ziolkowski
       and H. Agren,
       "The Dalton quantum chemistry program system",
       WIREs Comput. Mol. Sci. 2014, 4:269–284 (doi: 10.1002/wcms.1172)
     
    and
     
       Dalton, a Molecular Electronic Structure Program,
       Release Dalton2017.alpha (2016), see http://daltonprogram.org
   ----------------------------------------------------------------------------

    Authors in alphabetical order (major contribution(s) in parenthesis):

  Kestutis Aidas,           Vilnius University,           Lithuania   (QM/MM)
  Celestino Angeli,         University of Ferrara,        Italy       (NEVPT2)
  Keld L. Bak,              UNI-C,                        Denmark     (AOSOPPA, non-adiabatic coupling, magnetic properties)
  Vebjoern Bakken,          University of Oslo,           Norway      (DALTON; geometry optimizer, symmetry detection)
  Radovan Bast,             UiT The Arctic U. of Norway,  Norway      (DALTON installation and execution frameworks)
  Pablo Baudin,             University of Valencia,       Spain       (Cholesky excitation energies)
  Linus Boman,              NTNU,                         Norway      (Cholesky decomposition and subsystems)
  Ove Christiansen,         Aarhus University,            Denmark     (CC module)
  Renzo Cimiraglia,         University of Ferrara,        Italy       (NEVPT2)
  Sonia Coriani,            University of Trieste,        Italy       (CC module, MCD in RESPONS)
  Janusz Cukras,            University of Trieste,        Italy       (MChD in RESPONS)
  Paal Dahle,               University of Oslo,           Norway      (Parallelization)
  Erik K. Dalskov,          UNI-C,                        Denmark     (SOPPA)
  Thomas Enevoldsen,        Univ. of Southern Denmark,    Denmark     (SOPPA)
  Janus J. Eriksen,         Aarhus University,            Denmark     (Polarizable embedding model, TDA)
  Rasmus Faber,             University of Copenhagen,     Denmark     (Vib.avg. NMR with SOPPA, parallel AO-SOPPA)
  Berta Fernandez,          U. of Santiago de Compostela, Spain       (doublet spin, ESR in RESPONS)
  Lara Ferrighi,            Aarhus University,            Denmark     (PCM Cubic response)
  Heike Fliegl,             University of Oslo,           Norway      (CCSD(R12))
  Luca Frediani,            UiT The Arctic U. of Norway,  Norway      (PCM)
  Bin Gao,                  UiT The Arctic U. of Norway,  Norway      (Gen1Int library)
  Christof Haettig,         Ruhr-University Bochum,       Germany     (CC module)
  Kasper Hald,              Aarhus University,            Denmark     (CC module)
  Asger Halkier,            Aarhus University,            Denmark     (CC module)
  Frederik Beyer Hansen,    University of Copenhagen,     Denmark     (Parallel AO-SOPPA)
  Erik D. Hedegaard,        Univ. of Southern Denmark,    Denmark     (Polarizable embedding model, QM/MM)
  Hanne Heiberg,            University of Oslo,           Norway      (geometry analysis, selected one-electron integrals)
  Trygve Helgaker,          University of Oslo,           Norway      (DALTON; ABACUS, ERI, DFT modules, London, and much more)
  Alf Christian Hennum,     University of Oslo,           Norway      (Parity violation)
  Hinne Hettema,            University of Auckland,       New Zealand (quadratic response in RESPONS; SIRIUS supersymmetry)
  Eirik Hjertenaes,         NTNU,                         Norway      (Cholesky decomposition)
  Pi A. B. Haase,           University of Copenhagen,     Denmark     (Triplet AO-SOPPA)
  Maria Francesca Iozzi,    University of Oslo,           Norway      (RPA)
  Brano Jansik              Technical Univ. of Ostrava    Czech Rep.  (DFT cubic response)
  Hans Joergen Aa. Jensen,  Univ. of Southern Denmark,    Denmark     (DALTON; SIRIUS, RESPONS, ABACUS modules, London, and much more)
  Dan Jonsson,              UiT The Arctic U. of Norway,  Norway      (cubic response in RESPONS module)
  Poul Joergensen,          Aarhus University,            Denmark     (RESPONS, ABACUS, and CC modules)
  Maciej Kaminski,          University of Warsaw,         Poland      (CPPh in RESPONS)
  Joanna Kauczor,           Linkoeping University,        Sweden      (Complex polarization propagator (CPP) module)
  Sheela Kirpekar,          Univ. of Southern Denmark,    Denmark     (Mass-velocity & Darwin integrals)
  Wim Klopper,              KIT Karlsruhe,                Germany     (R12 code in CC, SIRIUS, and ABACUS modules)
  Stefan Knecht,            ETH Zurich,                   Switzerland (Parallel CI and MCSCF)
  Rika Kobayashi,           Australian National Univ.,    Australia   (DIIS in CC, London in MCSCF)
  Henrik Koch,              NTNU,                         Norway      (CC module, Cholesky decomposition)
  Jacob Kongsted,           Univ. of Southern Denmark,    Denmark     (Polarizable embedding model, QM/MM)
  Andrea Ligabue,           University of Modena,         Italy       (CTOCD, AOSOPPA)
  Nanna H. List             Univ. of Southern Denmark,    Denmark     (Polarizable embedding model)
  Ola B. Lutnaes,           University of Oslo,           Norway      (DFT Hessian)
  Juan I. Melo,             University of Buenos Aires,   Argentina   (LRESC, Relativistic Effects on NMR Shieldings)
  Kurt V. Mikkelsen,        University of Copenhagen,     Denmark     (MC-SCRF and QM/MM)
  Rolf H. Myhre,            NTNU,                         Norway      (Cholesky, subsystems and ECC2)
  Christian Neiss,          Univ. Erlangen-Nuernberg,     Germany     (CCSD(R12))
  Christian B. Nielsen,     University of Copenhagen,     Denmark     (QM/MM)
  Patrick Norman,           Linkoeping University,        Sweden      (Cubic response and complex frequency response in RESPONS)
  Jeppe Olsen,              Aarhus University,            Denmark     (SIRIUS CI/density modules)
  Jogvan Magnus H. Olsen,   Univ. of Southern Denmark,    Denmark     (Polarizable embedding model, QM/MM)
  Anders Osted,             Copenhagen University,        Denmark     (QM/MM)
  Martin J. Packer,         University of Sheffield,      UK          (SOPPA)
  Filip Pawlowski,          Kazimierz Wielki University,  Poland      (CC3)
  Morten N. Pedersen,       Univ. of Southern Denmark,    Denmark     (Polarizable embedding model)
  Thomas B. Pedersen,       University of Oslo,           Norway      (Cholesky decomposition)
  Patricio F. Provasi,      University of Northeastern,   Argentina   (Analysis of coupling constants in localized orbitals)
  Zilvinas Rinkevicius,     KTH Stockholm,                Sweden      (open-shell DFT, ESR)
  Elias Rudberg,            KTH Stockholm,                Sweden      (DFT grid and basis info)
  Torgeir A. Ruden,         University of Oslo,           Norway      (Numerical derivatives in ABACUS)
  Kenneth Ruud,             UiT The Arctic U. of Norway,  Norway      (DALTON; ABACUS magnetic properties and much more)
  Pawel Salek,              KTH Stockholm,                Sweden      (DALTON; DFT code)
  Claire C. M. Samson       University of Karlsruhe       Germany     (Boys localization, r12 integrals in ERI)
  Alfredo Sanchez de Meras, University of Valencia,       Spain       (CC module, Cholesky decomposition)
  Trond Saue,               Paul Sabatier University,     France      (direct Fock matrix construction)
  Stephan P. A. Sauer,      University of Copenhagen,     Denmark     (SOPPA(CCSD), SOPPA prop., AOSOPPA, vibrational g-factors)
  Bernd Schimmelpfennig,    Forschungszentrum Karlsruhe,  Germany     (AMFI module)
  Kristian Sneskov,         Aarhus University,            Denmark     (Polarizable embedding model, QM/MM)
  Arnfinn H. Steindal,      UiT The Arctic U. of Norway,  Norway      (parallel QM/MM, Polarizable embedding model)
  Casper Steinmann,         Univ. of Southern Denmark,    Denmark     (QFIT, Polarizable embedding model)
  K. O. Sylvester-Hvid,     University of Copenhagen,     Denmark     (MC-SCRF)
  Peter R. Taylor,          VLSCI/Univ. of Melbourne,     Australia   (Symmetry handling ABACUS, integral transformation)
  Andrew M. Teale,          University of Nottingham,     England     (DFT-AC, DFT-D)
  David P. Tew,             University of Bristol,        England     (CCSD(R12))
  Olav Vahtras,             KTH Stockholm,                Sweden      (triplet response, spin-orbit, ESR, TDDFT, open-shell DFT)
  David J. Wilson,          La Trobe University,          Australia   (DFT Hessian and DFT magnetizabilities)
  Hans Agren,               KTH Stockholm,                Sweden      (SIRIUS module, RESPONS, MC-SCRF solvation model)
 --------------------------------------------------------------------------------

     Date and time (Linux)  : Fri Dec  7 19:39:11 2018
     Host name              : n-62-23-28                              

 * Work memory size             :  1280000000 =  9.537 gigabytes.

 * Directories for basis set searches:
   1) /zhome/d7/7/119775/My_Codes/dalton-private/build2016/basis/diffs
   2) /zhome/37/3/129401/NH3NH4/CCSD/AIMD_SAMPLING/nh4_4h2o_nd
   3) /zhome/9a/4/124800/source/dalton/build-mlcc/basis


Compilation information
-----------------------

 Who compiled             | rfaber
 Host                     | hpclogin1
 System                   | Linux-2.6.32-696.1.1.el6.x86_64
 CMake generator          | Unix Makefiles
 Processor                | x86_64
 64-bit integers          | ON
 MPI                      | OFF
 Fortran compiler         | /opt/intel/2016update2/compilers_and_libraries_201
                          | 6.2.181/linux/bin/intel64/ifort
 Fortran compiler version | ifort (IFORT) 16.0.2 20160204
 C compiler               | /opt/intel/2016update2/compilers_and_libraries_201
                          | 6.2.181/linux/bin/intel64/icc
 C compiler version       | icc (ICC) 16.0.2 20160204
 C++ compiler             | /opt/intel/2016update2/compilers_and_libraries_201
                          | 6.2.181/linux/bin/intel64/icpc
 C++ compiler version     | icpc (ICC) 16.0.2 20160204
 Static linking           | OFF
 Last Git revision        | bb4d1599ca5680a9f3980451fc8bbefdba436d59
 Git branch               | mlcc
 Configuration time       | 2017-06-13 16:11:03.928841


   Content of the .dal input file
 ----------------------------------

**DALTON
.RUN WAVE FUNCTIONS
*QMMM
.QMMM
**INTEGRALS
.DIPLEN
**WAVE FUNCTIONS
.CC
*PRINT
!To check the origin of excit
.PRINTL
   0 11
*SCF INP
.THRESH
1.0D-7
!*ORBITAL INPUT
!.MOSTART
!NEWORB
*CC INP
!.RESTART
.CCSD
.THRLEQ
 1.0D-9
.THRENR
 1.0D-10
.FROIMP
4
0
.PRINT
 1
.MAX IT
 1200
.MAXRED
 1200
.MXLRV
1199
*CCSLV
.CCMM
.MXSLIT
200
.MXINIT
4 5
*CCEXCI
.NCCEXC
 1
.IONISATION
1
1
.CVSEPARA
1
1
*CCLRSD
.DIPOLE
**END OF DALTON INPUT


   Content of the .mol file
 ----------------------------

ATOMBASIS


Atomtypes=5 Charge=1 Nosymm Angstrom
   7.00000    1    Basis=6-311G**
N          0.000000        0.000000        0.000000
   1.00000    4    Basis=6-311G**
H         -0.033284        0.976465       -0.371163
H          0.702519       -0.516071       -0.481021
H         -0.941052       -0.291740       -0.291726
H          0.092820       -0.056876        1.027483
   8.00000    4    Basis=6-311G**
O         -2.012579       -1.629528       -1.310735
O         -0.801238        2.341782       -1.244975
O         -0.213432       -0.672707        2.576378
O          1.873566       -1.924904       -0.969076
   1.00000    8    Basis=6-311G**
H         -2.222390       -2.484584       -0.790862
H         -2.802212       -0.971590       -1.234207
H         -0.391314        2.013884       -2.072904
H         -1.665311        2.773510       -1.385621
H          0.275567       -1.509361        2.693996
H          0.323418       -0.055957        3.141858
H          1.727570       -2.857517       -0.709184
H          2.820082       -1.693572       -0.790203
   0.00000    1    Basis=diffs
X          0.000000        0.000000        0.000000


       *******************************************************************
       *********** Output from DALTON general input processing ***********
       *******************************************************************

 --------------------------------------------------------------------------------
   Overall default print level:    0
   Print level for DALTON.STAT:    1

    HERMIT 1- and 2-electron integral sections will be executed
    "Old" integral transformation used (limited to max 255 basis functions)
    Wave function sections will be executed (SIRIUS module)
 --------------------------------------------------------------------------------


 Changes of defaults for *QMMM  :
 --------------------------------

 +------------------+
 |  WORD: | CHANGE: |
 +------------------+
 |   QMMM |       T |
 +------------------+
 


   ****************************************************************************
   *************** Output of molecule and basis set information ***************
   ****************************************************************************


    The two title cards from your ".mol" input:
    ------------------------------------------------------------------------
 1:                                                                         
 2:                                                                         
    ------------------------------------------------------------------------

  Coordinates are entered in Angstrom and converted to atomic units.
          - Conversion factor : 1 bohr = 0.52917721 A

  Atomic type no.    1
  --------------------
  Nuclear charge:   7.00000
  Number of symmetry independent centers:    1
  Number of basis sets to read;    2
  The basis set is "6-311G**" from the basis set library.
  Basis set file used for this atomic type with Z =   7 :
     "/zhome/9a/4/124800/source/dalton/build-mlcc/basis/6-311G**"

  Info about the basis set file: your basis has no documentation.
  Basis set: 6-311G**                                                                        

  Atomic type no.    2
  --------------------
  Nuclear charge:   1.00000
  Number of symmetry independent centers:    4
  Number of basis sets to read;    2
  The basis set is "6-311G**" from the basis set library.
  Basis set file used for this atomic type with Z =   1 :
     "/zhome/9a/4/124800/source/dalton/build-mlcc/basis/6-311G**"

  Info about the basis set file: your basis has no documentation.
  Basis set: 6-311G**                                                                        

  Atomic type no.    3
  --------------------
  Nuclear charge:   8.00000
  Number of symmetry independent centers:    4
  Number of basis sets to read;    2
  The basis set is "6-311G**" from the basis set library.
  Basis set file used for this atomic type with Z =   8 :
     "/zhome/9a/4/124800/source/dalton/build-mlcc/basis/6-311G**"

  Info about the basis set file: your basis has no documentation.
  Basis set: 6-311G**                                                                        

  Atomic type no.    4
  --------------------
  Nuclear charge:   1.00000
  Number of symmetry independent centers:    8
  Number of basis sets to read;    2
  The basis set is "6-311G**" from the basis set library.
  Basis set file used for this atomic type with Z =   1 :
     "/zhome/9a/4/124800/source/dalton/build-mlcc/basis/6-311G**"

  Info about the basis set file: your basis has no documentation.
  Basis set: 6-311G**                                                                        

  Atomic type no.    5
  --------------------
  Nuclear charge:   0.00000
  Number of symmetry independent centers:    1
  Number of basis sets to read;    2
  The basis set is "diffs" from the basis set library.
  Basis set file used for this atomic type with Z =   0 :
     "/zhome/9a/4/124800/source/dalton/build-mlcc/basis/diffs"

  Info about the basis set file: your basis has no documentation.
  Basis set: diffs                                                                           


                         SYMGRP: Point group information
                         -------------------------------

@    Point group: C1 


                                 Isotopic Masses
                                 ---------------

                           N          14.003074
                           H           1.007825
                           H           1.007825
                           H           1.007825
                           H           1.007825
                           O          15.994915
                           O          15.994915
                           O          15.994915
                           O          15.994915
                           H           1.007825
                           H           1.007825
                           H           1.007825
                           H           1.007825
                           H           1.007825
                           H           1.007825
                           H           1.007825
                           H           1.007825

                       Total mass:    90.076634 amu
                       Natural abundance:  98.500 %

 Center-of-mass coordinates (a.u.):   -0.431817   -0.731459   -0.344962


  Atoms and basis sets
  --------------------

  Number of atom types :    5
  Total number of atoms:   18

  label    atoms   charge   prim   cont     basis
  ----------------------------------------------------------------------
  N           1    7.0000    31    18      [11s5p1d|4s3p1d]                                   
  H           4    1.0000     8     6      [5s1p|3s1p]                                        
  O           4    8.0000    31    18      [11s5p1d|4s3p1d]                                   
  H           8    1.0000     8     6      [5s1p|3s1p]                                        
  X           1    0.0000     1     1      [1s|1s]                                            
  ----------------------------------------------------------------------
  total:     18   51.0000   252   163
  ----------------------------------------------------------------------
  Spherical harmonic basis used.

  Threshold for neglecting AO integrals:  1.00D-12


  Cartesian Coordinates (a.u.)
  ----------------------------

  Total number of coordinates:   54
  N       :     1  x   0.0000000000    2  y   0.0000000000    3  z   0.0000000000
  H       :     4  x  -0.0628976443    5  y   1.8452514206    6  z  -0.7013964177
  H       :     7  x   1.3275685076    8  y  -0.9752328511    9  z  -0.9089979504
  H       :    10  x  -1.7783305494   11  y  -0.5513086997   12  z  -0.5512822435
  H       :    13  x   0.1754043789   14  y  -0.1074800631   15  z   1.9416614681
  O       :    16  x  -3.8032231149   17  y  -3.0793616330   18  z  -2.4769301724
  O       :    19  x  -1.5141203809   20  y   4.4253266244   21  z  -2.3526617825
  O       :    22  x  -0.4033280263   23  y  -1.2712319924   24  z   4.8686488145
  O       :    25  x   3.5405266171   26  y  -3.6375413769   27  z  -1.8312882343
  H       :    28  x  -4.1997084429   29  y  -4.6951832945   30  z  -1.4945125827
  H       :    31  x  -5.2954132242   32  y  -1.8360390058   33  z  -2.3323132115
  H       :    34  x  -0.7394762889   35  y   3.8056892075   36  z  -3.9172208434
  H       :    37  x  -3.1469817029   38  y   5.2411743049   39  z  -2.6184442030
  H       :    40  x   0.5207461591   41  y  -2.8522789137   42  z   5.0909146218
  H       :    43  x   0.6111714439   44  y  -0.1057434048   45  z   5.9372511436
  H       :    46  x   3.2646341618   47  y  -5.3999245275   48  z  -1.3401635322
  H       :    49  x   5.3291826300   50  y  -3.2003872530   51  z  -1.4932672531
  X       :    52  x   0.0000000000   53  y   0.0000000000   54  z   0.0000000000

  Max    interatomic separation is    6.6089 Angstrom (   12.4890 Bohr)
  between atoms   16 and   13, "H     " and "H     ".

  Min HX interatomic separation is    0.9761 Angstrom (    1.8446 Bohr)

  Min YX interatomic separation is    2.6713 Angstrom (    5.0480 Bohr)


  Bond distances (Angstrom):
  --------------------------

                  atom 1     atom 2       distance
                  ------     ------       --------
  bond distance:  H          N            1.045157
  bond distance:  H          N            0.995612
  bond distance:  H          N            1.027519
  bond distance:  H          N            1.033234
  bond distance:  H          O            1.022453
  bond distance:  H          O            1.030660
  bond distance:  H          O            0.980317
  bond distance:  H          O            0.976111
  bond distance:  H          O            0.976188
  bond distance:  H          O            0.994161
  bond distance:  H          O            0.979094
  bond distance:  H          O            0.990658


  Bond angles (degrees):
  ----------------------

                  atom 1     atom 2     atom 3         angle
                  ------     ------     ------         -----
  bond angle:     H          N          H            109.583
  bond angle:     H          N          H             97.775
  bond angle:     H          N          H            114.044
  bond angle:     H          N          H            111.217
  bond angle:     H          N          H            112.863
  bond angle:     H          N          H            110.425
  bond angle:     H          O          H            109.809
  bond angle:     H          O          H            113.354
  bond angle:     H          O          H            101.108
  bond angle:     H          O          H            108.480




 Principal moments of inertia (u*A**2) and principal axes
 --------------------------------------------------------

   IA     311.828759         -0.457581    0.761914   -0.458374
   IB     387.187580         -0.088587    0.473880    0.876122
   IC     443.843907          0.884744    0.441503   -0.149342


 Rotational constants
 --------------------

               A                   B                   C

           1620.6940           1305.2562           1138.6413 MHz
            0.054061            0.043539            0.037981 cm-1


@  Nuclear repulsion energy :  203.404347081230 Hartree

  Number of floating/multiple basis set orbitals :    1


                     .---------------------------------------.
                     | Starting in Integral Section (HERMIT) |
                     `---------------------------------------'



 ***************************************************************************************
 ****************** Output from **INTEGRALS input processing (HERMIT) ******************
 ***************************************************************************************



    *************************************************************************
    ****************** Output from HERMIT input processing ******************
    *************************************************************************


 Default print level:        1

 * Nuclear model: Point charge

 Calculation of one- and two-electron Hamiltonian integrals.

 The following one-electron property integrals are calculated as requested:
          - overlap integrals
          - dipole length integrals

 Center of mass  (bohr):     -0.431816611314     -0.731459242177     -0.344962310778
 Operator center (bohr):      0.000000000000      0.000000000000      0.000000000000
 Gauge origin    (bohr):      0.000000000000      0.000000000000      0.000000000000
 Dipole origin   (bohr):      0.000000000000      0.000000000000      0.000000000000
 
  *********************************** 
  QMMM electrostatic potential: 
  Multipole order                                    0
  Isotropic polarization  
  *********************************** 
 
  ---------------- 
  QMMM information 
  ---------------- 
 
  MM coordinates in au 
  -------------------- 
     1      1.371034      3.029957     -6.442721
     2      1.456894      1.135965     -6.232334
     3      3.035577      3.603927     -5.808132
     4     11.287727      7.989259     -9.667659
     5      9.994308      9.635343     -9.636932
     6     10.174627      6.699072     -9.129371
     7      6.624905      4.907953     -5.483483
     8      7.534793      5.782738     -4.165389
     9      7.873402      4.024571     -6.547164
    10      9.141822      7.691028     -2.295885
    11      9.401767      6.903109     -0.528485
    12     10.837528      7.848526     -3.157764
    13     -9.441283     -8.866514     -8.958938
    14     -8.261662     -9.571361    -10.270488
    15     -9.177623     -7.019450     -9.142563
    16      5.398460      2.156297      0.156006
    17      5.440824      4.071789      0.690430
    18      6.046969      2.271220     -1.522431
    19     -9.529243      8.517309     -5.084951
    20    -10.479144      8.375495     -6.745778
    21     -9.163545     10.359008     -4.763907
    22     -1.184824    -10.716308      0.964072
    23     -0.495012    -12.347368      0.145375
    24     -1.801999    -11.088363      2.644407
    25      6.871484     -0.666079    -10.557297
    26      6.054543     -0.870302     -8.900005
    27      7.847526     -2.263181    -10.805084
    28      7.556353     11.076628      3.846214
    29      9.350338     11.095020      3.293086
    30      7.602869     10.230437      5.541251
    31     -0.587939      5.802298    -10.595163
    32     -1.120381      5.470105    -12.410975
    33     -0.506439      4.199926     -9.615868
    34     -7.496330      0.517129     -1.869827
    35     -8.582917      0.193608     -0.385262
    36     -7.022920      2.421669     -1.665204
    37      8.898594    -10.984507     -8.270129
    38     10.456739    -10.060435     -8.194100
    39      8.167496    -11.010926     -6.526462
    40      3.028296     -2.097296     -7.026735
    41      2.060312     -3.223608     -8.081514
    42      3.051664     -3.072483     -5.318243
    43    -10.829365     -0.691315     -5.848094
    44     -9.728372     -1.719993     -7.111240
    45     -9.503669     -0.044573     -4.566162
    46     10.915733     -7.575196     -1.910258
    47      9.489870     -8.690051     -2.561369
    48      9.997437     -6.004512     -2.067935
    49     10.344055      5.165060      2.161807
    50     12.072039      5.943325      2.610993
    51      9.518084      5.397751      3.773802
    52      5.624496     11.703822      9.689367
    53      4.035784     11.504883      8.634718
    54      5.371465     10.640600     11.164455
    55    -11.412956     -0.314872      1.615988
    56    -10.909332     -0.807287      3.460385
    57    -12.225063      1.333812      1.593723
    58      1.909876     11.683275     -6.428198
    59      3.152606     10.787116     -7.608054
    60      0.217721     11.013717     -6.920583
    61     -6.275697     -0.373028      9.922727
    62     -4.787054     -0.121687     10.875933
    63     -5.706368     -1.813419      8.682078
    64     -4.285470     -4.130000      6.896108
    65     -3.039211     -3.110780      6.037488
    66     -3.323017     -5.294627      8.047971
    67     -8.696161     -9.871393     -3.678855
    68     -8.607432     -9.270692     -5.472662
    69    -10.418854     -9.136550     -2.998041
    70     -2.840530      9.493389     -7.493822
    71     -3.244053      8.458049     -6.028980
    72     -2.207155      8.115349     -8.633027
    73      9.943325     -5.215264     10.566048
    74     10.551038     -4.329138      9.012933
    75     11.081779     -6.555314     11.159424
    76     -1.620714     -8.048960      9.734093
    77     -2.968871     -9.231116     10.044206
    78     -0.768463     -7.810610     11.374917
    79      4.444447      6.856949      2.257285
    80      5.750607      8.013669      2.947891
    81      3.360681      7.720179      0.893631
    82     -3.038872     -3.835539     -7.213383
    83     -1.822386     -5.277746     -7.506264
    84     -3.396337     -3.664557     -5.315907
    85      6.798259     -0.902565      3.959511
    86      6.766775      0.328000      2.587343
    87      5.582646     -0.379198      5.190800
    88      5.192659     -6.837296     11.450179
    89      5.314394     -8.674196     11.105219
    90      6.950503     -6.263257     11.279824
    91      2.560483     -2.142475      9.587981
    92      2.917501     -3.951491      9.630316
    93      4.126022     -1.392566     10.309223
    94      5.408224      4.822335     10.215884
    95      4.706858      6.160452     11.471216
    96      6.433013      3.611569     11.131762
    97     -5.728136      7.978146      6.103050
    98     -7.335225      7.860968      7.249885
    99     -4.587376      6.726800      6.724254
   100     -6.622120     -8.100056      3.896166
   101     -5.640145     -7.829980      2.381059
   102     -6.187534     -6.687127      5.074189
   103     -5.374468    -11.503509    -11.637088
   104     -6.478406    -12.675021    -12.561002
   105     -4.841622    -12.437558    -10.047780
   106     11.067495     -9.638427      7.949250
   107      9.323729    -10.163758      8.548471
   108     11.320947    -10.289818      6.285775
   109     -9.738101      8.871433      9.420266
   110    -10.477486      8.440326     11.127216
   111    -10.285165     10.638965      8.951183
   112     -4.875703     -7.807309     -0.768633
   113     -3.631326     -9.274802     -0.563327
   114     -6.181349     -8.423707     -2.015931
   115     11.123661     -1.894613      6.859128
   116     11.259886     -0.314122      7.973527
   117      9.764899     -1.473331      5.663539
   118      6.657482     -7.591132      3.651675
   119      7.396694     -9.217396      4.162587
   120      7.287880     -6.273033      4.838398
   121      0.720857      9.628425      7.915309
   122      0.905816      8.495825      6.489920
   123     -0.454827     10.973054      7.404554
   124      8.869505     -2.481409     -2.373897
   125      9.775738     -2.065745     -0.707857
   126     10.041528     -1.719176     -3.632367
   127     -2.743916      4.290120      7.680697
   128     -1.065962      3.892532      6.907448
   129     -3.798661      2.694417      7.558591
   130    -10.865470      2.477522      9.489127
   131    -11.227522      2.455259     11.426486
   132     -9.242407      1.529924      9.439142
   133     10.624711      2.509579     -9.079010
   134      9.224675      1.481700     -9.853540
   135     11.249672      1.310667     -7.701150
   136      2.177991      3.340595      5.857030
   137      2.996675      4.377239      4.561226
   138      3.254651      3.709239      7.404053
   139     -1.563601      0.058648    -10.600545
   140     -0.210383     -0.792273    -11.529707
   141     -2.106750     -0.957343     -9.211056
   142      1.471834     -5.978281      5.200029
   143      3.035747     -6.500989      4.326581
   144      0.254748     -7.447611      5.151195
   145      1.153207     -7.002499     -9.068588
   146      1.902960     -8.395137     -8.022486
   147      2.546323     -6.718711    -10.300997
   148     -7.822215     -3.682354     -9.230397
   149     -7.701979     -3.122349    -10.996541
   150     -6.018065     -3.566484     -8.524417
   151      3.890699      7.804452     -9.606334
   152      2.072731      7.271727     -9.612517
   153      4.721743      6.910386     -8.265458
   154      9.023718      7.401071      6.759029
   155      8.303184      6.914570      8.547611
   156     10.855371      7.649780      7.376329
   157      7.251437    -10.944031     -3.070607
   158      5.772448    -10.725093     -1.957819
   159      8.123634    -12.431716     -2.486838
   160      3.435526     -9.077715     -0.062425
   161      4.377248     -8.849661      1.500756
   162      1.638840     -9.602974      0.548247
   163    -10.996638    -10.505314      2.391341
   164    -11.673893     -9.192114      1.189936
   165     -9.511819     -9.636076      3.077143
   166     -6.319998      5.733733     -2.645040
   167     -7.427483      6.701496     -3.945264
   168     -6.570173      6.780129     -1.145648
   169     -3.018707    -11.243508      5.627652
   170     -4.269190    -12.621435      5.652938
   171     -4.181306     -9.770011      5.666950
   172     -8.499848      8.199716      1.682244
   173     -9.343904      9.842094      1.531264
   174     -7.341437      8.164305      3.230105
   175      1.309578      8.782691     -1.633525
   176      0.511220      7.314888     -2.446636
   177      2.280822      9.623183     -2.975400
 
  MM charges 
  ---------- 
     1     -0.674440
     2      0.337220
     3      0.337220
     4     -0.674440
     5      0.337220
     6      0.337220
     7     -0.674440
     8      0.337220
     9      0.337220
    10     -0.674440
    11      0.337220
    12      0.337220
    13     -0.674440
    14      0.337220
    15      0.337220
    16     -0.674440
    17      0.337220
    18      0.337220
    19     -0.674440
    20      0.337220
    21      0.337220
    22     -0.674440
    23      0.337220
    24      0.337220
    25     -0.674440
    26      0.337220
    27      0.337220
    28     -0.674440
    29      0.337220
    30      0.337220
    31     -0.674440
    32      0.337220
    33      0.337220
    34     -0.674440
    35      0.337220
    36      0.337220
    37     -0.674440
    38      0.337220
    39      0.337220
    40     -0.674440
    41      0.337220
    42      0.337220
    43     -0.674440
    44      0.337220
    45      0.337220
    46     -0.674440
    47      0.337220
    48      0.337220
    49     -0.674440
    50      0.337220
    51      0.337220
    52     -0.674440
    53      0.337220
    54      0.337220
    55     -0.674440
    56      0.337220
    57      0.337220
    58     -0.674440
    59      0.337220
    60      0.337220
    61     -0.674440
    62      0.337220
    63      0.337220
    64     -0.674440
    65      0.337220
    66      0.337220
    67     -0.674440
    68      0.337220
    69      0.337220
    70     -0.674440
    71      0.337220
    72      0.337220
    73     -0.674440
    74      0.337220
    75      0.337220
    76     -0.674440
    77      0.337220
    78      0.337220
    79     -0.674440
    80      0.337220
    81      0.337220
    82     -0.674440
    83      0.337220
    84      0.337220
    85     -0.674440
    86      0.337220
    87      0.337220
    88     -0.674440
    89      0.337220
    90      0.337220
    91     -0.674440
    92      0.337220
    93      0.337220
    94     -0.674440
    95      0.337220
    96      0.337220
    97     -0.674440
    98      0.337220
    99      0.337220
   100     -0.674440
   101      0.337220
   102      0.337220
   103     -0.674440
   104      0.337220
   105      0.337220
   106     -0.674440
   107      0.337220
   108      0.337220
   109     -0.674440
   110      0.337220
   111      0.337220
   112     -0.674440
   113      0.337220
   114      0.337220
   115     -0.674440
   116      0.337220
   117      0.337220
   118     -0.674440
   119      0.337220
   120      0.337220
   121     -0.674440
   122      0.337220
   123      0.337220
   124     -0.674440
   125      0.337220
   126      0.337220
   127     -0.674440
   128      0.337220
   129      0.337220
   130     -0.674440
   131      0.337220
   132      0.337220
   133     -0.674440
   134      0.337220
   135      0.337220
   136     -0.674440
   137      0.337220
   138      0.337220
   139     -0.674440
   140      0.337220
   141      0.337220
   142     -0.674440
   143      0.337220
   144      0.337220
   145     -0.674440
   146      0.337220
   147      0.337220
   148     -0.674440
   149      0.337220
   150      0.337220
   151     -0.674440
   152      0.337220
   153      0.337220
   154     -0.674440
   155      0.337220
   156      0.337220
   157     -0.674440
   158      0.337220
   159      0.337220
   160     -0.674440
   161      0.337220
   162      0.337220
   163     -0.674440
   164      0.337220
   165      0.337220
   166     -0.674440
   167      0.337220
   168      0.337220
   169     -0.674440
   170      0.337220
   171      0.337220
   172     -0.674440
   173      0.337220
   174      0.337220
   175     -0.674440
   176      0.337220
   177      0.337220
 
  MM isotropic polarizabilities in au 
  ----------------------------------- 
     1      5.739350
     2      2.308390
     3      2.308390
     4      5.739350
     5      2.308390
     6      2.308390
     7      5.739350
     8      2.308390
     9      2.308390
    10      5.739350
    11      2.308390
    12      2.308390
    13      5.739350
    14      2.308390
    15      2.308390
    16      5.739350
    17      2.308390
    18      2.308390
    19      5.739350
    20      2.308390
    21      2.308390
    22      5.739350
    23      2.308390
    24      2.308390
    25      5.739350
    26      2.308390
    27      2.308390
    28      5.739350
    29      2.308390
    30      2.308390
    31      5.739350
    32      2.308390
    33      2.308390
    34      5.739350
    35      2.308390
    36      2.308390
    37      5.739350
    38      2.308390
    39      2.308390
    40      5.739350
    41      2.308390
    42      2.308390
    43      5.739350
    44      2.308390
    45      2.308390
    46      5.739350
    47      2.308390
    48      2.308390
    49      5.739350
    50      2.308390
    51      2.308390
    52      5.739350
    53      2.308390
    54      2.308390
    55      5.739350
    56      2.308390
    57      2.308390
    58      5.739350
    59      2.308390
    60      2.308390
    61      5.739350
    62      2.308390
    63      2.308390
    64      5.739350
    65      2.308390
    66      2.308390
    67      5.739350
    68      2.308390
    69      2.308390
    70      5.739350
    71      2.308390
    72      2.308390
    73      5.739350
    74      2.308390
    75      2.308390
    76      5.739350
    77      2.308390
    78      2.308390
    79      5.739350
    80      2.308390
    81      2.308390
    82      5.739350
    83      2.308390
    84      2.308390
    85      5.739350
    86      2.308390
    87      2.308390
    88      5.739350
    89      2.308390
    90      2.308390
    91      5.739350
    92      2.308390
    93      2.308390
    94      5.739350
    95      2.308390
    96      2.308390
    97      5.739350
    98      2.308390
    99      2.308390
   100      5.739350
   101      2.308390
   102      2.308390
   103      5.739350
   104      2.308390
   105      2.308390
   106      5.739350
   107      2.308390
   108      2.308390
   109      5.739350
   110      2.308390
   111      2.308390
   112      5.739350
   113      2.308390
   114      2.308390
   115      5.739350
   116      2.308390
   117      2.308390
   118      5.739350
   119      2.308390
   120      2.308390
   121      5.739350
   122      2.308390
   123      2.308390
   124      5.739350
   125      2.308390
   126      2.308390
   127      5.739350
   128      2.308390
   129      2.308390
   130      5.739350
   131      2.308390
   132      2.308390
   133      5.739350
   134      2.308390
   135      2.308390
   136      5.739350
   137      2.308390
   138      2.308390
   139      5.739350
   140      2.308390
   141      2.308390
   142      5.739350
   143      2.308390
   144      2.308390
   145      5.739350
   146      2.308390
   147      2.308390
   148      5.739350
   149      2.308390
   150      2.308390
   151      5.739350
   152      2.308390
   153      2.308390
   154      5.739350
   155      2.308390
   156      2.308390
   157      5.739350
   158      2.308390
   159      2.308390
   160      5.739350
   161      2.308390
   162      2.308390
   163      5.739350
   164      2.308390
   165      2.308390
   166      5.739350
   167      2.308390
   168      2.308390
   169      5.739350
   170      2.308390
   171      2.308390
   172      5.739350
   173      2.308390
   174      2.308390
   175      5.739350
   176      2.308390
   177      2.308390


     ************************************************************************
     ************************** Output from HERINT **************************
     ************************************************************************



                      Nuclear contribution to dipole moments
                      --------------------------------------

                 au               Debye          C m (/(10**-30)

      x    -21.43525981       -54.48299248      -181.73570091
      y    -37.33393010       -94.89337899      -316.53024103
      z    -16.72562200       -42.51228797      -141.80572871



 Threshold for neglecting two-electron integrals:  1.00D-12
 HERMIT - Number of two-electron integrals written:    39468156 ( 44.2% )
 HERMIT - Megabytes written:                            451.933

  Time used in TWOINT     is       7.31 seconds
  Total CPU  time used in HERMIT:   7.49 seconds
  Total wall time used in HERMIT:  17.33 seconds


                        .----------------------------------.
                        | End of Integral Section (HERMIT) |
                        `----------------------------------'



                   .--------------------------------------------.
                   | Starting in Wave Function Section (SIRIUS) |
                   `--------------------------------------------'

NCCEXCI for singlet:    1
 CCSD_INPUT: core-val requested
 Requested number of virtual orbs per sym
                     1
 Indices of requested virtual orbs
                     1
 CCSD_INPUT: core-val requested
 Requested number of core orbs per sym
                     1
 Indices of requested core orbs
                     1

 *** Output from Huckel module :

     Using EWMO model:          T
     Using EHT  model:          F
     Number of Huckel orbitals each symmetry:   37

 EWMO - Energy Weighted Maximum Overlap - is a Huckel type method,
        which normally is better than Extended Huckel Theory.
 Reference: Linderberg and Ohrn, Propagators in Quantum Chemistry (Wiley, 1973)

 Huckel EWMO eigenvalues for symmetry :  1
          -20.684748     -20.684695     -20.684596     -20.684028     -15.676164
           -1.836021      -1.625386      -1.605266      -1.577546      -1.479519
           -0.837052      -0.808763      -0.796911      -0.791715      -0.765395
           -0.755440      -0.728327      -0.686756      -0.677814      -0.653706
           -0.643242      -0.612197      -0.574359      -0.565499      -0.547467
           -0.264763      -0.246738      -0.240582      -0.237104      -0.189031
           -0.177565      -0.176039      -0.172838      -0.170128      -0.147983
           -0.137116      -0.133301

 **********************************************************************
 *SIRIUS* a direct, restricted step, second order MCSCF program       *
 **********************************************************************

 
     Date and time (Linux)  : Fri Dec  7 19:39:42 2018
     Host name              : n-62-23-28                              

 Title lines from ".mol" input file:
                                                                             
                                                                             

 Print level on unit LUPRI =   2 is   0
 Print level on unit LUW4  =   2 is  11

@    (Integral direct) CC calculation.

@    This is a combination run starting with
@              a restricted, closed shell Hartree-Fock calculation


 Initial molecular orbitals are obtained according to
 ".MOSTART EWMO  " input option

@    QM part is embedded in an environment :

@         Model: QMMM

     Wave function specification
     ============================

     For the specification of the Coupled Cluster: see later.

@    Wave function type        --- CC ---
@    Number of closed shell electrons          50
@    Number of electrons in active shells       0
@    Total charge of the molecule               1

@    Spin multiplicity and 2 M_S                1         0
@    Total number of symmetries                 1 (point group: C1 )
@    Reference state symmetry                   1 (irrep name : A  )

     Orbital specifications
     ======================
@    Abelian symmetry species          All |    1
@                                          |  A  
                                       --- |  ---
@    Occupied SCF orbitals              25 |   25
@    Secondary orbitals                138 |  138
@    Total number of orbitals          163 |  163
@    Number of basis functions         163 |  163

     Optimization information
     ========================
@    Number of configurations                 1
@    Number of orbital rotations           3450
     ------------------------------------------
@    Total number of variables             3451

     Maximum number of Fock   iterations      0
     Maximum number of DIIS   iterations     60
     Maximum number of QC-SCF iterations     60
     Threshold for SCF convergence     1.00D-07


 Changes of defaults for CC:
 ---------------------------


 -Implicit frozen core calculation
 -Excitation energies calculated
 -One-photon absorption strengths will be calculated
 -Oscillator strengths calculated
  
* Read MO coefficients from SIRIUS.RST with label "NEWORB  " and header info:  7Dec18  REORTHO 


 ***********************************************
 ***** DIIS acceleration of SCF iterations *****
 ***********************************************

 C1-DIIS algorithm; max error vectors =    8
 -----------------------------------------------------------------------------

 *** DIIS iteration number    1
 RDSUPM called. NFMAT, ISYMDM(1:NFMAT)                     1
                     1

Calculating AOSUPINT
     (Precalculated two-electron integrals are transformed to P-supermatrix elements.
      Threshold for discarding integrals :  1.00D-12 )
  CPU  time used in FORMSUP    is   2.58 seconds
  WALL time used in FORMSUP    is  52.47 seconds

 ITDIIS, energy, error norm, change in energy, scr.thr., difden:
@ DIIS iter.   1    -360.254338650        4.00079D+00   -3.60D+02  -20    F

 (DIIS_RED) Control Parameters C2DIIS =         F NEVC =    1


 (DIIS_RED) B matrix:

               Column   1
       1      16.00633775
    ==== End of matrix output ====

 DIIS C vector; C2DIIS = F, LAMBDA = -1.60D+01
    1.000000
* Read MO coefficients from SIRIUS.RST with label "NEWORB  " and header info:  7Dec18  DIIS   1
      Virial theorem: -V/T =      2.002723
@      MULPOP N       0.10; H       0.18; H       0.16; H       0.17; H       0.18; O      -0.61; O      -0.58; O      -0.58; O      -0.58; H       0.32; 
@             H       0.33; H       0.33; H       0.30; H       0.33; H       0.33; H       0.31; H       0.32; 
   1  Level shift: doubly occupied orbital energies shifted by -2.00D-01

 DIIS Fock eigenvalues in symmetry 1
      -20.85498      -20.84889      -20.80730      -20.80240      -16.45701
       -1.74211       -1.67517       -1.66600       -1.62238       -1.61200
       -1.22569       -1.22125       -1.18592       -1.05046       -1.03863
       -1.01157       -0.98941       -0.92080       -0.91315       -0.88511
       -0.87672       -0.87563       -0.85953       -0.84373       -0.83361
       -0.00366       -0.00005        0.05265        0.06535        0.07823
        0.12166        0.15305        0.15926        0.16828        0.17328
        0.20289        0.21371        0.22597        0.25978        0.27489
        0.29583        0.41501        0.43871        0.45751        0.47102
        0.48461        0.48808        0.50159        0.50800        0.55519
        0.65021        0.68676        0.70585        0.81693        0.84318
        0.86568        0.88358        0.91926        0.93976        0.96591
        0.97776        0.99400        0.99991        1.01419        1.02839
        1.06349        1.09404        1.10123        1.22878        1.26368
        1.29266        1.30875        1.33702        1.36652        1.37143
        1.38004        1.40081        1.43107        1.49639        1.50580
        1.53817        1.55672        1.58069        1.60067        1.62241
        1.67374        1.70346        1.72923        1.76105        1.76456
        1.80518        1.88044        1.96817        1.98417        2.05611
        2.08262        2.10208        2.12428        2.15925        2.17260
        2.19103        2.20588        2.21772        2.24209        2.25937
        2.40362        2.42196        2.48492        2.51569        2.54597
        2.56626        2.59973        2.62897        2.65947        2.67975
        2.69946        2.72315        2.74937        2.77109        2.99351
        3.07039        3.09109        3.12323        3.28110        3.31305
        3.32933        3.34213        3.37247        3.37406        3.37630
        3.47447        3.47710        3.50515        3.52649        3.52890
        3.82657        3.86675        3.89402        3.96714        4.04032
        4.05732        4.09890        4.10196        4.66390        4.84417
        4.89163        5.20903        5.25464        5.28063        5.30511
        5.61683        5.68075        5.70541        5.74073        5.92638
        5.93143        5.98319        6.08676       36.40299       51.43409
       51.43610       51.44148       51.49731
 Time used in FCKEIG, thr_jaco:   4.70D-02  9.30D-02  1.70D-04
 CPU and wall times used in FCKEIG, THR_FCKEIG:   4.70D-02  9.30D-02  4.00D-02
 -----------------------------------------------------------------------------

 *** DIIS iteration number    2
 RDSUPM called. NFMAT, ISYMDM(1:NFMAT)                     1
                     1

 ITDIIS, energy, error norm, change in energy, scr.thr., difden:
@ DIIS iter.   2    -361.159664016        1.14474D+00   -9.05D-01  -20    F

 (DIIS_RED) Control Parameters C2DIIS =         F NEVC =    2


 (DIIS_RED) B matrix:

               Column   1     Column   2
       1      16.00633775
       2       0.84667109     1.31042675
    ==== End of matrix output ====

 DIIS C vector; C2DIIS = F, LAMBDA = -1.30D+00
    0.029683    0.970317
* Read MO coefficients from SIRIUS.RST with label "NEWORB  " and header info:  7Dec18  DIIS   2
      Virial theorem: -V/T =      2.002065
@      MULPOP N      -0.52; H       0.34; H       0.32; H       0.31; H       0.34; O      -0.66; O      -0.60; O      -0.59; O      -0.57; H       0.34; 
@             H       0.36; H       0.31; H       0.35; H       0.33; H       0.32; H       0.30; H       0.32; 
   2  Level shift: doubly occupied orbital energies shifted by -1.00D-01

 DIIS Fock eigenvalues in symmetry 1
      -20.79052      -20.79003      -20.77096      -20.74202      -15.62633
       -1.55996       -1.55466       -1.51410       -1.51168       -1.39272
       -0.92393       -0.91041       -0.90791       -0.89596       -0.88491
       -0.87126       -0.84317       -0.80581       -0.79403       -0.77234
       -0.75001       -0.73714       -0.73014       -0.71323       -0.69919
       -0.00005        0.05161        0.09766        0.10808        0.12326
        0.15993        0.19030        0.19444        0.20550        0.22484
        0.25878        0.27614        0.30307        0.34203        0.37503
        0.38569        0.45599        0.48806        0.49733        0.50497
        0.52210        0.53479        0.54413        0.55750        0.63532
        0.79390        0.82340        0.85128        0.87187        0.87553
        0.90903        0.94788        0.96390        0.99289        1.00525
        1.01811        1.03219        1.03617        1.04933        1.09129
        1.13500        1.18870        1.22216        1.27917        1.32271
        1.34378        1.36646        1.39446        1.42533        1.42910
        1.43560        1.45963        1.48604        1.56094        1.56629
        1.62168        1.64315        1.65133        1.68554        1.71264
        1.76288        1.76596        1.79701        1.81876        1.84310
        1.87303        1.99501        2.07130        2.08895        2.11034
        2.12796        2.14234        2.21618        2.22700        2.25126
        2.26951        2.29268        2.30934        2.34633        2.38939
        2.49675        2.53887        2.57540        2.60267        2.61880
        2.64838        2.69936        2.70002        2.73156        2.75428
        2.79363        2.79665        2.98556        2.99839        3.15095
        3.28728        3.30262        3.31132        3.35045        3.36549
        3.37715        3.39673        3.42053        3.42836        3.47499
        3.50116        3.53606        3.53667        3.55838        3.56467
        3.85897        3.89446        3.91209        3.99482        4.05932
        4.08504        4.12593        4.13100        5.05751        5.19039
        5.22212        5.23486        5.29311        5.32161        5.32950
        5.61313        5.68651        5.71237        5.75348        5.93209
        5.95748        6.00553        6.10881       37.11651       51.37479
       51.39946       51.40416       51.45987
 Time used in FCKEIG, thr_jaco:   2.80D-02  4.72D-01  4.87D-05
 CPU and wall times used in FCKEIG, THR_FCKEIG:   2.80D-02  4.72D-01  1.14D-02
 -----------------------------------------------------------------------------

 *** DIIS iteration number    3
 RDSUPM called. NFMAT, ISYMDM(1:NFMAT)                     1
                     1

 ITDIIS, energy, error norm, change in energy, scr.thr., difden:
@ DIIS iter.   3    -361.237283811        3.77291D-01   -7.76D-02  -20    F

 (DIIS_RED) Control Parameters C2DIIS =         F NEVC =    3


 (DIIS_RED) B matrix:

               Column   1     Column   2     Column   3
       1      16.00633775
       2       0.84667109     1.31042675
       3       0.83780159     0.00312995     0.14234851
    ==== End of matrix output ====

 DIIS C vector; C2DIIS = F, LAMBDA = -9.41D-02
   -0.049088    0.101269    0.947818
* Read MO coefficients from SIRIUS.RST with label "NEWORB  " and header info:  7Dec18  DIIS   3
      Virial theorem: -V/T =      2.002978
@      MULPOP N      -0.31; H       0.29; H       0.28; H       0.26; H       0.31; O      -0.74; O      -0.68; O      -0.66; O      -0.63; H       0.38; 
@             H       0.40; H       0.33; H       0.39; H       0.36; H       0.35; H       0.32; H       0.34; 
   3  Level shift: doubly occupied orbital energies shifted by -5.00D-02

 DIIS Fock eigenvalues in symmetry 1
      -20.70424      -20.69880      -20.67796      -20.65367      -15.78509
       -1.49171       -1.48829       -1.44654       -1.44275       -1.39278
       -0.88031       -0.87779       -0.85587       -0.84049       -0.83434
       -0.81146       -0.80262       -0.73743       -0.72883       -0.70082
       -0.67779       -0.66717       -0.66243       -0.64072       -0.62473
       -0.00005        0.05678        0.10326        0.11410        0.12855
        0.16495        0.19511        0.19742        0.20838        0.22933
        0.26165        0.27879        0.30267        0.34546        0.37382
        0.38571        0.46594        0.49610        0.50766        0.51541
        0.53262        0.54532        0.55568        0.56483        0.63689
        0.78381        0.81865        0.84175        0.88077        0.89005
        0.91304        0.95741        0.97734        1.00640        1.01731
        1.03055        1.04465        1.04930        1.06263        1.09870
        1.14160        1.18997        1.21321        1.28920        1.33589
        1.35352        1.37492        1.40834        1.43862        1.44305
        1.44864        1.46975        1.49670        1.57063        1.57797
        1.62959        1.65003        1.66049        1.69232        1.71712
        1.77230        1.77409        1.80365        1.83024        1.85090
        1.88277        1.99544        2.07386        2.09313        2.12504
        2.14311        2.15732        2.22885        2.24219        2.26746
        2.27532        2.30655        2.31432        2.34040        2.38880
        2.50551        2.54318        2.58380        2.61223        2.63031
        2.65475        2.70589        2.71028        2.74245        2.76477
        2.79773        2.80535        2.95384        2.96659        3.14325
        3.28241        3.30449        3.32388        3.33455        3.38676
        3.39230        3.41483        3.42721        3.43337        3.47048
        3.52623        3.54679        3.56077        3.58425        3.58872
        3.88390        3.91792        3.93742        4.02054        4.08697
        4.11062        4.15368        4.15838        4.97655        5.14066
        5.19404        5.24697        5.30156        5.33133        5.33964
        5.64412        5.71548        5.74204        5.78400        5.96434
        5.98898        6.03430        6.13957       36.91414       51.41776
       51.43639       51.44516       51.49838
 Time used in FCKEIG, thr_jaco:   2.60D-02  2.92D-01  1.61D-05
 CPU and wall times used in FCKEIG, THR_FCKEIG:   2.60D-02  2.92D-01  3.77D-03
 -----------------------------------------------------------------------------

 *** DIIS iteration number    4
 RDSUPM called. NFMAT, ISYMDM(1:NFMAT)                     1
                     1

 ITDIIS, energy, error norm, change in energy, scr.thr., difden:
@ DIIS iter.   4    -361.247837995        9.35387D-02   -1.06D-02  -20    F

 (DIIS_RED) Control Parameters C2DIIS =         F NEVC =    4


 (DIIS_RED) B matrix:

               Column   1     Column   2     Column   3     Column   4
       1      16.00633775
       2       0.84667109     1.31042675
       3       0.83780159     0.00312995     0.14234851
       4       0.05840651     0.07654341     0.00639843     0.00874949
    ==== End of matrix output ====

 DIIS C vector; C2DIIS = F, LAMBDA = -4.78D-03
    0.000309   -0.059255   -0.015193    1.074139
* Read MO coefficients from SIRIUS.RST with label "NEWORB  " and header info:  7Dec18  DIIS   4
      Virial theorem: -V/T =      2.002918
@      MULPOP N      -0.38; H       0.31; H       0.29; H       0.28; H       0.33; O      -0.76; O      -0.69; O      -0.67; O      -0.64; H       0.39; 
@             H       0.41; H       0.34; H       0.40; H       0.37; H       0.36; H       0.33; H       0.35; 
   4  Level shift: doubly occupied orbital energies shifted by -1.25D-02

 DIIS Fock eigenvalues in symmetry 1
      -20.67856      -20.67683      -20.65439      -20.62958      -15.71574
       -1.45931       -1.45498       -1.41321       -1.40996       -1.34376
       -0.83393       -0.83071       -0.82112       -0.80511       -0.79483
       -0.77367       -0.76654       -0.70237       -0.69242       -0.66586
       -0.64157       -0.62981       -0.62512       -0.60343       -0.58735
       -0.00005        0.05689        0.10271        0.11309        0.12837
        0.16456        0.19479        0.19795        0.20954        0.23034
        0.26330        0.28117        0.30644        0.34915        0.37992
        0.39116        0.46611        0.49685        0.50620        0.51452
        0.53104        0.54408        0.55424        0.56590        0.64042
        0.79053        0.82473        0.84793        0.88258        0.89072
        0.91510        0.95872        0.97711        1.00595        1.01735
        1.02920        1.04346        1.04866        1.06132        1.09897
        1.14132        1.19302        1.21813        1.29015        1.33507
        1.35529        1.37643        1.40623        1.43710        1.44129
        1.44688        1.46918        1.49606        1.57045        1.57795
        1.63022        1.65244        1.66089        1.69373        1.71999
        1.77283        1.77404        1.80538        1.82979        1.85271
        1.88250        2.00061        2.07823        2.09714        2.12224
        2.14009        2.15431        2.22828        2.23938        2.26448
        2.27774        2.30579        2.31432        2.34652        2.39292
        2.50645        2.54897        2.58532        2.61494        2.62992
        2.65522        2.70898        2.70993        2.74113        2.76322
        2.80122        2.80591        2.96455        2.97749        3.15075
        3.28798        3.30898        3.32393        3.34094        3.38571
        3.38974        3.41396        3.42591        3.43326        3.47299
        3.52286        3.54630        3.55798        3.58097        3.58509
        3.87959        3.91469        3.93358        4.01677        4.08333
        4.10770        4.15002        4.15425        4.99372        5.15413
        5.20694        5.24224        5.29822        5.32643        5.33472
        5.63779        5.70983        5.73603        5.77691        5.95702
        5.98084        6.02815        6.13267       36.94562       51.40424
       51.42463       51.43022       51.48534
 Time used in FCKEIG, thr_jaco:   2.60D-02  1.63D-01  3.98D-06
 CPU and wall times used in FCKEIG, THR_FCKEIG:   2.60D-02  1.63D-01  9.35D-04
 -----------------------------------------------------------------------------

 *** DIIS iteration number    5
 RDSUPM called. NFMAT, ISYMDM(1:NFMAT)                     1
                     1

 ITDIIS, energy, error norm, change in energy, scr.thr., difden:
@ DIIS iter.   5    -361.248871638        3.06253D-02   -1.03D-03  -20    F

 (DIIS_RED) Control Parameters C2DIIS =         F NEVC =    5


 (DIIS_RED) B matrix:

               Column   1     Column   2     Column   3     Column   4     Column   5
       1      16.00633775
       2       0.84667109     1.31042675
       3       0.83780159     0.00312995     0.14234851
       4       0.05840651     0.07654341     0.00639843     0.00874949
       5       0.02346207     0.00785726     0.00595640     0.00088315     0.00093791
    ==== End of matrix output ====

 DIIS C vector; C2DIIS = F, LAMBDA = -6.34D-04
    0.001443   -0.012609   -0.048450    0.113002    0.946615
* Read MO coefficients from SIRIUS.RST with label "NEWORB  " and header info:  7Dec18  DIIS   5
      Virial theorem: -V/T =      2.002555
@      MULPOP N      -0.37; H       0.31; H       0.29; H       0.27; H       0.32; O      -0.78; O      -0.70; O      -0.69; O      -0.65; H       0.40; 
@             H       0.42; H       0.35; H       0.41; H       0.37; H       0.36; H       0.33; H       0.36; 

 DIIS Fock eigenvalues in symmetry 1
      -20.65977      -20.65592      -20.63437      -20.60965      -15.69977
       -1.44385       -1.44023       -1.39807       -1.39478       -1.32971
       -0.81992       -0.81678       -0.80711       -0.79047       -0.78063
       -0.75948       -0.75234       -0.68763       -0.67800       -0.65109
       -0.62654       -0.61450       -0.60928       -0.58755       -0.57139
       -0.00005        0.05728        0.10307        0.11344        0.12875
        0.16486        0.19513        0.19831        0.21012        0.23087
        0.26397        0.28186        0.30733        0.35007        0.38101
        0.39225        0.46689        0.49770        0.50668        0.51516
        0.53157        0.54478        0.55487        0.56673        0.64145
        0.79201        0.82618        0.84918        0.88449        0.89278
        0.91679        0.96051        0.97860        1.00752        1.01882
        1.03068        1.04485        1.05019        1.06292        1.10029
        1.14263        1.19437        1.21947        1.29167        1.33611
        1.35697        1.37787        1.40669        1.43788        1.44190
        1.44747        1.47018        1.49667        1.57122        1.57876
        1.63097        1.65322        1.66162        1.69441        1.72082
        1.77322        1.77449        1.80604        1.83023        1.85341
        1.88293        2.00173        2.07930        2.09831        2.12323
        2.14084        2.15502        2.22928        2.24024        2.26525
        2.27897        2.30678        2.31534        2.34768        2.39379
        2.50707        2.54998        2.58592        2.61566        2.63049
        2.65564        2.70905        2.71079        2.74130        2.76318
        2.80218        2.80633        2.96595        2.97894        3.15211
        3.29007        3.31121        3.32664        3.34297        3.38828
        3.39258        3.41655        3.42845        3.43560        3.47554
        3.52559        3.54890        3.56025        3.58364        3.58804
        3.88263        3.91692        3.93625        4.01941        4.08628
        4.11019        4.15300        4.15746        4.99581        5.15669
        5.20952        5.24604        5.30241        5.33085        5.33923
        5.64198        5.71363        5.74004        5.78139        5.96098
        5.98520        6.03140        6.13652       36.94902       51.41163
       51.43102       51.43837       51.49267
 Time used in FCKEIG, thr_jaco:   2.30D-02  9.50D-02  1.30D-06
 CPU and wall times used in FCKEIG, THR_FCKEIG:   2.30D-02  9.50D-02  3.06D-04
 -----------------------------------------------------------------------------

 *** DIIS iteration number    6
 RDSUPM called. NFMAT, ISYMDM(1:NFMAT)                     1
                     1

 ITDIIS, energy, error norm, change in energy, scr.thr., difden:
@ DIIS iter.   6    -361.248960700        1.08480D-02   -8.91D-05  -20    F

 (DIIS_RED) Control Parameters C2DIIS =         F NEVC =    6


 (DIIS_RED) B matrix:

               Column   1     Column   2     Column   3     Column   4     Column   5     Column   6
       1      16.00633775
       2       0.84667109     1.31042675
       3       0.83780159     0.00312995     0.14234851
       4       0.05840651     0.07654341     0.00639843     0.00874949
       5       0.02346207     0.00785726     0.00595640     0.00088315     0.00093791
       6      -0.00536424    -0.00014980     0.00074561     0.00057384     0.00001801     0.00011768
    ==== End of matrix output ====

 DIIS C vector; C2DIIS = F, LAMBDA = -3.43D-05
    0.000756    0.006574   -0.008903   -0.130729    0.122861    1.009442
* Read MO coefficients from SIRIUS.RST with label "NEWORB  " and header info:  7Dec18  DIIS   6
      Virial theorem: -V/T =      2.002815
@      MULPOP N      -0.36; H       0.31; H       0.29; H       0.27; H       0.32; O      -0.78; O      -0.70; O      -0.69; O      -0.65; H       0.40; 
@             H       0.42; H       0.35; H       0.41; H       0.37; H       0.36; H       0.33; H       0.36; 

 DIIS Fock eigenvalues in symmetry 1
      -20.66155      -20.65840      -20.63662      -20.61175      -15.70179
       -1.44454       -1.44072       -1.39866       -1.39541       -1.33026
       -0.82051       -0.81736       -0.80769       -0.79116       -0.78125
       -0.76016       -0.75296       -0.68857       -0.67875       -0.65189
       -0.62719       -0.61486       -0.60979       -0.58789       -0.57166
       -0.00005        0.05715        0.10291        0.11326        0.12860
        0.16471        0.19499        0.19818        0.20997        0.23075
        0.26385        0.28172        0.30714        0.34990        0.38082
        0.39201        0.46663        0.49746        0.50640        0.51490
        0.53128        0.54450        0.55461        0.56648        0.64118
        0.79167        0.82587        0.84884        0.88415        0.89246
        0.91649        0.96017        0.97824        1.00711        1.01842
        1.03024        1.04442        1.04976        1.06253        1.09989
        1.14227        1.19402        1.21912        1.29129        1.33578
        1.35659        1.37748        1.40635        1.43752        1.44153
        1.44709        1.46979        1.49634        1.57087        1.57844
        1.63066        1.65297        1.66130        1.69410        1.72053
        1.77294        1.77418        1.80578        1.82996        1.85316
        1.88267        2.00154        2.07904        2.09807        2.12271
        2.14031        2.15449        2.22881        2.23974        2.26482
        2.27859        2.30635        2.31494        2.34737        2.39349
        2.50678        2.54983        2.58565        2.61545        2.63014
        2.65525        2.70871        2.71060        2.74099        2.76280
        2.80186        2.80609        2.96539        2.97840        3.15184
        3.28938        3.31048        3.32589        3.34225        3.38760
        3.39172        3.41581        3.42769        3.43490        3.47474
        3.52483        3.54816        3.55962        3.58295        3.58717
        3.88172        3.91623        3.93542        4.01862        4.08545
        4.10949        4.15218        4.15653        4.99485        5.15564
        5.20853        5.24507        5.30130        5.32965        5.33800
        5.64076        5.71256        5.73891        5.78006        5.95971
        5.98383        6.03038        6.13535       36.94703       51.40942
       51.42920       51.43596       51.49059
 Time used in FCKEIG, thr_jaco:   2.30D-02  9.00D-02  4.62D-07
 CPU and wall times used in FCKEIG, THR_FCKEIG:   2.30D-02  9.00D-02  1.08D-04
 -----------------------------------------------------------------------------

 *** DIIS iteration number    7
 RDSUPM called. NFMAT, ISYMDM(1:NFMAT)                     1
                     1

 ITDIIS, energy, error norm, change in energy, scr.thr., difden:
@ DIIS iter.   7    -361.248972797        2.18697D-03   -1.21D-05  -20    F

 (DIIS_RED) Control Parameters C2DIIS =         F NEVC =    7


 (DIIS_RED) B matrix:

               Column   1     Column   2     Column   3     Column   4     Column   5     Column   6
       1      16.00633775
       2       0.84667109     1.31042675
       3       0.83780159     0.00312995     0.14234851
       4       0.05840651     0.07654341     0.00639843     0.00874949
       5       0.02346207     0.00785726     0.00595640     0.00088315     0.00093791
       6      -0.00536424    -0.00014980     0.00074561     0.00057384     0.00001801     0.00011768
       7       0.00036493     0.00019296    -0.00000779     0.00000568     0.00004607     0.00000006

               Column   7
       7       0.00000478
    ==== End of matrix output ====

 DIIS C vector; C2DIIS = F, LAMBDA = -1.11D-06
   -0.000244   -0.000721    0.005275    0.021519   -0.096819   -0.126764    1.197754
* Read MO coefficients from SIRIUS.RST with label "NEWORB  " and header info:  7Dec18  DIIS   7
      Virial theorem: -V/T =      2.002752
@      MULPOP N      -0.36; H       0.31; H       0.29; H       0.27; H       0.32; O      -0.78; O      -0.71; O      -0.69; O      -0.66; H       0.40; 
@             H       0.42; H       0.35; H       0.41; H       0.38; H       0.36; H       0.33; H       0.36; 

 DIIS Fock eigenvalues in symmetry 1
      -20.66135      -20.65808      -20.63625      -20.61152      -15.70138
       -1.44439       -1.44060       -1.39853       -1.39523       -1.33006
       -0.82036       -0.81721       -0.80761       -0.79105       -0.78113
       -0.76006       -0.75283       -0.68852       -0.67871       -0.65182
       -0.62712       -0.61473       -0.60961       -0.58767       -0.57148
       -0.00005        0.05720        0.10294        0.11330        0.12864
        0.16474        0.19503        0.19822        0.21003        0.23080
        0.26390        0.28178        0.30722        0.35000        0.38095
        0.39213        0.46669        0.49754        0.50642        0.51495
        0.53131        0.54454        0.55464        0.56655        0.64129
        0.79182        0.82601        0.84897        0.88427        0.89258
        0.91661        0.96029        0.97833        1.00722        1.01851
        1.03032        1.04449        1.04985        1.06262        1.09998
        1.14235        1.19414        1.21927        1.29141        1.33584
        1.35671        1.37759        1.40636        1.43756        1.44156
        1.44712        1.46986        1.49638        1.57093        1.57849
        1.63072        1.65305        1.66136        1.69416        1.72062
        1.77297        1.77423        1.80585        1.83000        1.85323
        1.88271        2.00166        2.07915        2.09818        2.12277
        2.14035        2.15452        2.22888        2.23978        2.26485
        2.27869        2.30640        2.31502        2.34750        2.39359
        2.50683        2.54994        2.58571        2.61552        2.63018
        2.65529        2.70872        2.71069        2.74100        2.76281
        2.80195        2.80612        2.96558        2.97859        3.15199
        3.28955        3.31065        3.32606        3.34244        3.38773
        3.39188        3.41595        3.42785        3.43504        3.47492
        3.52500        3.54830        3.55973        3.58306        3.58732
        3.88186        3.91634        3.93558        4.01874        4.08563
        4.10962        4.15232        4.15669        4.99511        5.15590
        5.20878        5.24524        5.30150        5.32989        5.33822
        5.64099        5.71271        5.73906        5.78026        5.95993
        5.98402        6.03052        6.13550       36.94743       51.40978
       51.42941       51.43627       51.49082
 Time used in FCKEIG, thr_jaco:   2.20D-02  2.12D-01  9.31D-08
 CPU and wall times used in FCKEIG, THR_FCKEIG:   2.20D-02  2.12D-01  2.19D-05
 -----------------------------------------------------------------------------

 *** DIIS iteration number    8
 RDSUPM called. NFMAT, ISYMDM(1:NFMAT)                     1
                     1

 ITDIIS, energy, error norm, change in energy, scr.thr., difden:
@ DIIS iter.   8    -361.248973286        3.54715D-04   -4.89D-07  -20    F

 (DIIS_RED) Control Parameters C2DIIS =         F NEVC =    8


 (DIIS_RED) B matrix:

               Column   1     Column   2     Column   3     Column   4     Column   5     Column   6
       1      16.00633775
       2       0.84667109     1.31042675
       3       0.83780159     0.00312995     0.14234851
       4       0.05840651     0.07654341     0.00639843     0.00874949
       5       0.02346207     0.00785726     0.00595640     0.00088315     0.00093791
       6      -0.00536424    -0.00014980     0.00074561     0.00057384     0.00001801     0.00011768
       7       0.00036493     0.00019296    -0.00000779     0.00000568     0.00004607     0.00000006
       8       0.00007919    -0.00004503     0.00000935     0.00000132     0.00000012     0.00000152

               Column   7     Column   8
       7       0.00000478
       8       0.00000030     0.00000013
    ==== End of matrix output ====

 DIIS C vector; C2DIIS = F, LAMBDA = -6.88D-08
    0.000015    0.000015   -0.000758   -0.000765    0.015682   -0.008103   -0.215353    1.209268
* Read MO coefficients from SIRIUS.RST with label "NEWORB  " and header info:  7Dec18  DIIS   8
      Virial theorem: -V/T =      2.002768
@      MULPOP N      -0.36; H       0.31; H       0.29; H       0.27; H       0.32; O      -0.78; O      -0.71; O      -0.69; O      -0.66; H       0.40; 
@             H       0.42; H       0.35; H       0.41; H       0.38; H       0.36; H       0.33; H       0.36; 

 DIIS Fock eigenvalues in symmetry 1
      -20.66133      -20.65809      -20.63634      -20.61147      -15.70141
       -1.44439       -1.44059       -1.39851       -1.39526       -1.33007
       -0.82036       -0.81722       -0.80759       -0.79104       -0.78113
       -0.76006       -0.75285       -0.68854       -0.67872       -0.65187
       -0.62712       -0.61472       -0.60961       -0.58769       -0.57146
       -0.00005        0.05720        0.10294        0.11329        0.12864
        0.16474        0.19503        0.19822        0.21002        0.23079
        0.26390        0.28177        0.30722        0.34999        0.38094
        0.39212        0.46669        0.49754        0.50642        0.51495
        0.53130        0.54454        0.55464        0.56656        0.64129
        0.79181        0.82600        0.84896        0.88426        0.89257
        0.91660        0.96028        0.97834        1.00721        1.01851
        1.03032        1.04449        1.04984        1.06261        1.09998
        1.14235        1.19413        1.21926        1.29140        1.33584
        1.35671        1.37758        1.40636        1.43755        1.44156
        1.44711        1.46985        1.49638        1.57092        1.57850
        1.63071        1.65304        1.66136        1.69416        1.72061
        1.77297        1.77422        1.80585        1.82999        1.85323
        1.88270        2.00165        2.07914        2.09818        2.12276
        2.14034        2.15452        2.22888        2.23976        2.26485
        2.27868        2.30640        2.31502        2.34748        2.39358
        2.50683        2.54993        2.58571        2.61551        2.63017
        2.65528        2.70872        2.71069        2.74100        2.76280
        2.80194        2.80612        2.96556        2.97857        3.15198
        3.28954        3.31064        3.32603        3.34242        3.38773
        3.39187        3.41595        3.42782        3.43504        3.47491
        3.52496        3.54831        3.55974        3.58308        3.58732
        3.88186        3.91634        3.93554        4.01875        4.08560
        4.10962        4.15233        4.15669        4.99509        5.15588
[...]
 | 1 1 1 1 |  28   1  11   1 |     1408        1 |       990529 |   -0.089464  |
 | 1 1 1 1 |  26   1  12   1 |     1544        1 |      1191197 |    0.078478  |
 | 1 1 1 1 |  11   1  13   1 |     1667        1 |      1388612 |    0.078904  |
 | 1 1 1 1 |  26   1  13   1 |     1682        1 |      1413722 |    0.081895  |
 | 1 1 1 1 |  28   1  13   1 |     1684        1 |      1417087 |   -0.067789  |
 | 1 1 1 1 |  13   1  19   1 |     2497        1 |      3116257 |   -0.065883  |
 | 1 1 1 1 |  26   1  19   1 |     2510        1 |      3148796 |    0.066109  |
 | 1 1 1 1 |  28   1  20   1 |     2650        1 |      3509926 |   -0.065667  |
 +=============================================================================+


          Norm of Printed Amplitude Vector :             0.8481

          Printed all single excitations greater than 0.383090

          Printed all double excitations greater than 0.064263



+======================================================================+
| contributions of excitation levels to right eigenvectors as computed |
| from the (RE|RE) self overlap                                        |
+----------------------------------------------------------------------+
| sym | multi | state |    E / eV  | % singles | % doubles | % triples |
+======================================================================+
|    1|   1   |   1   |  411.24102 |  88.3393  |  11.6607  |   0.0000  |
+======================================================================+





+======================================================================+
| contributions of excitation levels to excited states as computed     |
| from the (LE|RE) overlap                                             |
+----------------------------------------------------------------------+
| sym | multi | state |    E / eV  | % singles | % doubles | % triples |
+======================================================================+
|    1|   1   |   1   |  411.24102 |  79.3942  |  20.6058  |   0.0000  |
+======================================================================+



 --------------------------
 Symmetry class Nr.:     1
 Multiplicity      :     3
 --------------------------

 Length of Excitation vectors in this class is:   8404200
 No Excitation Energies calculated in this symmetry class
     

   *******************************************************************
   *                                                                 *
   *--------   OUTPUT FROM PROPERTY AND SYMMETRY ANALYSIS   ---------*
   *                                                                 *
   *******************************************************************



                         +-------------------------------+
                         ! REQUESTED PROPERTY OPERATORS: !
                         +-------------------------------+

             Index   Oper. Label  Symmetry  Transp.  PDBS  Atom
             --------------------------------------------------
                1     HAM0            1        1      T      0
                2     XDIPLEN         1        1      F      0
                3     YDIPLEN         1        1      F      0
                4     ZDIPLEN         1        1      F      0
             --------------------------------------------------




                         +-------------------------------+
                         ! REQUESTED EXPECTATION VALUES: !
                         +-------------------------------+

                       Index   Oper. Label  Symmetry
                       -----------------------------
                       -----------------------------




                       +------------------------------------+
                       ! REQUESTED EFFECTIVE FOCK MATRICES: !
                       +------------------------------------+

                       Index   Oper. Label  Symmetry
                       -----------------------------
                       -----------------------------




                        +----------------------------------+
                        ! REQUESTED FIRST ORDER M-VECTORS: !
                        +----------------------------------+

               Index   State Symmetry  Frequency
               --------------------------------------------------
                  1             1    1     1.511283D+01
               --------------------------------------------------


      

    *******************************************************************
    *          SOLVING COUPLED CLUSTER RESPONSE EQUATIONS             *
    *******************************************************************



 
 +======================================================================+
 !                     RHS & ETA VECTORS TO COMPUTE:                    !
 +======================================================================+
 | TYPE | # VEC. |  NEEDED FOR:                                         |
 +----------------------------------------------------------------------+
 +======================================================================+



 +======================================================================+
 !                       LINEAR EQUATIONS TO SOLVE:                     !
 +======================================================================+
 | TYPE | # VEC. |  EQUATION:                                           |
 +----------------------------------------------------------------------+
 |  M1  |    1   |  first-order ground - excited state multipliers      |
 +======================================================================+



 +======================================================================+
 !                F MATRIX TRANSFORMATIONS TO COMPUTE:                  !
 +======================================================================+
 | TYPE | # VEC. |  TRANSFORMED:                                        |
 +----------------------------------------------------------------------+
 |  FR  |    1   |  right eigenvectors (RE)                             |
 +======================================================================+





 Testing R1 list: 

 List nr.  Label     Symmetry      Frequency      T1-norm        T2-norm


 Testing L1 list: 

 List nr.  Label     Symmetry      Frequency      T1-norm        T2-norm
  Solvent 1-order response equations converged in                     0 
  solvent iterations
 SONIAPRI                     0
 CCEQ_STR: CVSEPARATION =  T
 CCEQ_STR: IONIZATION =  T
 CCEQ_STR: REMOVE_CORE =  F
 could not find required file CCM1_1___1
 IOPTSV is    33 ... program continues nevertheless.
 Vector nr.  1 of type M1  and symmetry  1 was not found on file.
     M1  start vector nr.  1 of symmetry  1 generated from gradient
 CCEQ_STR: freeze VALENCE OR VIRT
 CCEQ_SOL: CVSEPARA=     T
 CCEQ_SOL: LIONISAT=     T
 CCEQ_SOL: REMOVE_CORE =  F



 ----- COUPLED CLUSTER RESPONSE SOLVER -----

    Iter  #Vectors  time (min)   residual
    --------------------------------------
 CCRED CVS/IONIS sigma_                     1 
 project out valence occupied or virtual
      1       1         1.51     0.17E+01
 CCRED CVS/IONIS sigma_                     2 
 project out valence occupied or virtual
      2       1         1.51     0.31E+00
 CCRED CVS/IONIS sigma_                     3 
 project out valence occupied or virtual
      3       1         1.48     0.41E-01
 CCRED CVS/IONIS sigma_                     4 
 project out valence occupied or virtual
                    -1  vectors with norm le:  1.000000000000000E-035  REMOVED

 CCORT,**WARNING**  number vectors added is zero after check for vector norm , NBADD :    0

 CCORT, number vectors added is zero , NBADD :    0

 CCORT, number vectors added is zero , NBADD :    0

 CCORT, number vectors added is zero , NBADD :    0

 CCORT, number vectors added is zero , NBADD :    0

 *** MICROITERATIONS STOPPED DUE TO LINEAR DEPENDENCE BETWEEN ALL NEW TRIAL VECTORS
                     0  trial vectors converged
  LINEAR DEPENDENCE BETWEEN                     1  NON CONVERGED TRIAL VECTORS
      4       1         1.50     0.40E-02

 ***  CCEQ_SOL -MICROITERATIONS STOPPED  
     LINEAR DEPENDENCE BETWEEN ALL NEW TRIAL VECTORS
    --------------------------------------
    converged in  4 iterations
    threshold:    0.10E-08


         Routine          Time (min)
         ---------------------------
         CC_TRDRV            6.00
         CCRED               0.03
         CCNEX               0.04
         ---------------------------
         Total time          6.07


  Total CPU  time used in CCEQ_SOLV:  6 minutes  4 seconds
  Total wall time used in CCEQ_SOLV:  8 minutes 42 seconds


 xxxxxxxxxxxxxxxxxxxxxxxxxxxxxxxxxxxxx

 
 Solution of CC response equations completed.
 

 *******************************************************************
 *                                                                 *
 *--------  OUTPUT FROM COUPLED CLUSTER LINEAR RESPONSE   ---------*
 *                                                                 *
 *--------      CALCULATION OF SECOND ORDER RESIDUES      ---------*
 *                                                                 *
 *******************************************************************



                  +---------------------------------------------+
                  ! CC_SOPR: Calculation of CCSD       Residues !
                  +---------------------------------------------+

 Doing the Mf*CsiA
 Doing the Mf*CsiA
 Doing the Mf*CsiA


 CCSD  Right transition moments in atomic units:
 -----------------------------------------------

  1      15.112830  <XDIPLEN |f> =       0.00000001
  1      15.112830  <YDIPLEN |f> =      -0.00000002
  1      15.112830  <ZDIPLEN |f> =      -0.00000001


 CCSD  Left  transition moments in atomic units:
 -----------------------------------------------

  1      15.112830  <f|XDIPLEN > =       0.00000001
  1      15.112830  <f|YDIPLEN > =      -0.00000001
  1      15.112830  <f|ZDIPLEN > =      -0.00000000


 CCSD  linear response residue property in atomic units:
 -------------------------------------------------------

 RES{<<XDIPLEN ,XDIPLEN >>(15.112830)} =     0.00000000 (   0.00000001)
 RES{<<XDIPLEN ,YDIPLEN >>(15.112830)} =    -0.00000000 (  -0.00000001)
 RES{<<XDIPLEN ,ZDIPLEN >>(15.112830)} =    -0.00000000 (  -0.00000001)
 RES{<<YDIPLEN ,XDIPLEN >>(15.112830)} =    -0.00000000 (  -0.00000001)
 RES{<<YDIPLEN ,YDIPLEN >>(15.112830)} =     0.00000000 (   0.00000001)
 RES{<<YDIPLEN ,ZDIPLEN >>(15.112830)} =     0.00000000 (   0.00000001)
 RES{<<ZDIPLEN ,XDIPLEN >>(15.112830)} =    -0.00000000 (  -0.00000001)
 RES{<<ZDIPLEN ,YDIPLEN >>(15.112830)} =     0.00000000 (   0.00000001)
 RES{<<ZDIPLEN ,ZDIPLEN >>(15.112830)} =     0.00000000 (   0.00000000)


 CCSD  Transition strength matrix for state nr.  1 of symmetry 1
 CCSD  excitation energy:15.11282992

 Gauge: length

               Column   1     Column   2     Column   3
       1     6.159820D-17  -1.012902D-16  -2.638497D-17
       2    -1.012902D-16   1.665527D-16   4.339346D-17
       3    -2.638497D-17   4.339346D-17   1.129372D-17
    ==== End of matrix output ====

 Principal values of diagonalized transition strength matrix:

             a.u.               
 1       0.00000000
 2       0.00000000
 3       0.00000000

 Principal axis of diagonalized transition strength matrix:


               Column   1     Column   2     Column   3
       1       1.00000000     0.00000000     0.00000000
       2       0.00000000     1.00000000     0.00000000
       3       0.00000000     0.00000000     1.00000000
    ==== End of matrix output ====


 CCSD   oscillator strength matrix for state nr.  1 of symmetry 1
 CCSD  excitation energy:15.11282992


               Column   1     Column   2     Column   3
       1     6.206155D-16  -1.020521D-15  -2.658344D-16
       2    -1.020521D-15   1.678055D-15   4.371987D-16
       3    -2.658344D-16   4.371987D-16   1.137868D-16
    ==== End of matrix output ====

 Principal values of diagonalized oscillator strength matrix:

             a.u.               
 1       0.00000000
 2       0.00000000
 3       0.00000000

 Principal axis of diagonalized oscillator strength matrix:


               Column   1     Column   2     Column   3
       1       1.00000000     0.00000000     0.00000000
       2       0.00000000     1.00000000     0.00000000
       3       0.00000000     0.00000000     1.00000000
    ==== End of matrix output ====

  Total time for      9 linear response residues:       3.00 seconds.
  

 *******************************************************************************
 *******************************************************************************
 *                                                                             *
 *                                                                             *
 *                   SUMMARY OF COUPLED CLUSTER CALCULATION                    *
 *                                                                             *
 *                                                                             *
 *******************************************************************************
 *******************************************************************************

                                                                                
                                                                                
            Total SCF   energy:                  -361.2489733038                
            Total MP2   energy:                  -362.3529433239                
            Total CCSD  energy:                  -362.3934648627                
                                                                                
                                                                                
            Total SCF   energy:                  -361.2489733038                
            Total RSTAR energy:                  -362.3934648627                
            Total CCSD  energy:                  -362.3936082199                
                                                                                
                                                                                
            Total SCF   energy:                  -361.2489733038                
            Total RSTAR energy:                  -362.3936082199                
            Total CCSD  energy:                  -362.3936099872                
                                                                                
                                                                                
            Total SCF   energy:                  -361.2489733038                
            Total RSTAR energy:                  -362.3936099872                
            Total CCSD  energy:                  -362.3936101244                
                                                                                
                                                                                
            Total SCF   energy:                  -361.2489733038                
            Total RSTAR energy:                  -362.3936101244                
            Total CCSD  energy:                  -362.3936101317                
                                                                                
                                                                                
            Total SCF   energy:                  -361.2489733038                
            Total RSTAR energy:                  -362.3936101317                
            Total CCSD  energy:                  -362.3936101321                
            CCSD Total  energy:                  -362.8636921355                
            CCSD E(QM/MM)     :                    -0.4645896089                
                                                                                
                                                                                
                                                                                
 +=============================================================================+
 |  sym. | Exci.  |        CCSD       Excitation energies            | ||T1||  |
 |(spin, |        +------------------------------------------------------------+
 | spat) |        |     Hartree    |       eV.      |     cm-1       |    %    |
 +=============================================================================+
 | ^1A   |    1   |    15.1128299  |     411.24102  |   3316882.745  |  88.34  |
 +=============================================================================+
                                                                                
                                                                                
     Total energies in Hartree:                                                 
             1 ^1A       -347.2862726050                                        
                                                                                
                                                                                
 +=============================================================================+
 |  sym. | Exci.  |        CCSD       Length   Gauge Oscillator Strength       |
 |(spin, |        +------------------------------------------------------------+
 | spat) |        | Dipole Strength(a.u.) | Oscillator strength  | Direction   |
 +=============================================================================+
 | ^1A   |    1   |        0.0000000      |      0.0000000       |    -        |
 +=============================================================================+

  1 a.u. =        27.21138 eV.  
  1 a.u. =    219474.62934 cm-1.
  

 *******************************************************************************
 *******************************************************************************
 *                                                                             *
 *                                                                             *
 *                      END OF COUPLED CLUSTER CALCULATION                     *
 *                                                                             *
 *                                                                             *
 *******************************************************************************
 *******************************************************************************


 CPU and wall time for CC :    6808.940   10374.786

 
     Date and time (Linux)  : Fri Dec  7 22:40:01 2018
     Host name              : n-62-23-28                              


                      .-------------------------------------.
                      | End of Coupled Cluster Section (CC) |
                      `-------------------------------------'

  Total CPU  time used in DALTON:   1 hour  55 minutes 37 seconds
  Total wall time used in DALTON:   3 hours  0 minutes 47 seconds

 
     Date and time (Linux)  : Fri Dec  7 22:40:02 2018
     Host name              : n-62-23-28                              
  

 +---------------------------------------------------------+ 
 | List of selected calculated molecular properties (a.u.) | 
 +---------------------------------------------------------+ 

  Properties are read from unit number                      4

 CCSD       properties :
 #  1 1 CCSD/MM  Ground state Energy =    -362.8636921355
 #  2 1 E_QM/MM  Ground state Energy =      -0.4645896089
 #  3 1 Sy: 1 Sp: 1 Exc:  1 E_tot:   -347.2862726050 w:     15.1128299216 E_grs:   -362.3991025266
 #  4 1 Exctot   Excited state Energy =    -347.2862726050
 #  5 1 |<O|XDIPLEN |i(15.112830)>| =     0.00000001
 #  7 1 |<O|YDIPLEN |i(15.112830)>| =     0.00000001
 #  9 1 |<O|ZDIPLEN |i(15.112830)>| =     0.00000000

 THE_END   
