

     ************************************************************************
     *************** Dalton - An Electronic Structure Program ***************
     ************************************************************************

    This is output from DALTON release Dalton2017.alpha (2016)
         ( Web site: http://daltonprogram.org )

   ----------------------------------------------------------------------------

    NOTE:
     
    Dalton is an experimental code for the evaluation of molecular
    properties using (MC)SCF, DFT, CI, and CC wave functions.
    The authors accept no responsibility for the performance of
    the code or for the correctness of the results.
     
    The code (in whole or part) is provided under a licence and
    is not to be reproduced for further distribution without
    the written permission of the authors or their representatives.
     
    See the home page "http://daltonprogram.org" for further information.
     
    If results obtained with this code are published,
    the appropriate citations would be both of:
     
       K. Aidas, C. Angeli, K. L. Bak, V. Bakken, R. Bast,
       L. Boman, O. Christiansen, R. Cimiraglia, S. Coriani,
       P. Dahle, E. K. Dalskov, U. Ekstroem,
       T. Enevoldsen, J. J. Eriksen, P. Ettenhuber, B. Fernandez,
       L. Ferrighi, H. Fliegl, L. Frediani, K. Hald, A. Halkier,
       C. Haettig, H. Heiberg, T. Helgaker, A. C. Hennum,
       H. Hettema, E. Hjertenaes, S. Hoest, I.-M. Hoeyvik,
       M. F. Iozzi, B. Jansik, H. J. Aa. Jensen, D. Jonsson,
       P. Joergensen, J. Kauczor, S. Kirpekar,
       T. Kjaergaard, W. Klopper, S. Knecht, R. Kobayashi, H. Koch,
       J. Kongsted, A. Krapp, K. Kristensen, A. Ligabue,
       O. B. Lutnaes, J. I. Melo, K. V. Mikkelsen, R. H. Myhre,
       C. Neiss, C. B. Nielsen, P. Norman, J. Olsen,
       J. M. H. Olsen, A. Osted, M. J. Packer, F. Pawlowski,
       T. B. Pedersen, P. F. Provasi, S. Reine, Z. Rinkevicius,
       T. A. Ruden, K. Ruud, V. Rybkin, P. Salek, C. C. M. Samson,
       A. Sanchez de Meras, T. Saue, S. P. A. Sauer,
       B. Schimmelpfennig, K. Sneskov, A. H. Steindal,
       K. O. Sylvester-Hvid, P. R. Taylor, A. M. Teale,
       E. I. Tellgren, D. P. Tew, A. J. Thorvaldsen, L. Thoegersen,
       O. Vahtras, M. A. Watson, D. J. D. Wilson, M. Ziolkowski
       and H. Agren,
       "The Dalton quantum chemistry program system",
       WIREs Comput. Mol. Sci. 2014, 4:269–284 (doi: 10.1002/wcms.1172)
     
    and
     
       Dalton, a Molecular Electronic Structure Program,
       Release Dalton2017.alpha (2016), see http://daltonprogram.org
   ----------------------------------------------------------------------------

    Authors in alphabetical order (major contribution(s) in parenthesis):

  Kestutis Aidas,           Vilnius University,           Lithuania   (QM/MM)
  Celestino Angeli,         University of Ferrara,        Italy       (NEVPT2)
  Keld L. Bak,              UNI-C,                        Denmark     (AOSOPPA, non-adiabatic coupling, magnetic properties)
  Vebjoern Bakken,          University of Oslo,           Norway      (DALTON; geometry optimizer, symmetry detection)
  Radovan Bast,             UiT The Arctic U. of Norway,  Norway      (DALTON installation and execution frameworks)
  Pablo Baudin,             University of Valencia,       Spain       (Cholesky excitation energies)
  Linus Boman,              NTNU,                         Norway      (Cholesky decomposition and subsystems)
  Ove Christiansen,         Aarhus University,            Denmark     (CC module)
  Renzo Cimiraglia,         University of Ferrara,        Italy       (NEVPT2)
  Sonia Coriani,            University of Trieste,        Italy       (CC module, MCD in RESPONS)
  Janusz Cukras,            University of Trieste,        Italy       (MChD in RESPONS)
  Paal Dahle,               University of Oslo,           Norway      (Parallelization)
  Erik K. Dalskov,          UNI-C,                        Denmark     (SOPPA)
  Thomas Enevoldsen,        Univ. of Southern Denmark,    Denmark     (SOPPA)
  Janus J. Eriksen,         Aarhus University,            Denmark     (Polarizable embedding model, TDA)
  Rasmus Faber,             University of Copenhagen,     Denmark     (Vib.avg. NMR with SOPPA, parallel AO-SOPPA)
  Berta Fernandez,          U. of Santiago de Compostela, Spain       (doublet spin, ESR in RESPONS)
  Lara Ferrighi,            Aarhus University,            Denmark     (PCM Cubic response)
  Heike Fliegl,             University of Oslo,           Norway      (CCSD(R12))
  Luca Frediani,            UiT The Arctic U. of Norway,  Norway      (PCM)
  Bin Gao,                  UiT The Arctic U. of Norway,  Norway      (Gen1Int library)
  Christof Haettig,         Ruhr-University Bochum,       Germany     (CC module)
  Kasper Hald,              Aarhus University,            Denmark     (CC module)
  Asger Halkier,            Aarhus University,            Denmark     (CC module)
  Frederik Beyer Hansen,    University of Copenhagen,     Denmark     (Parallel AO-SOPPA)
  Erik D. Hedegaard,        Univ. of Southern Denmark,    Denmark     (Polarizable embedding model, QM/MM)
  Hanne Heiberg,            University of Oslo,           Norway      (geometry analysis, selected one-electron integrals)
  Trygve Helgaker,          University of Oslo,           Norway      (DALTON; ABACUS, ERI, DFT modules, London, and much more)
  Alf Christian Hennum,     University of Oslo,           Norway      (Parity violation)
  Hinne Hettema,            University of Auckland,       New Zealand (quadratic response in RESPONS; SIRIUS supersymmetry)
  Eirik Hjertenaes,         NTNU,                         Norway      (Cholesky decomposition)
  Pi A. B. Haase,           University of Copenhagen,     Denmark     (Triplet AO-SOPPA)
  Maria Francesca Iozzi,    University of Oslo,           Norway      (RPA)
  Brano Jansik              Technical Univ. of Ostrava    Czech Rep.  (DFT cubic response)
  Hans Joergen Aa. Jensen,  Univ. of Southern Denmark,    Denmark     (DALTON; SIRIUS, RESPONS, ABACUS modules, London, and much more)
  Dan Jonsson,              UiT The Arctic U. of Norway,  Norway      (cubic response in RESPONS module)
  Poul Joergensen,          Aarhus University,            Denmark     (RESPONS, ABACUS, and CC modules)
  Maciej Kaminski,          University of Warsaw,         Poland      (CPPh in RESPONS)
  Joanna Kauczor,           Linkoeping University,        Sweden      (Complex polarization propagator (CPP) module)
  Sheela Kirpekar,          Univ. of Southern Denmark,    Denmark     (Mass-velocity & Darwin integrals)
  Wim Klopper,              KIT Karlsruhe,                Germany     (R12 code in CC, SIRIUS, and ABACUS modules)
  Stefan Knecht,            ETH Zurich,                   Switzerland (Parallel CI and MCSCF)
  Rika Kobayashi,           Australian National Univ.,    Australia   (DIIS in CC, London in MCSCF)
  Henrik Koch,              NTNU,                         Norway      (CC module, Cholesky decomposition)
  Jacob Kongsted,           Univ. of Southern Denmark,    Denmark     (Polarizable embedding model, QM/MM)
  Andrea Ligabue,           University of Modena,         Italy       (CTOCD, AOSOPPA)
  Nanna H. List             Univ. of Southern Denmark,    Denmark     (Polarizable embedding model)
  Ola B. Lutnaes,           University of Oslo,           Norway      (DFT Hessian)
  Juan I. Melo,             University of Buenos Aires,   Argentina   (LRESC, Relativistic Effects on NMR Shieldings)
  Kurt V. Mikkelsen,        University of Copenhagen,     Denmark     (MC-SCRF and QM/MM)
  Rolf H. Myhre,            NTNU,                         Norway      (Cholesky, subsystems and ECC2)
  Christian Neiss,          Univ. Erlangen-Nuernberg,     Germany     (CCSD(R12))
  Christian B. Nielsen,     University of Copenhagen,     Denmark     (QM/MM)
  Patrick Norman,           Linkoeping University,        Sweden      (Cubic response and complex frequency response in RESPONS)
  Jeppe Olsen,              Aarhus University,            Denmark     (SIRIUS CI/density modules)
  Jogvan Magnus H. Olsen,   Univ. of Southern Denmark,    Denmark     (Polarizable embedding model, QM/MM)
  Anders Osted,             Copenhagen University,        Denmark     (QM/MM)
  Martin J. Packer,         University of Sheffield,      UK          (SOPPA)
  Filip Pawlowski,          Kazimierz Wielki University,  Poland      (CC3)
  Morten N. Pedersen,       Univ. of Southern Denmark,    Denmark     (Polarizable embedding model)
  Thomas B. Pedersen,       University of Oslo,           Norway      (Cholesky decomposition)
  Patricio F. Provasi,      University of Northeastern,   Argentina   (Analysis of coupling constants in localized orbitals)
  Zilvinas Rinkevicius,     KTH Stockholm,                Sweden      (open-shell DFT, ESR)
  Elias Rudberg,            KTH Stockholm,                Sweden      (DFT grid and basis info)
  Torgeir A. Ruden,         University of Oslo,           Norway      (Numerical derivatives in ABACUS)
  Kenneth Ruud,             UiT The Arctic U. of Norway,  Norway      (DALTON; ABACUS magnetic properties and much more)
  Pawel Salek,              KTH Stockholm,                Sweden      (DALTON; DFT code)
  Claire C. M. Samson       University of Karlsruhe       Germany     (Boys localization, r12 integrals in ERI)
  Alfredo Sanchez de Meras, University of Valencia,       Spain       (CC module, Cholesky decomposition)
  Trond Saue,               Paul Sabatier University,     France      (direct Fock matrix construction)
  Stephan P. A. Sauer,      University of Copenhagen,     Denmark     (SOPPA(CCSD), SOPPA prop., AOSOPPA, vibrational g-factors)
  Bernd Schimmelpfennig,    Forschungszentrum Karlsruhe,  Germany     (AMFI module)
  Kristian Sneskov,         Aarhus University,            Denmark     (Polarizable embedding model, QM/MM)
  Arnfinn H. Steindal,      UiT The Arctic U. of Norway,  Norway      (parallel QM/MM, Polarizable embedding model)
  Casper Steinmann,         Univ. of Southern Denmark,    Denmark     (QFIT, Polarizable embedding model)
  K. O. Sylvester-Hvid,     University of Copenhagen,     Denmark     (MC-SCRF)
  Peter R. Taylor,          VLSCI/Univ. of Melbourne,     Australia   (Symmetry handling ABACUS, integral transformation)
  Andrew M. Teale,          University of Nottingham,     England     (DFT-AC, DFT-D)
  David P. Tew,             University of Bristol,        England     (CCSD(R12))
  Olav Vahtras,             KTH Stockholm,                Sweden      (triplet response, spin-orbit, ESR, TDDFT, open-shell DFT)
  David J. Wilson,          La Trobe University,          Australia   (DFT Hessian and DFT magnetizabilities)
  Hans Agren,               KTH Stockholm,                Sweden      (SIRIUS module, RESPONS, MC-SCRF solvation model)
 --------------------------------------------------------------------------------

     Date and time (Linux)  : Sun Dec  2 17:03:41 2018
     Host name              : n-62-23-21                              

 * Work memory size             :  1280000000 =  9.537 gigabytes.

 * Directories for basis set searches:
   1) /zhome/d7/7/119775/My_Codes/dalton-private/build2016/basis/diffs
   2) /zhome/37/3/129401/NH3NH4/CCSD/AIMD_SAMPLING/nh4_4h2o_nd
   3) /zhome/9a/4/124800/source/dalton/build-mlcc/basis


Compilation information
-----------------------

 Who compiled             | rfaber
 Host                     | hpclogin1
 System                   | Linux-2.6.32-696.1.1.el6.x86_64
 CMake generator          | Unix Makefiles
 Processor                | x86_64
 64-bit integers          | ON
 MPI                      | OFF
 Fortran compiler         | /opt/intel/2016update2/compilers_and_libraries_201
                          | 6.2.181/linux/bin/intel64/ifort
 Fortran compiler version | ifort (IFORT) 16.0.2 20160204
 C compiler               | /opt/intel/2016update2/compilers_and_libraries_201
                          | 6.2.181/linux/bin/intel64/icc
 C compiler version       | icc (ICC) 16.0.2 20160204
 C++ compiler             | /opt/intel/2016update2/compilers_and_libraries_201
                          | 6.2.181/linux/bin/intel64/icpc
 C++ compiler version     | icpc (ICC) 16.0.2 20160204
 Static linking           | OFF
 Last Git revision        | bb4d1599ca5680a9f3980451fc8bbefdba436d59
 Git branch               | mlcc
 Configuration time       | 2017-06-13 16:11:03.928841


   Content of the .dal input file
 ----------------------------------

**DALTON
.RUN WAVE FUNCTIONS
*QMMM
.QMMM
**INTEGRALS
.DIPLEN
**WAVE FUNCTIONS
.CC
*PRINT
!To check the origin of excit
.PRINTL
   0 11
*SCF INP
.THRESH
1.0D-7
!*ORBITAL INPUT
!.MOSTART
!NEWORB
*CC INP
!.RESTART
.CCSD
.THRLEQ
 1.0D-9
.THRENR
 1.0D-10
.FROIMP
4
0
.PRINT
 1
.MAX IT
 1200
.MAXRED
 1200
.MXLRV
1199
*CCSLV
.CCMM
.MXSLIT
200
.MXINIT
4 5
*CCEXCI
.NCCEXC
 1
.IONISATION
1
1
.CVSEPARA
1
1
*CCLRSD
.DIPOLE
**END OF DALTON INPUT


   Content of the .mol file
 ----------------------------

ATOMBASIS


Atomtypes=5 Charge=1 Nosymm Angstrom
   7.00000    1    Basis=6-311G**
N          0.000000        0.000000        0.000000
   1.00000    4    Basis=6-311G**
H         -0.823326        0.238915        0.673328
H         -0.244043       -0.026895       -1.020502
H          0.331672       -0.881973        0.395379
H          0.697308        0.750909        0.111102
   8.00000    4    Basis=6-311G**
O          1.118476        2.639664        0.298125
O         -1.047914        0.269382       -2.591542
O         -1.748549        0.137075        2.216848
O          1.724104       -2.169662        1.436348
   1.00000    8    Basis=6-311G**
H          0.538116        3.234910        0.759941
H          1.977694        2.918739        0.705479
H         -0.549286        0.021206       -3.415237
H         -2.029406        0.134585       -2.607723
H         -2.297561        0.988457        2.221861
H         -2.392244       -0.595901        2.013362
H          1.122300       -2.564048        2.138105
H          2.176568       -1.364804        1.867719
   0.00000    1    Basis=diffs
X          0.000000        0.000000        0.000000


       *******************************************************************
       *********** Output from DALTON general input processing ***********
       *******************************************************************

 --------------------------------------------------------------------------------
   Overall default print level:    0
   Print level for DALTON.STAT:    1

    HERMIT 1- and 2-electron integral sections will be executed
    "Old" integral transformation used (limited to max 255 basis functions)
    Wave function sections will be executed (SIRIUS module)
 --------------------------------------------------------------------------------


 Changes of defaults for *QMMM  :
 --------------------------------

 +------------------+
 |  WORD: | CHANGE: |
 +------------------+
 |   QMMM |       T |
 +------------------+
 


   ****************************************************************************
   *************** Output of molecule and basis set information ***************
   ****************************************************************************


    The two title cards from your ".mol" input:
    ------------------------------------------------------------------------
 1:                                                                         
 2:                                                                         
    ------------------------------------------------------------------------

  Coordinates are entered in Angstrom and converted to atomic units.
          - Conversion factor : 1 bohr = 0.52917721 A

  Atomic type no.    1
  --------------------
  Nuclear charge:   7.00000
  Number of symmetry independent centers:    1
  Number of basis sets to read;    2
  The basis set is "6-311G**" from the basis set library.
  Basis set file used for this atomic type with Z =   7 :
     "/zhome/9a/4/124800/source/dalton/build-mlcc/basis/6-311G**"

  Info about the basis set file: your basis has no documentation.
  Basis set: 6-311G**                                                                        

  Atomic type no.    2
  --------------------
  Nuclear charge:   1.00000
  Number of symmetry independent centers:    4
  Number of basis sets to read;    2
  The basis set is "6-311G**" from the basis set library.
  Basis set file used for this atomic type with Z =   1 :
     "/zhome/9a/4/124800/source/dalton/build-mlcc/basis/6-311G**"

  Info about the basis set file: your basis has no documentation.
  Basis set: 6-311G**                                                                        

  Atomic type no.    3
  --------------------
  Nuclear charge:   8.00000
  Number of symmetry independent centers:    4
  Number of basis sets to read;    2
  The basis set is "6-311G**" from the basis set library.
  Basis set file used for this atomic type with Z =   8 :
     "/zhome/9a/4/124800/source/dalton/build-mlcc/basis/6-311G**"

  Info about the basis set file: your basis has no documentation.
  Basis set: 6-311G**                                                                        

  Atomic type no.    4
  --------------------
  Nuclear charge:   1.00000
  Number of symmetry independent centers:    8
  Number of basis sets to read;    2
  The basis set is "6-311G**" from the basis set library.
  Basis set file used for this atomic type with Z =   1 :
     "/zhome/9a/4/124800/source/dalton/build-mlcc/basis/6-311G**"

  Info about the basis set file: your basis has no documentation.
  Basis set: 6-311G**                                                                        

  Atomic type no.    5
  --------------------
  Nuclear charge:   0.00000
  Number of symmetry independent centers:    1
  Number of basis sets to read;    2
  The basis set is "diffs" from the basis set library.
  Basis set file used for this atomic type with Z =   0 :
     "/zhome/9a/4/124800/source/dalton/build-mlcc/basis/diffs"

  Info about the basis set file: your basis has no documentation.
  Basis set: diffs                                                                           


                         SYMGRP: Point group information
                         -------------------------------

@    Point group: C1 


                                 Isotopic Masses
                                 ---------------

                           N          14.003074
                           H           1.007825
                           H           1.007825
                           H           1.007825
                           H           1.007825
                           O          15.994915
                           O          15.994915
                           O          15.994915
                           O          15.994915
                           H           1.007825
                           H           1.007825
                           H           1.007825
                           H           1.007825
                           H           1.007825
                           H           1.007825
                           H           1.007825
                           H           1.007825

                       Total mass:    90.076634 amu
                       Natural abundance:  98.500 %

 Center-of-mass coordinates (a.u.):   -0.016075    0.354449    0.537535


  Atoms and basis sets
  --------------------

  Number of atom types :    5
  Total number of atoms:   18

  label    atoms   charge   prim   cont     basis
  ----------------------------------------------------------------------
  N           1    7.0000    31    18      [11s5p1d|4s3p1d]                                   
  H           4    1.0000     8     6      [5s1p|3s1p]                                        
  O           4    8.0000    31    18      [11s5p1d|4s3p1d]                                   
  H           8    1.0000     8     6      [5s1p|3s1p]                                        
  X           1    0.0000     1     1      [1s|1s]                                            
  ----------------------------------------------------------------------
  total:     18   51.0000   252   163
  ----------------------------------------------------------------------
  Spherical harmonic basis used.

  Threshold for neglecting AO integrals:  1.00D-12


  Cartesian Coordinates (a.u.)
  ----------------------------

  Total number of coordinates:   54
  N       :     1  x   0.0000000000    2  y   0.0000000000    3  z   0.0000000000
  H       :     4  x  -1.5558606516    5  y   0.4514839172    6  z   1.2724055123
  H       :     7  x  -0.4611744327    8  y  -0.0508241841    9  z  -1.9284692900
  H       :    10  x   0.6267692433   11  y  -1.6666874196   12  z   0.7471580256
  H       :    13  x   1.3177211448   14  y   1.4190123548   15  z   0.2099523519
  O       :    16  x   2.1136133174   17  y   4.9882420220   18  z   0.5633746010
  O       :    19  x  -1.9802704625   20  y   0.5090582030   21  z  -4.8973046214
  O       :    22  x  -3.3042787261   23  y   0.2590342086   24  z   4.1892355807
  O       :    25  x   3.2580843710   26  y  -4.1000669638   27  z   2.7143043402
  H       :    28  x   1.0168918635   29  y   6.1130939390   30  z   1.4360803612
  H       :    31  x   3.7373000190   32  y   5.5156173403   33  z   1.3331620969
  H       :    34  x  -1.0380001043   35  y   0.0400735322   36  z  -6.4538625819
  H       :    37  x  -3.8350215364   38  y   0.2543287905   39  z  -4.9278822798
  H       :    40  x  -4.3417610455   41  y   1.8679130163   42  z   4.1987087778
  H       :    43  x  -4.5206859842   44  y  -1.1260896876   45  z   3.8047027705
  H       :    46  x   2.1208396301   47  y  -4.8453484913   48  z   4.0404328765
  H       :    49  x   4.1131174124   50  y  -2.5791057743   51  z   3.5294773884
  X       :    52  x   0.0000000000   53  y   0.0000000000   54  z   0.0000000000

  Max    interatomic separation is    6.3496 Angstrom (   11.9990 Bohr)
  between atoms   16 and   12, "H     " and "H     ".

  Min HX interatomic separation is    0.9510 Angstrom (    1.7971 Bohr)

  Min YX interatomic separation is    2.8083 Angstrom (    5.3070 Bohr)


  Bond distances (Angstrom):
  --------------------------

                  atom 1     atom 2       distance
                  ------     ------       --------
  bond distance:  H          N            1.090099
  bond distance:  H          N            1.049621
  bond distance:  H          N            1.021865
  bond distance:  H          N            1.030750
  bond distance:  H          O            0.951004
  bond distance:  H          O            0.990997
  bond distance:  H          O            0.994331
  bond distance:  H          O            0.990837
  bond distance:  H          O            1.013060
  bond distance:  H          O            0.996496
  bond distance:  H          O            1.005073
  bond distance:  H          O            1.019118


  Bond angles (degrees):
  ----------------------

                  atom 1     atom 2     atom 3         angle
                  ------     ------     ------         -----
  bond angle:     H          N          H            115.502
  bond angle:     H          N          H            101.263
  bond angle:     H          N          H            106.541
  bond angle:     H          N          H            115.438
  bond angle:     H          N          H            106.305
  bond angle:     H          N          H            111.561
  bond angle:     H          O          H             98.814
  bond angle:     H          O          H            116.696
  bond angle:     H          O          H            105.611
  bond angle:     H          O          H            106.272




 Principal moments of inertia (u*A**2) and principal axes
 --------------------------------------------------------

   IA     329.804794          0.265777   -0.553231    0.789492
   IB     449.147256          0.064093    0.827274    0.558130
   IC     477.723540          0.961902    0.097738   -0.255329


 Rotational constants
 --------------------

               A                   B                   C

           1532.3580           1125.1967           1057.8901 MHz
            0.051114            0.037533            0.035287 cm-1


@  Nuclear repulsion energy :  196.739341508064 Hartree

  Number of floating/multiple basis set orbitals :    1


                     .---------------------------------------.
                     | Starting in Integral Section (HERMIT) |
                     `---------------------------------------'



 ***************************************************************************************
 ****************** Output from **INTEGRALS input processing (HERMIT) ******************
 ***************************************************************************************



    *************************************************************************
    ****************** Output from HERMIT input processing ******************
    *************************************************************************


 Default print level:        1

 * Nuclear model: Point charge

 Calculation of one- and two-electron Hamiltonian integrals.

 The following one-electron property integrals are calculated as requested:
          - overlap integrals
          - dipole length integrals

 Center of mass  (bohr):     -0.016075168124      0.354448508941      0.537535428475
 Operator center (bohr):      0.000000000000      0.000000000000      0.000000000000
 Gauge origin    (bohr):      0.000000000000      0.000000000000      0.000000000000
 Dipole origin   (bohr):      0.000000000000      0.000000000000      0.000000000000
 
  *********************************** 
  QMMM electrostatic potential: 
  Multipole order                                    0
  Isotropic polarization  
  *********************************** 
 
  ---------------- 
  QMMM information 
  ---------------- 
 
  MM coordinates in au 
  -------------------- 
     1     -2.650796      6.502856     -4.292611
     2     -0.999489      5.440998     -4.215044
     3     -2.126382      8.228557     -4.821952
     4      8.507254      7.960725     -9.651865
     5      6.709915      7.700776     -9.724929
     6      9.358205      6.356332     -9.142395
     7      4.210622      6.204275     -4.401025
     8      3.359071      7.199231     -3.122600
     9      4.072252      4.420217     -3.722118
    10     -6.741144      0.103616     -1.530867
    11     -6.254406     -1.058655     -0.271966
    12     -8.212625      1.182345     -0.943332
    13      5.147385     11.624824     -2.000882
    14      5.934265     10.288444     -0.912823
    15      5.944171     11.142668     -3.660689
    16     -7.851239     -8.575271     -3.650042
    17     -7.023613     -9.990912     -2.867457
    18     -9.008379     -9.291984     -5.023272
    19      9.306869     10.821471     -5.296313
    20      8.912170      9.921992     -6.882851
    21      9.150001     12.690875     -5.684128
    22     -3.943484     -7.983664      3.345790
    23     -3.734877     -8.800564      1.559056
    24     -4.893177     -9.215850      4.321241
    25      2.276591     -0.910332     -7.631226
    26      2.332835     -2.822879     -7.148709
    27      3.717420     -0.318334     -8.691232
    28      3.716736    -10.470664      4.867284
    29      5.163852     -9.480707      4.308014
    30      4.630090    -12.033332      5.461594
    31     -4.992851      4.594357     -8.681515
    32     -5.194859      2.804227     -9.107510
    33     -4.431969      4.555506     -6.893126
    34    -11.019392      2.830283     -0.658692
    35    -11.754276      2.807772      1.073867
    36    -11.236735      4.630207     -1.155144
    37      7.669219     -7.800349     -6.048176
    38      8.461642     -6.120664     -6.968790
    39      7.516170     -7.399788     -4.327815
    40      9.709749      0.491263     -3.836127
    41     10.134550     -1.269371     -3.546591
    42     10.785512      1.400926     -2.569999
    43     10.932383     -4.765413     -2.085224
    44     12.432754     -4.582168     -2.969642
    45     11.236671     -4.020591     -0.405539
    46      6.981584      7.010844      0.801454
    47      8.317943      7.324987      2.002093
    48      7.851559      6.744911     -0.875263
    49      3.635034     -9.673438     -9.391177
    50      3.527614    -11.467325     -8.992666
    51      5.212685     -9.307289     -8.528457
    52     -5.203981      8.341457     -0.124240
    53     -4.806239      7.280089     -1.621236
    54     -6.990150      8.448703      0.021694
    55     10.573602      2.061419      3.864450
    56      8.800647      1.946108      4.591337
    57     11.574068      3.168035      5.010960
    58     -1.112457     11.610506     -5.850375
    59      0.424890     11.996626     -6.741957
    60     -2.534435     12.185107     -6.946552
    61     -9.448272      1.387363     11.212480
    62     -7.816312      1.016251     12.111455
    63     -9.963456     -0.429641     10.834488
    64      1.014006     -0.136631      6.953383
    65      0.560236     -1.324108      8.447454
    66     -0.663050      0.005008      5.936172
    67     10.070651     -9.372114     -0.131856
    68     10.439883     -7.669151     -0.944702
    69      8.563876     -9.970889     -0.945700
    70     -8.805931      8.087289     -7.700383
    71     -9.313028      7.296378     -6.076647
    72     -7.948661      6.746271     -8.671078
    73    -10.104196     -3.721636     11.102519
    74     -8.817052     -5.038265     10.880765
    75    -11.592765     -4.015320     10.012198
    76     -6.744202     -7.668586     11.491041
    77     -7.334452     -8.784813     12.807553
    78     -5.045654     -7.085963     12.274189
    79      0.039023      9.651608      2.312025
    80      1.432756     10.875716      2.542695
    81     -1.080715     10.414583      1.072703
    82     -8.097818     -3.263574     -4.898259
    83     -7.380809     -4.893147     -4.304601
    84     -7.403703     -2.212750     -3.580173
    85      2.868967      4.002160      9.494135
    86      1.974297      2.816106      8.404175
    87      1.364651      4.826697     10.141344
    88      1.294769     -5.765770     -6.358409
    89      2.043384     -7.149682     -7.342971
    90      1.509207     -6.382764     -4.584897
    91     -1.135506     -2.187551     11.484928
    92     -0.896448     -3.987761     11.220623
    93     -0.138619     -1.859171     13.122171
    94     -0.459888      7.160000    -11.494480
    95     -0.927852      7.896160    -13.135896
    96     -2.104393      6.666496    -10.703114
    97    -10.394592      9.850942      7.783300
    98    -11.252690     10.722569      9.295451
    99    -10.341691      7.995907      7.967904
   100    -11.288198     -2.792233      3.017233
   101    -11.823980     -3.667032      4.462293
   102    -11.525612     -0.989583      3.383284
   103     -9.476937    -10.011128     -8.269345
   104    -11.117937     -9.776407     -8.905898
   105     -9.295128    -11.864130     -8.135271
   106      7.584081     -8.263617      8.708550
   107      5.766388     -8.557840      9.028885
   108      7.922664     -7.837076      6.940531
   109     10.439936    -11.351454     11.616267
   110      9.660057    -12.781682     12.440133
   111      9.085110    -10.379024     10.761554
   112     -5.814069     -3.435841      2.177889
   113     -5.279583     -5.257876      2.517300
   114     -7.460546     -3.549063      2.915171
   115      5.727592      0.916882    -10.973715
   116      6.980871      1.636148     -9.747100
   117      4.783403      2.381223    -11.894824
   118      8.419015     -2.320964      8.891940
   119      7.811211     -3.928922      9.769355
   120      7.752267     -0.990713     10.033032
   121     -2.016421      8.724616      7.158368
   122     -0.998928      9.060963      5.652989
   123     -3.452292     10.081925      7.296883
   124      5.591626      0.003751      5.024838
   125      6.465407     -0.965497      6.365242
   126      3.777674      0.270401      5.713513
   127     -9.361592      4.517511      7.106119
   128     -7.803492      4.660027      5.931962
   129     -9.221315      3.199779      8.420168
   130     10.491841      3.146734     -8.807891
   131     11.247502      2.278995     -7.369905
   132     11.626417      2.687914    -10.235902
   133      4.551275      1.300449     -3.111413
   134      3.712259      0.357871     -4.518964
   135      6.344950      0.870395     -3.120100
   136     -5.159960      4.864202      4.403719
   137     -5.466386      6.056941      3.002788
   138     -3.703096      5.758258      5.219577
   139     -5.676327     -0.867339     -9.464028
   140     -4.219237     -1.682629    -10.453213
   141     -6.446279     -2.084462     -8.190366
   142     -1.304962     -7.101835     11.075537
   143     -0.852612     -7.386227      9.214410
   144     -0.317075     -8.298638     11.990586
   145     -4.004350     -6.924011     -7.380223
   146     -4.927189     -7.532885     -5.889241
   147     -2.233688     -6.587574     -6.767287
   148      9.067654     -3.822479     -8.893153
   149     10.734071     -3.807178     -9.698254
   150      8.761997     -2.104085     -8.377150
   151      3.019040      8.881335     -8.201804
   152      1.623280      8.251247     -9.304367
   153      3.048085      7.676912     -6.821626
   154      6.023886      7.450164      6.263843
   155      5.284821      6.073886      7.425367
   156      7.443920      8.040426      7.451534
   157      2.930432     -6.926260     -1.417489
   158      3.437034     -5.970187      0.153157
   159      3.676364     -8.595718     -1.373124
   160      0.218156     -7.244526      6.341454
   161      1.251530     -8.699354      6.038062
   162     -1.285010     -7.566921      5.150432
   163      7.677415     -7.194766      3.854034
   164      6.352976     -5.991054      3.229258
   165      8.533192     -7.799654      2.305318
   166    -11.596284      7.721451     -2.155149
   167    -12.361377      9.045737     -3.329539
   168    -11.270251      8.585740     -0.618180
   169     -5.740015    -10.715537      7.464112
   170     -7.359433    -11.633112      7.881927
   171     -6.008309     -9.121668      8.455309
   172    -11.017740      9.929829      2.361530
   173    -10.942775     11.669116      1.695581
   174    -10.730698     10.122552      4.223608
   175     -2.244825     -9.160708     -1.273726
   176     -2.191198     -9.554130     -3.098085
   177     -0.856775     -7.901361     -1.091313
 
  MM charges 
  ---------- 
     1     -0.674440
     2      0.337220
     3      0.337220
     4     -0.674440
     5      0.337220
     6      0.337220
     7     -0.674440
     8      0.337220
     9      0.337220
    10     -0.674440
    11      0.337220
    12      0.337220
    13     -0.674440
    14      0.337220
    15      0.337220
    16     -0.674440
    17      0.337220
    18      0.337220
    19     -0.674440
    20      0.337220
    21      0.337220
    22     -0.674440
    23      0.337220
    24      0.337220
    25     -0.674440
    26      0.337220
    27      0.337220
    28     -0.674440
    29      0.337220
    30      0.337220
    31     -0.674440
    32      0.337220
    33      0.337220
    34     -0.674440
    35      0.337220
    36      0.337220
    37     -0.674440
    38      0.337220
    39      0.337220
    40     -0.674440
    41      0.337220
    42      0.337220
    43     -0.674440
    44      0.337220
    45      0.337220
    46     -0.674440
    47      0.337220
    48      0.337220
    49     -0.674440
    50      0.337220
    51      0.337220
    52     -0.674440
    53      0.337220
    54      0.337220
    55     -0.674440
    56      0.337220
    57      0.337220
    58     -0.674440
    59      0.337220
    60      0.337220
    61     -0.674440
    62      0.337220
    63      0.337220
    64     -0.674440
    65      0.337220
    66      0.337220
    67     -0.674440
    68      0.337220
    69      0.337220
    70     -0.674440
    71      0.337220
    72      0.337220
    73     -0.674440
    74      0.337220
    75      0.337220
    76     -0.674440
    77      0.337220
    78      0.337220
    79     -0.674440
    80      0.337220
    81      0.337220
    82     -0.674440
    83      0.337220
    84      0.337220
    85     -0.674440
    86      0.337220
    87      0.337220
    88     -0.674440
    89      0.337220
    90      0.337220
    91     -0.674440
    92      0.337220
    93      0.337220
    94     -0.674440
    95      0.337220
    96      0.337220
    97     -0.674440
    98      0.337220
    99      0.337220
   100     -0.674440
   101      0.337220
   102      0.337220
   103     -0.674440
   104      0.337220
   105      0.337220
   106     -0.674440
   107      0.337220
   108      0.337220
   109     -0.674440
   110      0.337220
   111      0.337220
   112     -0.674440
   113      0.337220
   114      0.337220
   115     -0.674440
   116      0.337220
   117      0.337220
   118     -0.674440
   119      0.337220
   120      0.337220
   121     -0.674440
   122      0.337220
   123      0.337220
   124     -0.674440
   125      0.337220
   126      0.337220
   127     -0.674440
   128      0.337220
   129      0.337220
   130     -0.674440
   131      0.337220
   132      0.337220
   133     -0.674440
   134      0.337220
   135      0.337220
   136     -0.674440
   137      0.337220
   138      0.337220
   139     -0.674440
   140      0.337220
   141      0.337220
   142     -0.674440
   143      0.337220
   144      0.337220
   145     -0.674440
   146      0.337220
   147      0.337220
   148     -0.674440
   149      0.337220
   150      0.337220
   151     -0.674440
   152      0.337220
   153      0.337220
   154     -0.674440
   155      0.337220
   156      0.337220
   157     -0.674440
   158      0.337220
   159      0.337220
   160     -0.674440
   161      0.337220
   162      0.337220
   163     -0.674440
   164      0.337220
   165      0.337220
   166     -0.674440
   167      0.337220
   168      0.337220
   169     -0.674440
   170      0.337220
   171      0.337220
   172     -0.674440
   173      0.337220
   174      0.337220
   175     -0.674440
   176      0.337220
   177      0.337220
 
  MM isotropic polarizabilities in au 
  ----------------------------------- 
     1      5.739350
     2      2.308390
     3      2.308390
     4      5.739350
     5      2.308390
     6      2.308390
     7      5.739350
     8      2.308390
     9      2.308390
    10      5.739350
    11      2.308390
    12      2.308390
    13      5.739350
    14      2.308390
    15      2.308390
    16      5.739350
    17      2.308390
    18      2.308390
    19      5.739350
    20      2.308390
    21      2.308390
    22      5.739350
    23      2.308390
    24      2.308390
    25      5.739350
    26      2.308390
    27      2.308390
    28      5.739350
    29      2.308390
    30      2.308390
    31      5.739350
    32      2.308390
    33      2.308390
    34      5.739350
    35      2.308390
    36      2.308390
    37      5.739350
    38      2.308390
    39      2.308390
    40      5.739350
    41      2.308390
    42      2.308390
    43      5.739350
    44      2.308390
    45      2.308390
    46      5.739350
    47      2.308390
    48      2.308390
    49      5.739350
    50      2.308390
    51      2.308390
    52      5.739350
    53      2.308390
    54      2.308390
    55      5.739350
    56      2.308390
    57      2.308390
    58      5.739350
    59      2.308390
    60      2.308390
    61      5.739350
    62      2.308390
    63      2.308390
    64      5.739350
    65      2.308390
    66      2.308390
    67      5.739350
    68      2.308390
    69      2.308390
    70      5.739350
    71      2.308390
    72      2.308390
    73      5.739350
    74      2.308390
    75      2.308390
    76      5.739350
    77      2.308390
    78      2.308390
    79      5.739350
    80      2.308390
    81      2.308390
    82      5.739350
    83      2.308390
    84      2.308390
    85      5.739350
    86      2.308390
    87      2.308390
    88      5.739350
    89      2.308390
    90      2.308390
    91      5.739350
    92      2.308390
    93      2.308390
    94      5.739350
    95      2.308390
    96      2.308390
    97      5.739350
    98      2.308390
    99      2.308390
   100      5.739350
   101      2.308390
   102      2.308390
   103      5.739350
   104      2.308390
   105      2.308390
   106      5.739350
   107      2.308390
   108      2.308390
   109      5.739350
   110      2.308390
   111      2.308390
   112      5.739350
   113      2.308390
   114      2.308390
   115      5.739350
   116      2.308390
   117      2.308390
   118      5.739350
   119      2.308390
   120      2.308390
   121      5.739350
   122      2.308390
   123      2.308390
   124      5.739350
   125      2.308390
   126      2.308390
   127      5.739350
   128      2.308390
   129      2.308390
   130      5.739350
   131      2.308390
   132      2.308390
   133      5.739350
   134      2.308390
   135      2.308390
   136      5.739350
   137      2.308390
   138      2.308390
   139      5.739350
   140      2.308390
   141      2.308390
   142      5.739350
   143      2.308390
   144      2.308390
   145      5.739350
   146      2.308390
   147      2.308390
   148      5.739350
   149      2.308390
   150      2.308390
   151      5.739350
   152      2.308390
   153      2.308390
   154      5.739350
   155      2.308390
   156      2.308390
   157      5.739350
   158      2.308390
   159      2.308390
   160      5.739350
   161      2.308390
   162      2.308390
   163      5.739350
   164      2.308390
   165      2.308390
   166      5.739350
   167      2.308390
   168      2.308390
   169      5.739350
   170      2.308390
   171      2.308390
   172      5.739350
   173      2.308390
   174      2.308390
   175      5.739350
   176      2.308390
   177      2.308390


     ************************************************************************
     ************************** Output from HERINT **************************
     ************************************************************************



                      Nuclear contribution to dipole moments
                      --------------------------------------

                 au               Debye          C m (/(10**-30)

      x     -2.12267644        -5.39530501       -17.99680035
      y     18.64360709        47.38731949       158.06708349
      z     27.81874521        70.70819293       235.85714398



 Threshold for neglecting two-electron integrals:  1.00D-12
 HERMIT - Number of two-electron integrals written:    36339029 ( 40.7% )
 HERMIT - Megabytes written:                            416.105

  Time used in TWOINT     is       8.04 seconds
  Total CPU  time used in HERMIT:   8.23 seconds
  Total wall time used in HERMIT:   9.02 seconds


                        .----------------------------------.
                        | End of Integral Section (HERMIT) |
                        `----------------------------------'



                   .--------------------------------------------.
                   | Starting in Wave Function Section (SIRIUS) |
                   `--------------------------------------------'

NCCEXCI for singlet:    1
 CCSD_INPUT: core-val requested
 Requested number of virtual orbs per sym
                     1
 Indices of requested virtual orbs
                     1
 CCSD_INPUT: core-val requested
 Requested number of core orbs per sym
                     1
 Indices of requested core orbs
                     1

 *** Output from Huckel module :

     Using EWMO model:          T
     Using EHT  model:          F
     Number of Huckel orbitals each symmetry:   37

 EWMO - Energy Weighted Maximum Overlap - is a Huckel type method,
        which normally is better than Extended Huckel Theory.
 Reference: Linderberg and Ohrn, Propagators in Quantum Chemistry (Wiley, 1973)

 Huckel EWMO eigenvalues for symmetry :  1
          -20.684827     -20.684525     -20.684364     -20.684190     -15.675330
           -1.788871      -1.612606      -1.602339      -1.584549      -1.487823
           -0.814695      -0.805769      -0.794830      -0.783617      -0.766649
           -0.763746      -0.731562      -0.687129      -0.681984      -0.661102
           -0.640460      -0.614378      -0.580978      -0.569232      -0.559310
           -0.263327      -0.248297      -0.245757      -0.235146      -0.185347
           -0.183423      -0.181122      -0.176009      -0.172313      -0.154606
           -0.145309      -0.140278

 **********************************************************************
 *SIRIUS* a direct, restricted step, second order MCSCF program       *
 **********************************************************************

 
     Date and time (Linux)  : Sun Dec  2 17:03:51 2018
     Host name              : n-62-23-21                              

 Title lines from ".mol" input file:
                                                                             
                                                                             

 Print level on unit LUPRI =   2 is   0
 Print level on unit LUW4  =   2 is  11

@    (Integral direct) CC calculation.

@    This is a combination run starting with
@              a restricted, closed shell Hartree-Fock calculation


 Initial molecular orbitals are obtained according to
 ".MOSTART EWMO  " input option

@    QM part is embedded in an environment :

@         Model: QMMM

     Wave function specification
     ============================

     For the specification of the Coupled Cluster: see later.

@    Wave function type        --- CC ---
@    Number of closed shell electrons          50
@    Number of electrons in active shells       0
@    Total charge of the molecule               1

@    Spin multiplicity and 2 M_S                1         0
@    Total number of symmetries                 1 (point group: C1 )
@    Reference state symmetry                   1 (irrep name : A  )

     Orbital specifications
     ======================
@    Abelian symmetry species          All |    1
@                                          |  A  
                                       --- |  ---
@    Occupied SCF orbitals              25 |   25
@    Secondary orbitals                138 |  138
@    Total number of orbitals          163 |  163
@    Number of basis functions         163 |  163

     Optimization information
     ========================
@    Number of configurations                 1
@    Number of orbital rotations           3450
     ------------------------------------------
@    Total number of variables             3451

     Maximum number of Fock   iterations      0
     Maximum number of DIIS   iterations     60
     Maximum number of QC-SCF iterations     60
     Threshold for SCF convergence     1.00D-07


 Changes of defaults for CC:
 ---------------------------


 -Implicit frozen core calculation
 -Excitation energies calculated
 -One-photon absorption strengths will be calculated
 -Oscillator strengths calculated
  
* Read MO coefficients from SIRIUS.RST with label "NEWORB  " and header info:  2Dec18  REORTHO 


 ***********************************************
 ***** DIIS acceleration of SCF iterations *****
 ***********************************************

 C1-DIIS algorithm; max error vectors =    8
 -----------------------------------------------------------------------------

 *** DIIS iteration number    1
 RDSUPM called. NFMAT, ISYMDM(1:NFMAT)                     1
                     1

Calculating AOSUPINT
     (Precalculated two-electron integrals are transformed to P-supermatrix elements.
      Threshold for discarding integrals :  1.00D-12 )
  CPU  time used in FORMSUP    is   5.03 seconds
  WALL time used in FORMSUP    is  17.09 seconds

 ITDIIS, energy, error norm, change in energy, scr.thr., difden:
@ DIIS iter.   1    -360.278960311        3.96515D+00   -3.60D+02  -20    F

 (DIIS_RED) Control Parameters C2DIIS =         F NEVC =    1


 (DIIS_RED) B matrix:

               Column   1
       1      15.72240561
    ==== End of matrix output ====

 DIIS C vector; C2DIIS = F, LAMBDA = -1.57D+01
    1.000000
* Read MO coefficients from SIRIUS.RST with label "NEWORB  " and header info:  2Dec18  DIIS   1
      Virial theorem: -V/T =      2.003532
@      MULPOP N       0.12; H       0.17; H       0.17; H       0.16; H       0.17; O      -0.59; O      -0.57; O      -0.58; O      -0.63; H       0.32; 
@             H       0.32; H       0.32; H       0.32; H       0.33; H       0.33; H       0.33; H       0.33; 
   1  Level shift: doubly occupied orbital energies shifted by -2.00D-01

 DIIS Fock eigenvalues in symmetry 1
      -20.85824      -20.83986      -20.78766      -20.78051      -16.45587
       -1.71293       -1.66820       -1.64193       -1.61995       -1.58962
       -1.20559       -1.17983       -1.16609       -1.04461       -1.01035
       -0.98871       -0.98324       -0.93356       -0.90810       -0.88772
       -0.86367       -0.86048       -0.83562       -0.81539       -0.80241
       -0.00475       -0.00005        0.05218        0.08568        0.09271
        0.11569        0.14248        0.16147        0.17332        0.19253
        0.21032        0.22309        0.22733        0.26720        0.28418
        0.30533        0.39919        0.43182        0.46901        0.47294
        0.49132        0.49338        0.51339        0.53284        0.56191
        0.68662        0.70219        0.72805        0.81864        0.83340
        0.87557        0.90771        0.92324        0.94007        0.95552
        0.97182        0.99394        1.03121        1.03849        1.05115
        1.05724        1.08853        1.11742        1.21780        1.26535
        1.28842        1.31989        1.34038        1.36924        1.37827
        1.38443        1.39329        1.42976        1.43660        1.52099
        1.53248        1.54666        1.54813        1.59172        1.61401
        1.66597        1.70153        1.74113        1.76529        1.78358
        1.81011        1.90694        1.93778        2.01096        2.03844
        2.08575        2.10410        2.12112        2.15290        2.17156
        2.18247        2.19542        2.23005        2.25985        2.29155
        2.38169        2.44031        2.49346        2.52416        2.56330
        2.60541        2.61501        2.63087        2.65003        2.67744
        2.68272        2.70418        2.75183        2.76274        2.96263
        3.02714        3.06443        3.10225        3.27360        3.29933
        3.32344        3.35944        3.36273        3.39634        3.43717
        3.45733        3.45951        3.49864        3.50401        3.60575
        3.84051        3.86656        3.88783        4.00064        4.01239
        4.06105        4.06319        4.19232        4.62905        4.75027
        4.84452        5.26463        5.26601        5.28076        5.29365
        5.59294        5.68397        5.71200        5.80146        5.88583
        5.93069        6.01770        6.07671       36.35127       51.39243
       51.42897       51.50510       51.50574
 Time used in FCKEIG, thr_jaco:   4.60D-02  5.90D-02  1.69D-04
 CPU and wall times used in FCKEIG, THR_FCKEIG:   4.60D-02  5.90D-02  3.97D-02
 -----------------------------------------------------------------------------

 *** DIIS iteration number    2
 RDSUPM called. NFMAT, ISYMDM(1:NFMAT)                     1
                     1

 ITDIIS, energy, error norm, change in energy, scr.thr., difden:
@ DIIS iter.   2    -361.171623118        1.15142D+00   -8.93D-01  -20    F

 (DIIS_RED) Control Parameters C2DIIS =         F NEVC =    2


 (DIIS_RED) B matrix:

               Column   1     Column   2
       1      15.72240561
       2       0.74386308     1.32576372
    ==== End of matrix output ====

 DIIS C vector; C2DIIS = F, LAMBDA = -1.30D+00
    0.037396    0.962604
* Read MO coefficients from SIRIUS.RST with label "NEWORB  " and header info:  2Dec18  DIIS   2
      Virial theorem: -V/T =      2.002677
@      MULPOP N      -0.54; H       0.33; H       0.35; H       0.29; H       0.35; O      -0.54; O      -0.57; O      -0.65; O      -0.64; H       0.28; 
@             H       0.31; H       0.32; H       0.31; H       0.36; H       0.35; H       0.31; H       0.36; 
   2  Level shift: doubly occupied orbital energies shifted by -1.00D-01

 DIIS Fock eigenvalues in symmetry 1
      -20.81528      -20.77001      -20.73271      -20.73151      -15.62386
       -1.56304       -1.52806       -1.50784       -1.48820       -1.36765
       -0.92292       -0.88398       -0.87797       -0.87197       -0.85612
       -0.85357       -0.83817       -0.82788       -0.78847       -0.76156
       -0.75098       -0.71849       -0.70660       -0.68781       -0.67871
       -0.00005        0.05146        0.09803        0.12794        0.13170
        0.16878        0.17908        0.20160        0.21520        0.24315
        0.25836        0.28099        0.30175        0.36640        0.36918
        0.39510        0.43173        0.47063        0.50632        0.51901
        0.52436        0.54282        0.55659        0.58558        0.62614
        0.79001        0.84572        0.87227        0.88493        0.89340
        0.92523        0.92907        0.96522        0.96910        0.99832
        1.01929        1.03543        1.06375        1.08165        1.09600
        1.15555        1.19103        1.20092        1.28576        1.32214
        1.35678        1.36978        1.39175        1.42415        1.42595
        1.43211        1.44482        1.49209        1.50447        1.59784
        1.60382        1.61526        1.62599        1.68624        1.69565
        1.74198        1.75596        1.80595        1.82858        1.86175
        1.90024        1.99926        2.03802        2.08183        2.11131
        2.13491        2.16852        2.20364        2.22196        2.25162
        2.26149        2.26835        2.35090        2.35914        2.37817
        2.48034        2.54658        2.57682        2.61069        2.64253
        2.66938        2.69525        2.71578        2.74266        2.74678
        2.77707        2.82055        2.94069        2.98200        3.13840
        3.24345        3.29503        3.32975        3.33506        3.34492
        3.38238        3.39206        3.42708        3.44330        3.46706
        3.47741        3.48692        3.53167        3.54206        3.63288
        3.86438        3.89699        3.91220        4.02079        4.03272
        4.08308        4.09548        4.21570        5.02681        5.13748
        5.21008        5.26532        5.28056        5.29887        5.30438
        5.59659        5.69368        5.71557        5.80592        5.89722
        5.95692        6.03788        6.08958       37.06641       51.33792
       51.40090       51.45671       51.46280
 Time used in FCKEIG, thr_jaco:   3.20D-02  3.40D-02  4.90D-05
 CPU and wall times used in FCKEIG, THR_FCKEIG:   3.20D-02  3.50D-02  1.15D-02
 -----------------------------------------------------------------------------

 *** DIIS iteration number    3
 RDSUPM called. NFMAT, ISYMDM(1:NFMAT)                     1
                     1

 ITDIIS, energy, error norm, change in energy, scr.thr., difden:
@ DIIS iter.   3    -361.249257246        3.80121D-01   -7.76D-02  -20    F

 (DIIS_RED) Control Parameters C2DIIS =         F NEVC =    3


 (DIIS_RED) B matrix:

               Column   1     Column   2     Column   3
       1      15.72240561
       2       0.74386308     1.32576372
       3       0.82997544    -0.00127333     0.14449227
    ==== End of matrix output ====

 DIIS C vector; C2DIIS = F, LAMBDA = -9.64D-02
   -0.048674    0.100943    0.947731
* Read MO coefficients from SIRIUS.RST with label "NEWORB  " and header info:  2Dec18  DIIS   3
      Virial theorem: -V/T =      2.003735
@      MULPOP N      -0.35; H       0.30; H       0.32; H       0.24; H       0.31; O      -0.60; O      -0.63; O      -0.73; O      -0.71; H       0.30; 
@             H       0.33; H       0.35; H       0.33; H       0.39; H       0.38; H       0.34; H       0.40; 
   3  Level shift: doubly occupied orbital energies shifted by -5.00D-02

 DIIS Fock eigenvalues in symmetry 1
      -20.72761      -20.68372      -20.64559      -20.64073      -15.78592
       -1.49576       -1.46058       -1.44129       -1.42058       -1.37030
       -0.86314       -0.85467       -0.83577       -0.81697       -0.81371
       -0.80309       -0.78650       -0.75915       -0.72126       -0.68996
       -0.68477       -0.65252       -0.63993       -0.61288       -0.60370
       -0.00005        0.05761        0.10334        0.13335        0.13683
        0.17486        0.18067        0.20532        0.21934        0.24860
        0.25810        0.28189        0.30154        0.36482        0.36776
        0.39427        0.44234        0.48093        0.51657        0.52760
        0.53531        0.55219        0.56538        0.59326        0.62836
        0.79354        0.83671        0.85802        0.88532        0.89057
        0.93781        0.94543        0.97871        0.98296        1.01160
        1.02713        1.04713        1.07729        1.09457        1.11012
        1.15025        1.19613        1.19758        1.29047        1.33161
        1.36356        1.38043        1.40582        1.43653        1.43730
        1.44541        1.45839        1.50617        1.51239        1.60741
        1.61186        1.62490        1.63380        1.69157        1.70060
        1.74884        1.76754        1.81575        1.83876        1.86873
        1.90678        2.00220        2.03963        2.09722        2.11384
        2.14916        2.18412        2.21841        2.23802        2.25600
        2.26471        2.28029        2.34966        2.37245        2.37738
        2.48616        2.55262        2.58660        2.61857        2.65187
        2.68003        2.70557        2.72169        2.75180        2.75742
        2.78352        2.82799        2.90692        2.94813        3.12707
        3.22561        3.29333        3.30287        3.34645        3.36569
        3.36994        3.41743        3.44254        3.44712        3.48832
        3.50368        3.51072        3.55298        3.56630        3.65798
        3.88717        3.92113        3.93595        4.04685        4.05870
        4.11060        4.12166        4.24129        4.94172        5.05594
        5.14771        5.29580        5.30211        5.31416        5.33368
        5.62292        5.72339        5.74536        5.83446        5.92686
        5.98629        6.06705        6.12133       36.86066       51.37578
       51.43741       51.49756       51.50014
 Time used in FCKEIG, thr_jaco:   2.70D-02  3.20D-02  1.62D-05
 CPU and wall times used in FCKEIG, THR_FCKEIG:   2.70D-02  3.20D-02  3.80D-03
 -----------------------------------------------------------------------------

 *** DIIS iteration number    4
 RDSUPM called. NFMAT, ISYMDM(1:NFMAT)                     1
                     1

 ITDIIS, energy, error norm, change in energy, scr.thr., difden:
@ DIIS iter.   4    -361.259949278        9.36580D-02   -1.07D-02  -20    F

 (DIIS_RED) Control Parameters C2DIIS =         F NEVC =    4


 (DIIS_RED) B matrix:

               Column   1     Column   2     Column   3     Column   4
       1      15.72240561
       2       0.74386308     1.32576372
       3       0.82997544    -0.00127333     0.14449227
       4       0.05820240     0.07915223     0.00607180     0.00877182
    ==== End of matrix output ====

 DIIS C vector; C2DIIS = F, LAMBDA = -4.53D-03
   -0.000089   -0.060702   -0.013814    1.074605
* Read MO coefficients from SIRIUS.RST with label "NEWORB  " and header info:  2Dec18  DIIS   4
      Virial theorem: -V/T =      2.003598
@      MULPOP N      -0.42; H       0.32; H       0.34; H       0.25; H       0.33; O      -0.61; O      -0.64; O      -0.75; O      -0.72; H       0.30; 
@             H       0.34; H       0.36; H       0.34; H       0.41; H       0.39; H       0.35; H       0.41; 
   4  Level shift: doubly occupied orbital energies shifted by -1.25D-02

 DIIS Fock eigenvalues in symmetry 1
      -20.70073      -20.66080      -20.61994      -20.61752      -15.71448
       -1.46204       -1.42838       -1.40827       -1.38746       -1.32030
       -0.82101       -0.81371       -0.78745       -0.78052       -0.77221
       -0.76649       -0.75219       -0.72320       -0.68640       -0.65362
       -0.64708       -0.61575       -0.60267       -0.57550       -0.56671
       -0.00005        0.05794        0.10307        0.13265        0.13616
        0.17443        0.18259        0.20526        0.21910        0.24789
        0.26174        0.28475        0.30529        0.37103        0.37357
        0.40042        0.44231        0.48014        0.51550        0.52787
        0.53396        0.55087        0.56595        0.59263        0.63094
        0.79737        0.84382        0.86514        0.88786        0.89446
        0.93923        0.94608        0.97787        0.98330        1.01043
        1.02777        1.04692        1.07614        1.09337        1.10748
        1.15522        1.19813        1.20173        1.29299        1.33181
        1.36586        1.37958        1.40412        1.43619        1.43691
        1.44422        1.45594        1.50350        1.51271        1.60733
        1.61295        1.62627        1.63484        1.69451        1.70275
        1.75236        1.76625        1.81592        1.83844        1.87170
        1.90790        2.00541        2.04446        2.09458        2.11835
        2.14571        2.18074        2.21650        2.23560        2.26163
        2.26472        2.27887        2.35538        2.37165        2.37966
        2.48857        2.55777        2.58671        2.61974        2.65231
        2.68050        2.70665        2.72534        2.75295        2.75643
        2.78414        2.82832        2.91846        2.95996        3.13579
        3.23451        3.30541        3.30587        3.34799        3.36721
        3.36829        3.41308        3.44403        3.44561        3.48598
        3.50024        3.50843        3.55056        3.56222        3.65511
        3.88472        3.91661        3.93269        4.04305        4.05622
        4.10710        4.11726        4.23839        4.96026        5.07447
        5.16419        5.28941        5.29873        5.30893        5.32651
        5.61865        5.71658        5.73860        5.82911        5.92131
        5.97832        6.06073        6.11415       36.89418       51.36546
       51.42318       51.48366       51.48858
 Time used in FCKEIG, thr_jaco:   2.60D-02  2.80D-02  3.99D-06
 CPU and wall times used in FCKEIG, THR_FCKEIG:   2.60D-02  2.80D-02  9.37D-04
 -----------------------------------------------------------------------------

 *** DIIS iteration number    5
 RDSUPM called. NFMAT, ISYMDM(1:NFMAT)                     1
                     1

 ITDIIS, energy, error norm, change in energy, scr.thr., difden:
@ DIIS iter.   5    -361.260988900        2.93323D-02   -1.04D-03  -20    F

 (DIIS_RED) Control Parameters C2DIIS =         F NEVC =    5


 (DIIS_RED) B matrix:

               Column   1     Column   2     Column   3     Column   4     Column   5
       1      15.72240561
       2       0.74386308     1.32576372
       3       0.82997544    -0.00127333     0.14449227
       4       0.05820240     0.07915223     0.00607180     0.00877182
       5       0.02208390     0.00738191     0.00579549     0.00088624     0.00086039
    ==== End of matrix output ====

 DIIS C vector; C2DIIS = F, LAMBDA = -5.89D-04
    0.001306   -0.011448   -0.046077    0.096679    0.959540
* Read MO coefficients from SIRIUS.RST with label "NEWORB  " and header info:  2Dec18  DIIS   5
      Virial theorem: -V/T =      2.003275
@      MULPOP N      -0.40; H       0.31; H       0.34; H       0.25; H       0.33; O      -0.62; O      -0.65; O      -0.76; O      -0.74; H       0.31; 
@             H       0.35; H       0.36; H       0.34; H       0.41; H       0.40; H       0.35; H       0.42; 

 DIIS Fock eigenvalues in symmetry 1
      -20.68234      -20.63998      -20.60161      -20.59706      -15.69903
       -1.44732       -1.41294       -1.39367       -1.37225       -1.30645
       -0.80709       -0.79994       -0.77360       -0.76613       -0.75799
       -0.75234       -0.73814       -0.70893       -0.67144       -0.63945
       -0.63189       -0.60087       -0.58677       -0.56019       -0.55079
       -0.00005        0.05842        0.10343        0.13295        0.13643
        0.17475        0.18320        0.20560        0.21934        0.24819
        0.26259        0.28540        0.30604        0.37206        0.37454
        0.40141        0.44295        0.48079        0.51608        0.52849
        0.53450        0.55145        0.56665        0.59311        0.63173
        0.79876        0.84504        0.86622        0.88950        0.89597
        0.94098        0.94814        0.97909        0.98488        1.01198
        1.02921        1.04833        1.07766        1.09462        1.10878
        1.15648        1.19942        1.20292        1.29451        1.33293
        1.36714        1.38033        1.40456        1.43689        1.43802
        1.44500        1.45646        1.50391        1.51366        1.60785
        1.61363        1.62708        1.63554        1.69529        1.70345
        1.75314        1.76640        1.81632        1.83876        1.87257
        1.90833        2.00616        2.04546        2.09518        2.11933
        2.14654        2.18140        2.21727        2.23649        2.26270
        2.26578        2.27974        2.35639        2.37243        2.38060
        2.48915        2.55866        2.58721        2.62028        2.65272
        2.68077        2.70702        2.72589        2.75318        2.75679
        2.78455        2.82859        2.91969        2.96120        3.13703
        3.23622        3.30706        3.30792        3.35055        3.36950
        3.37062        3.41612        3.44630        3.44794        3.48810
        3.50307        3.51064        3.55330        3.56514        3.65714
        3.88693        3.91954        3.93482        4.04579        4.05863
        4.11011        4.12048        4.24065        4.96212        5.07620
        5.16621        5.29376        5.30238        5.31292        5.33129
        5.62197        5.72106        5.74306        5.83230        5.92442
        5.98262        6.06370        6.11826       36.89708       51.37128
       51.43139       51.49150       51.49434
 Time used in FCKEIG, thr_jaco:   2.30D-02  2.90D-02  1.25D-06
 CPU and wall times used in FCKEIG, THR_FCKEIG:   2.30D-02  2.90D-02  2.93D-04
 -----------------------------------------------------------------------------

 *** DIIS iteration number    6
 RDSUPM called. NFMAT, ISYMDM(1:NFMAT)                     1
                     1

 ITDIIS, energy, error norm, change in energy, scr.thr., difden:
@ DIIS iter.   6    -361.261073704        1.06450D-02   -8.48D-05  -20    F

 (DIIS_RED) Control Parameters C2DIIS =         F NEVC =    6


 (DIIS_RED) B matrix:

               Column   1     Column   2     Column   3     Column   4     Column   5     Column   6
       1      15.72240561
       2       0.74386308     1.32576372
       3       0.82997544    -0.00127333     0.14449227
       4       0.05820240     0.07915223     0.00607180     0.00877182
       5       0.02208390     0.00738191     0.00579549     0.00088624     0.00086039
       6      -0.00526635    -0.00020151     0.00072217     0.00052854     0.00001467     0.00011332
    ==== End of matrix output ====

 DIIS C vector; C2DIIS = F, LAMBDA = -3.40D-05
    0.000802    0.006565   -0.009571   -0.127949    0.141992    0.988161
* Read MO coefficients from SIRIUS.RST with label "NEWORB  " and header info:  2Dec18  DIIS   6
      Virial theorem: -V/T =      2.003523
@      MULPOP N      -0.40; H       0.31; H       0.34; H       0.25; H       0.33; O      -0.62; O      -0.65; O      -0.76; O      -0.74; H       0.31; 
@             H       0.35; H       0.36; H       0.34; H       0.41; H       0.40; H       0.35; H       0.42; 

 DIIS Fock eigenvalues in symmetry 1
      -20.68400      -20.64264      -20.60330      -20.59963      -15.70091
       -1.44772       -1.41368       -1.39412       -1.37304       -1.30695
       -0.80762       -0.80047       -0.77414       -0.76692       -0.75869
       -0.75289       -0.73863       -0.70955       -0.67232       -0.64017
       -0.63211       -0.60174       -0.58729       -0.56043       -0.55133
       -0.00005        0.05833        0.10328        0.13278        0.13625
        0.17463        0.18312        0.20546        0.21916        0.24803
        0.26244        0.28527        0.30590        0.37188        0.37437
        0.40126        0.44279        0.48056        0.51583        0.52824
        0.53418        0.55114        0.56637        0.59286        0.63151
        0.79846        0.84469        0.86588        0.88911        0.89568
        0.94078        0.94779        0.97874        0.98461        1.01152
        1.02877        1.04792        1.07725        1.09423        1.10828
        1.15618        1.19913        1.20265        1.29414        1.33258
        1.36683        1.38001        1.40425        1.43657        1.43759
        1.44457        1.45606        1.50360        1.51332        1.60756
        1.61337        1.62674        1.63525        1.69506        1.70307
        1.75293        1.76613        1.81602        1.83847        1.87239
        1.90810        2.00597        2.04525        2.09473        2.11910
        2.14596        2.18095        2.21687        2.23586        2.26233
        2.26544        2.27923        2.35615        2.37203        2.38028
        2.48886        2.55857        2.58696        2.62000        2.65233
        2.68047        2.70680        2.72565        2.75288        2.75650
        2.78421        2.82832        2.91920        2.96070        3.13677
        3.23565        3.30638        3.30737        3.34978        3.36889
        3.36993        3.41516        3.44560        3.44718        3.48749
        3.50209        3.51009        3.55240        3.56423        3.65650
        3.88635        3.91860        3.93418        4.04479        4.05804
        4.10909        4.11949        4.23997        4.96124        5.07528
        5.16531        5.29252        5.30143        5.31184        5.32993
        5.62108        5.71962        5.74162        5.83133        5.92348
        5.98115        6.06274        6.11681       36.89523       51.36964
       51.42876       51.48897       51.49266
 Time used in FCKEIG, thr_jaco:   2.30D-02  4.30D-02  4.53D-07
 CPU and wall times used in FCKEIG, THR_FCKEIG:   2.30D-02  4.30D-02  1.06D-04
 -----------------------------------------------------------------------------

 *** DIIS iteration number    7
 RDSUPM called. NFMAT, ISYMDM(1:NFMAT)                     1
                     1

 ITDIIS, energy, error norm, change in energy, scr.thr., difden:
@ DIIS iter.   7    -361.261085144        2.20897D-03   -1.14D-05  -20    F

 (DIIS_RED) Control Parameters C2DIIS =         F NEVC =    7


 (DIIS_RED) B matrix:

               Column   1     Column   2     Column   3     Column   4     Column   5     Column   6
       1      15.72240561
       2       0.74386308     1.32576372
       3       0.82997544    -0.00127333     0.14449227
       4       0.05820240     0.07915223     0.00607180     0.00877182
       5       0.02208390     0.00738191     0.00579549     0.00088624     0.00086039
       6      -0.00526635    -0.00020151     0.00072217     0.00052854     0.00001467     0.00011332
       7       0.00031059     0.00022556    -0.00001213     0.00000816     0.00004500    -0.00000090

               Column   7
       7       0.00000488
    ==== End of matrix output ====

 DIIS C vector; C2DIIS = F, LAMBDA = -1.11D-06
   -0.000235   -0.000733    0.005278    0.020567   -0.103387   -0.109197    1.187706
* Read MO coefficients from SIRIUS.RST with label "NEWORB  " and header info:  2Dec18  DIIS   7
      Virial theorem: -V/T =      2.003460
@      MULPOP N      -0.40; H       0.31; H       0.34; H       0.25; H       0.33; O      -0.62; O      -0.65; O      -0.76; O      -0.74; H       0.31; 
@             H       0.35; H       0.37; H       0.34; H       0.42; H       0.40; H       0.35; H       0.42; 

 DIIS Fock eigenvalues in symmetry 1
      -20.68377      -20.64225      -20.60316      -20.59927      -15.70051
       -1.44758       -1.41350       -1.39403       -1.37288       -1.30675
       -0.80754       -0.80032       -0.77399       -0.76681       -0.75858
       -0.75275       -0.73855       -0.70953       -0.67224       -0.64015
       -0.63195       -0.60164       -0.58709       -0.56029       -0.55113
       -0.00005        0.05838        0.10333        0.13281        0.13628
        0.17466        0.18318        0.20550        0.21919        0.24806
        0.26252        0.28533        0.30598        0.37200        0.37448
        0.40138        0.44285        0.48061        0.51588        0.52830
        0.53421        0.55119        0.56644        0.59290        0.63160
        0.79855        0.84482        0.86601        0.88922        0.89580
        0.94088        0.94790        0.97882        0.98471        1.01162
        1.02888        1.04802        1.07735        1.09429        1.10833
        1.15631        1.19924        1.20277        1.29428        1.33267
        1.36693        1.38006        1.40427        1.43662        1.43767
        1.44462        1.45610        1.50360        1.51340        1.60761
        1.61343        1.62681        1.63531        1.69514        1.70314
        1.75301        1.76615        1.81606        1.83850        1.87247
        1.90814        2.00605        2.04537        2.09477        2.11920
        2.14602        2.18097        2.21691        2.23590        2.26243
        2.26554        2.27928        2.35626        2.37206        2.38039
        2.48893        2.55865        2.58700        2.62005        2.65236
        2.68050        2.70685        2.72571        2.75290        2.75654
        2.78425        2.82835        2.91938        2.96088        3.13691
        3.23582        3.30658        3.30751        3.34995        3.36903
        3.37010        3.41533        3.44572        3.44733        3.48759
        3.50225        3.51021        3.55255        3.56440        3.65660
        3.88646        3.91876        3.93427        4.04494        4.05817
        4.10926        4.11968        4.24008        4.96149        5.07554
        5.16556        5.29272        5.30161        5.31203        5.33017
        5.62124        5.71985        5.74185        5.83144        5.92363
        5.98138        6.06285        6.11701       36.89562       51.36987
       51.42915       51.48932       51.49281
 Time used in FCKEIG, thr_jaco:   2.40D-02  2.60D-02  9.40D-08
 CPU and wall times used in FCKEIG, THR_FCKEIG:   2.40D-02  2.60D-02  2.21D-05
 -----------------------------------------------------------------------------

 *** DIIS iteration number    8
 RDSUPM called. NFMAT, ISYMDM(1:NFMAT)                     1
                     1

 ITDIIS, energy, error norm, change in energy, scr.thr., difden:
@ DIIS iter.   8    -361.261085638        3.43295D-04   -4.95D-07  -20    F

 (DIIS_RED) Control Parameters C2DIIS =         F NEVC =    8


 (DIIS_RED) B matrix:

               Column   1     Column   2     Column   3     Column   4     Column   5     Column   6
       1      15.72240561
       2       0.74386308     1.32576372
       3       0.82997544    -0.00127333     0.14449227
       4       0.05820240     0.07915223     0.00607180     0.00877182
       5       0.02208390     0.00738191     0.00579549     0.00088624     0.00086039
       6      -0.00526635    -0.00020151     0.00072217     0.00052854     0.00001467     0.00011332
       7       0.00031059     0.00022556    -0.00001213     0.00000816     0.00004500    -0.00000090
       8       0.00007919    -0.00004371     0.00000791     0.00000118     0.00000017     0.00000149

               Column   7     Column   8
       7       0.00000488
       8       0.00000029     0.00000012
    ==== End of matrix output ====

 DIIS C vector; C2DIIS = F, LAMBDA = -6.16D-08
    0.000011    0.000016   -0.000704   -0.000634    0.016016   -0.011141   -0.210421    1.206858
* Read MO coefficients from SIRIUS.RST with label "NEWORB  " and header info:  2Dec18  DIIS   8
      Virial theorem: -V/T =      2.003476
@      MULPOP N      -0.40; H       0.31; H       0.34; H       0.25; H       0.33; O      -0.62; O      -0.65; O      -0.76; O      -0.74; H       0.31; 
@             H       0.35; H       0.37; H       0.34; H       0.42; H       0.40; H       0.35; H       0.42; 

 DIIS Fock eigenvalues in symmetry 1
      -20.68377      -20.64229      -20.60310      -20.59930      -15.70053
       -1.44758       -1.41351       -1.39400       -1.37288       -1.30676
       -0.80754       -0.80032       -0.77400       -0.76681       -0.75858
       -0.75275       -0.73853       -0.70955       -0.67226       -0.64015
       -0.63194       -0.60167       -0.58710       -0.56027       -0.55113
       -0.00005        0.05838        0.10333        0.13281        0.13628
        0.17466        0.18318        0.20550        0.21919        0.24807
        0.26252        0.28533        0.30597        0.37199        0.37447
        0.40137        0.44285        0.48061        0.51588        0.52830
        0.53421        0.55119        0.56643        0.59290        0.63160
        0.79854        0.84481        0.86600        0.88921        0.89579
        0.94089        0.94790        0.97883        0.98471        1.01162
        1.02887        1.04802        1.07735        1.09429        1.10833
        1.15630        1.19924        1.20277        1.29427        1.33267
        1.36693        1.38006        1.40427        1.43661        1.43766
        1.44461        1.45609        1.50360        1.51339        1.60760
        1.61343        1.62680        1.63531        1.69513        1.70314
        1.75300        1.76614        1.81605        1.83850        1.87247
        1.90814        2.00605        2.04536        2.09476        2.11919
        2.14601        2.18098        2.21691        2.23590        2.26242
        2.26553        2.27928        2.35625        2.37206        2.38038
        2.48892        2.55865        2.58700        2.62005        2.65236
        2.68049        2.70684        2.72571        2.75290        2.75654
        2.78425        2.82834        2.91937        2.96087        3.13690
        3.23581        3.30657        3.30750        3.34993        3.36902
        3.37009        3.41532        3.44573        3.44733        3.48760
        3.50224        3.51021        3.55254        3.56439        3.65662
        3.88645        3.91874        3.93428        4.04493        4.05817
        4.10925        4.11966        4.24010        4.96148        5.07552
[...]
 | 1 1 1 1 |  28   1  12   1 |     1546        1 |      1194286 |   -0.084701  |
 | 1 1 1 1 |  30   1  12   1 |     1548        1 |      1197379 |    0.070285  |
 | 1 1 1 1 |  27   1  19   1 |     2511        1 |      3151306 |    0.081282  |
 +=============================================================================+


          Norm of Printed Amplitude Vector :             0.8320

          Printed all single excitations greater than 0.381098

          Printed all double excitations greater than 0.064735



+======================================================================+
| contributions of excitation levels to right eigenvectors as computed |
| from the (RE|RE) self overlap                                        |
+----------------------------------------------------------------------+
| sym | multi | state |    E / eV  | % singles | % doubles | % triples |
+======================================================================+
|    1|   1   |   1   |  411.09533 |  88.1453  |  11.8547  |   0.0000  |
+======================================================================+





+======================================================================+
| contributions of excitation levels to excited states as computed     |
| from the (LE|RE) overlap                                             |
+----------------------------------------------------------------------+
| sym | multi | state |    E / eV  | % singles | % doubles | % triples |
+======================================================================+
|    1|   1   |   1   |  411.09533 |  79.0478  |  20.9522  |   0.0000  |
+======================================================================+



 --------------------------
 Symmetry class Nr.:     1
 Multiplicity      :     3
 --------------------------

 Length of Excitation vectors in this class is:   8404200
 No Excitation Energies calculated in this symmetry class
     

   *******************************************************************
   *                                                                 *
   *--------   OUTPUT FROM PROPERTY AND SYMMETRY ANALYSIS   ---------*
   *                                                                 *
   *******************************************************************



                         +-------------------------------+
                         ! REQUESTED PROPERTY OPERATORS: !
                         +-------------------------------+

             Index   Oper. Label  Symmetry  Transp.  PDBS  Atom
             --------------------------------------------------
                1     HAM0            1        1      T      0
                2     XDIPLEN         1        1      F      0
                3     YDIPLEN         1        1      F      0
                4     ZDIPLEN         1        1      F      0
             --------------------------------------------------




                         +-------------------------------+
                         ! REQUESTED EXPECTATION VALUES: !
                         +-------------------------------+

                       Index   Oper. Label  Symmetry
                       -----------------------------
                       -----------------------------




                       +------------------------------------+
                       ! REQUESTED EFFECTIVE FOCK MATRICES: !
                       +------------------------------------+

                       Index   Oper. Label  Symmetry
                       -----------------------------
                       -----------------------------




                        +----------------------------------+
                        ! REQUESTED FIRST ORDER M-VECTORS: !
                        +----------------------------------+

               Index   State Symmetry  Frequency
               --------------------------------------------------
                  1             1    1     1.510748D+01
               --------------------------------------------------


      

    *******************************************************************
    *          SOLVING COUPLED CLUSTER RESPONSE EQUATIONS             *
    *******************************************************************



 
 +======================================================================+
 !                     RHS & ETA VECTORS TO COMPUTE:                    !
 +======================================================================+
 | TYPE | # VEC. |  NEEDED FOR:                                         |
 +----------------------------------------------------------------------+
 +======================================================================+



 +======================================================================+
 !                       LINEAR EQUATIONS TO SOLVE:                     !
 +======================================================================+
 | TYPE | # VEC. |  EQUATION:                                           |
 +----------------------------------------------------------------------+
 |  M1  |    1   |  first-order ground - excited state multipliers      |
 +======================================================================+



 +======================================================================+
 !                F MATRIX TRANSFORMATIONS TO COMPUTE:                  !
 +======================================================================+
 | TYPE | # VEC. |  TRANSFORMED:                                        |
 +----------------------------------------------------------------------+
 |  FR  |    1   |  right eigenvectors (RE)                             |
 +======================================================================+





 Testing R1 list: 

 List nr.  Label     Symmetry      Frequency      T1-norm        T2-norm


 Testing L1 list: 

 List nr.  Label     Symmetry      Frequency      T1-norm        T2-norm
  Solvent 1-order response equations converged in                     0 
  solvent iterations
 SONIAPRI                     0
 CCEQ_STR: CVSEPARATION =  T
 CCEQ_STR: IONIZATION =  T
 CCEQ_STR: REMOVE_CORE =  F
 could not find required file CCM1_1___1
 IOPTSV is    33 ... program continues nevertheless.
 Vector nr.  1 of type M1  and symmetry  1 was not found on file.
     M1  start vector nr.  1 of symmetry  1 generated from gradient
 CCEQ_STR: freeze VALENCE OR VIRT
 CCEQ_SOL: CVSEPARA=     T
 CCEQ_SOL: LIONISAT=     T
 CCEQ_SOL: REMOVE_CORE =  F



 ----- COUPLED CLUSTER RESPONSE SOLVER -----

    Iter  #Vectors  time (min)   residual
    --------------------------------------
 CCRED CVS/IONIS sigma_                     1 
 project out valence occupied or virtual
      1       1         1.48     0.14E+01
 CCRED CVS/IONIS sigma_                     2 
 project out valence occupied or virtual
      2       1         1.42     0.26E+00
 CCRED CVS/IONIS sigma_                     3 
 project out valence occupied or virtual
      3       1         1.43     0.34E-01
 CCRED CVS/IONIS sigma_                     4 
 project out valence occupied or virtual
                    -1  vectors with norm le:  1.000000000000000E-035  REMOVED

 CCORT,**WARNING**  number vectors added is zero after check for vector norm , NBADD :    0

 CCORT, number vectors added is zero , NBADD :    0

 CCORT, number vectors added is zero , NBADD :    0

 CCORT, number vectors added is zero , NBADD :    0

 CCORT, number vectors added is zero , NBADD :    0

 *** MICROITERATIONS STOPPED DUE TO LINEAR DEPENDENCE BETWEEN ALL NEW TRIAL VECTORS
                     0  trial vectors converged
  LINEAR DEPENDENCE BETWEEN                     1  NON CONVERGED TRIAL VECTORS
      4       1         1.41     0.32E-02

 ***  CCEQ_SOL -MICROITERATIONS STOPPED  
     LINEAR DEPENDENCE BETWEEN ALL NEW TRIAL VECTORS
    --------------------------------------
    converged in  4 iterations
    threshold:    0.10E-08


         Routine          Time (min)
         ---------------------------
         CC_TRDRV            5.73
         CCRED               0.03
         CCNEX               0.05
         ---------------------------
         Total time          5.81


  Total CPU  time used in CCEQ_SOLV:  5 minutes 49 seconds
  Total wall time used in CCEQ_SOLV:  6 minutes  0 seconds


 xxxxxxxxxxxxxxxxxxxxxxxxxxxxxxxxxxxxx

 
 Solution of CC response equations completed.
 

 *******************************************************************
 *                                                                 *
 *--------  OUTPUT FROM COUPLED CLUSTER LINEAR RESPONSE   ---------*
 *                                                                 *
 *--------      CALCULATION OF SECOND ORDER RESIDUES      ---------*
 *                                                                 *
 *******************************************************************



                  +---------------------------------------------+
                  ! CC_SOPR: Calculation of CCSD       Residues !
                  +---------------------------------------------+

 Doing the Mf*CsiA
 Doing the Mf*CsiA
 Doing the Mf*CsiA


 CCSD  Right transition moments in atomic units:
 -----------------------------------------------

  1      15.107476  <XDIPLEN |f> =      -0.00000001
  1      15.107476  <YDIPLEN |f> =       0.00000004
  1      15.107476  <ZDIPLEN |f> =      -0.00000003


 CCSD  Left  transition moments in atomic units:
 -----------------------------------------------

  1      15.107476  <f|XDIPLEN > =      -0.00000000
  1      15.107476  <f|YDIPLEN > =       0.00000002
  1      15.107476  <f|ZDIPLEN > =      -0.00000002


 CCSD  linear response residue property in atomic units:
 -------------------------------------------------------

 RES{<<XDIPLEN ,XDIPLEN >>(15.107476)} =     0.00000000 (   0.00000000)
 RES{<<XDIPLEN ,YDIPLEN >>(15.107476)} =    -0.00000000 (  -0.00000001)
 RES{<<XDIPLEN ,ZDIPLEN >>(15.107476)} =     0.00000000 (   0.00000001)
 RES{<<YDIPLEN ,XDIPLEN >>(15.107476)} =    -0.00000000 (  -0.00000001)
 RES{<<YDIPLEN ,YDIPLEN >>(15.107476)} =     0.00000000 (   0.00000003)
 RES{<<YDIPLEN ,ZDIPLEN >>(15.107476)} =    -0.00000000 (  -0.00000002)
 RES{<<ZDIPLEN ,XDIPLEN >>(15.107476)} =     0.00000000 (   0.00000001)
 RES{<<ZDIPLEN ,YDIPLEN >>(15.107476)} =    -0.00000000 (  -0.00000002)
 RES{<<ZDIPLEN ,ZDIPLEN >>(15.107476)} =     0.00000000 (   0.00000002)


 CCSD  Transition strength matrix for state nr.  1 of symmetry 1
 CCSD  excitation energy:15.10747592

 Gauge: length

               Column   1     Column   2     Column   3
       1     1.555659D-17  -1.058856D-16   9.015734D-17
       2    -1.058856D-16   7.203074D-16  -6.132388D-16
       3     9.015734D-17  -6.132388D-16   5.220716D-16
    ==== End of matrix output ====

 Principal values of diagonalized transition strength matrix:

             a.u.               
 1       0.00000000
 2       0.00000000
 3       0.00000000

 Principal axis of diagonalized transition strength matrix:


               Column   1     Column   2     Column   3
       1       1.00000000     0.00000000     0.00000000
       2       0.00000000     1.00000000     0.00000000
       3       0.00000000     0.00000000     1.00000000
    ==== End of matrix output ====


 CCSD   oscillator strength matrix for state nr.  1 of symmetry 1
 CCSD  excitation energy:15.10747592


               Column   1     Column   2     Column   3
       1     1.566805D-16  -1.066443D-15   9.080333D-16
       2    -1.066443D-15   7.254684D-15  -6.176327D-15
       3     9.080333D-16  -6.176327D-15   5.258122D-15
    ==== End of matrix output ====

 Principal values of diagonalized oscillator strength matrix:

             a.u.               
 1       0.00000000
 2       0.00000000
 3       0.00000000

 Principal axis of diagonalized oscillator strength matrix:


               Column   1     Column   2     Column   3
       1       1.00000000     0.00000000     0.00000000
       2       0.00000000     1.00000000     0.00000000
       3       0.00000000     0.00000000     1.00000000
    ==== End of matrix output ====

  Total time for      9 linear response residues:       3.69 seconds.
  

 *******************************************************************************
 *******************************************************************************
 *                                                                             *
 *                                                                             *
 *                   SUMMARY OF COUPLED CLUSTER CALCULATION                    *
 *                                                                             *
 *                                                                             *
 *******************************************************************************
 *******************************************************************************

                                                                                
                                                                                
            Total SCF   energy:                  -361.2610856547                
            Total MP2   energy:                  -362.3666393313                
            Total CCSD  energy:                  -362.4074062533                
                                                                                
                                                                                
            Total SCF   energy:                  -361.2610856547                
            Total RSTAR energy:                  -362.4074062533                
            Total CCSD  energy:                  -362.4075521104                
                                                                                
                                                                                
            Total SCF   energy:                  -361.2610856547                
            Total RSTAR energy:                  -362.4075521104                
            Total CCSD  energy:                  -362.4075540750                
                                                                                
                                                                                
            Total SCF   energy:                  -361.2610856547                
            Total RSTAR energy:                  -362.4075540750                
            Total CCSD  energy:                  -362.4075542361                
                                                                                
                                                                                
            Total SCF   energy:                  -361.2610856547                
            Total RSTAR energy:                  -362.4075542361                
            Total CCSD  energy:                  -362.4075542463                
                                                                                
                                                                                
            Total SCF   energy:                  -361.2610856547                
            Total RSTAR energy:                  -362.4075542463                
            Total CCSD  energy:                  -362.4075542469                
                                                                                
                                                                                
            Total SCF   energy:                  -361.2610856547                
            Total RSTAR energy:                  -362.4075542469                
            Total CCSD  energy:                  -362.4075542469                
            CCSD Total  energy:                  -362.8884352432                
            CCSD E(QM/MM)     :                    -0.4757892884                
                                                                                
                                                                                
                                                                                
 +=============================================================================+
 |  sym. | Exci.  |        CCSD       Excitation energies            | ||T1||  |
 |(spin, |        +------------------------------------------------------------+
 | spat) |        |     Hartree    |       eV.      |     cm-1       |    %    |
 +=============================================================================+
 | ^1A   |    1   |    15.1074759  |     411.09533  |   3315707.677  |  88.15  |
 +=============================================================================+
                                                                                
                                                                                
     Total energies in Hartree:                                                 
             1 ^1A       -347.3051700385                                        
                                                                                
                                                                                
 +=============================================================================+
 |  sym. | Exci.  |        CCSD       Length   Gauge Oscillator Strength       |
 |(spin, |        +------------------------------------------------------------+
 | spat) |        | Dipole Strength(a.u.) | Oscillator strength  | Direction   |
 +=============================================================================+
 | ^1A   |    1   |        0.0000000      |      0.0000000       |    -        |
 +=============================================================================+

  1 a.u. =        27.21138 eV.  
  1 a.u. =    219474.62934 cm-1.
  

 *******************************************************************************
 *******************************************************************************
 *                                                                             *
 *                                                                             *
 *                      END OF COUPLED CLUSTER CALCULATION                     *
 *                                                                             *
 *                                                                             *
 *******************************************************************************
 *******************************************************************************


 CPU and wall time for CC :    8543.878   11525.306

 
     Date and time (Linux)  : Sun Dec  2 20:19:08 2018
     Host name              : n-62-23-21                              


                      .-------------------------------------.
                      | End of Coupled Cluster Section (CC) |
                      `-------------------------------------'

  Total CPU  time used in DALTON:   2 hours 24 minutes 44 seconds
  Total wall time used in DALTON:   3 hours 15 minutes 27 seconds

 
     Date and time (Linux)  : Sun Dec  2 20:19:09 2018
     Host name              : n-62-23-21                              
  

 +---------------------------------------------------------+ 
 | List of selected calculated molecular properties (a.u.) | 
 +---------------------------------------------------------+ 

  Properties are read from unit number                      4

 CCSD       properties :
 #  1 1 CCSD/MM  Ground state Energy =    -362.8884352432
 #  2 1 E_QM/MM  Ground state Energy =      -0.4757892884
 #  3 1 Sy: 1 Sp: 1 Exc:  1 E_tot:   -347.3051700385 w:     15.1074759163 E_grs:   -362.4126459548
 #  4 1 Exctot   Excited state Energy =    -347.3051700385
 #  5 1 |<O|XDIPLEN |i(15.107476)>| =     0.00000000
 #  7 1 |<O|YDIPLEN |i(15.107476)>| =     0.00000003
 #  9 1 |<O|ZDIPLEN |i(15.107476)>| =     0.00000002

 THE_END   
