

     ************************************************************************
     *************** Dalton - An Electronic Structure Program ***************
     ************************************************************************

    This is output from DALTON release Dalton2017.alpha (2016)
         ( Web site: http://daltonprogram.org )

   ----------------------------------------------------------------------------

    NOTE:
     
    Dalton is an experimental code for the evaluation of molecular
    properties using (MC)SCF, DFT, CI, and CC wave functions.
    The authors accept no responsibility for the performance of
    the code or for the correctness of the results.
     
    The code (in whole or part) is provided under a licence and
    is not to be reproduced for further distribution without
    the written permission of the authors or their representatives.
     
    See the home page "http://daltonprogram.org" for further information.
     
    If results obtained with this code are published,
    the appropriate citations would be both of:
     
       K. Aidas, C. Angeli, K. L. Bak, V. Bakken, R. Bast,
       L. Boman, O. Christiansen, R. Cimiraglia, S. Coriani,
       P. Dahle, E. K. Dalskov, U. Ekstroem,
       T. Enevoldsen, J. J. Eriksen, P. Ettenhuber, B. Fernandez,
       L. Ferrighi, H. Fliegl, L. Frediani, K. Hald, A. Halkier,
       C. Haettig, H. Heiberg, T. Helgaker, A. C. Hennum,
       H. Hettema, E. Hjertenaes, S. Hoest, I.-M. Hoeyvik,
       M. F. Iozzi, B. Jansik, H. J. Aa. Jensen, D. Jonsson,
       P. Joergensen, J. Kauczor, S. Kirpekar,
       T. Kjaergaard, W. Klopper, S. Knecht, R. Kobayashi, H. Koch,
       J. Kongsted, A. Krapp, K. Kristensen, A. Ligabue,
       O. B. Lutnaes, J. I. Melo, K. V. Mikkelsen, R. H. Myhre,
       C. Neiss, C. B. Nielsen, P. Norman, J. Olsen,
       J. M. H. Olsen, A. Osted, M. J. Packer, F. Pawlowski,
       T. B. Pedersen, P. F. Provasi, S. Reine, Z. Rinkevicius,
       T. A. Ruden, K. Ruud, V. Rybkin, P. Salek, C. C. M. Samson,
       A. Sanchez de Meras, T. Saue, S. P. A. Sauer,
       B. Schimmelpfennig, K. Sneskov, A. H. Steindal,
       K. O. Sylvester-Hvid, P. R. Taylor, A. M. Teale,
       E. I. Tellgren, D. P. Tew, A. J. Thorvaldsen, L. Thoegersen,
       O. Vahtras, M. A. Watson, D. J. D. Wilson, M. Ziolkowski
       and H. Agren,
       "The Dalton quantum chemistry program system",
       WIREs Comput. Mol. Sci. 2014, 4:269–284 (doi: 10.1002/wcms.1172)
     
    and
     
       Dalton, a Molecular Electronic Structure Program,
       Release Dalton2017.alpha (2016), see http://daltonprogram.org
   ----------------------------------------------------------------------------

    Authors in alphabetical order (major contribution(s) in parenthesis):

  Kestutis Aidas,           Vilnius University,           Lithuania   (QM/MM)
  Celestino Angeli,         University of Ferrara,        Italy       (NEVPT2)
  Keld L. Bak,              UNI-C,                        Denmark     (AOSOPPA, non-adiabatic coupling, magnetic properties)
  Vebjoern Bakken,          University of Oslo,           Norway      (DALTON; geometry optimizer, symmetry detection)
  Radovan Bast,             UiT The Arctic U. of Norway,  Norway      (DALTON installation and execution frameworks)
  Pablo Baudin,             University of Valencia,       Spain       (Cholesky excitation energies)
  Linus Boman,              NTNU,                         Norway      (Cholesky decomposition and subsystems)
  Ove Christiansen,         Aarhus University,            Denmark     (CC module)
  Renzo Cimiraglia,         University of Ferrara,        Italy       (NEVPT2)
  Sonia Coriani,            University of Trieste,        Italy       (CC module, MCD in RESPONS)
  Janusz Cukras,            University of Trieste,        Italy       (MChD in RESPONS)
  Paal Dahle,               University of Oslo,           Norway      (Parallelization)
  Erik K. Dalskov,          UNI-C,                        Denmark     (SOPPA)
  Thomas Enevoldsen,        Univ. of Southern Denmark,    Denmark     (SOPPA)
  Janus J. Eriksen,         Aarhus University,            Denmark     (Polarizable embedding model, TDA)
  Rasmus Faber,             University of Copenhagen,     Denmark     (Vib.avg. NMR with SOPPA, parallel AO-SOPPA)
  Berta Fernandez,          U. of Santiago de Compostela, Spain       (doublet spin, ESR in RESPONS)
  Lara Ferrighi,            Aarhus University,            Denmark     (PCM Cubic response)
  Heike Fliegl,             University of Oslo,           Norway      (CCSD(R12))
  Luca Frediani,            UiT The Arctic U. of Norway,  Norway      (PCM)
  Bin Gao,                  UiT The Arctic U. of Norway,  Norway      (Gen1Int library)
  Christof Haettig,         Ruhr-University Bochum,       Germany     (CC module)
  Kasper Hald,              Aarhus University,            Denmark     (CC module)
  Asger Halkier,            Aarhus University,            Denmark     (CC module)
  Frederik Beyer Hansen,    University of Copenhagen,     Denmark     (Parallel AO-SOPPA)
  Erik D. Hedegaard,        Univ. of Southern Denmark,    Denmark     (Polarizable embedding model, QM/MM)
  Hanne Heiberg,            University of Oslo,           Norway      (geometry analysis, selected one-electron integrals)
  Trygve Helgaker,          University of Oslo,           Norway      (DALTON; ABACUS, ERI, DFT modules, London, and much more)
  Alf Christian Hennum,     University of Oslo,           Norway      (Parity violation)
  Hinne Hettema,            University of Auckland,       New Zealand (quadratic response in RESPONS; SIRIUS supersymmetry)
  Eirik Hjertenaes,         NTNU,                         Norway      (Cholesky decomposition)
  Pi A. B. Haase,           University of Copenhagen,     Denmark     (Triplet AO-SOPPA)
  Maria Francesca Iozzi,    University of Oslo,           Norway      (RPA)
  Brano Jansik              Technical Univ. of Ostrava    Czech Rep.  (DFT cubic response)
  Hans Joergen Aa. Jensen,  Univ. of Southern Denmark,    Denmark     (DALTON; SIRIUS, RESPONS, ABACUS modules, London, and much more)
  Dan Jonsson,              UiT The Arctic U. of Norway,  Norway      (cubic response in RESPONS module)
  Poul Joergensen,          Aarhus University,            Denmark     (RESPONS, ABACUS, and CC modules)
  Maciej Kaminski,          University of Warsaw,         Poland      (CPPh in RESPONS)
  Joanna Kauczor,           Linkoeping University,        Sweden      (Complex polarization propagator (CPP) module)
  Sheela Kirpekar,          Univ. of Southern Denmark,    Denmark     (Mass-velocity & Darwin integrals)
  Wim Klopper,              KIT Karlsruhe,                Germany     (R12 code in CC, SIRIUS, and ABACUS modules)
  Stefan Knecht,            ETH Zurich,                   Switzerland (Parallel CI and MCSCF)
  Rika Kobayashi,           Australian National Univ.,    Australia   (DIIS in CC, London in MCSCF)
  Henrik Koch,              NTNU,                         Norway      (CC module, Cholesky decomposition)
  Jacob Kongsted,           Univ. of Southern Denmark,    Denmark     (Polarizable embedding model, QM/MM)
  Andrea Ligabue,           University of Modena,         Italy       (CTOCD, AOSOPPA)
  Nanna H. List             Univ. of Southern Denmark,    Denmark     (Polarizable embedding model)
  Ola B. Lutnaes,           University of Oslo,           Norway      (DFT Hessian)
  Juan I. Melo,             University of Buenos Aires,   Argentina   (LRESC, Relativistic Effects on NMR Shieldings)
  Kurt V. Mikkelsen,        University of Copenhagen,     Denmark     (MC-SCRF and QM/MM)
  Rolf H. Myhre,            NTNU,                         Norway      (Cholesky, subsystems and ECC2)
  Christian Neiss,          Univ. Erlangen-Nuernberg,     Germany     (CCSD(R12))
  Christian B. Nielsen,     University of Copenhagen,     Denmark     (QM/MM)
  Patrick Norman,           Linkoeping University,        Sweden      (Cubic response and complex frequency response in RESPONS)
  Jeppe Olsen,              Aarhus University,            Denmark     (SIRIUS CI/density modules)
  Jogvan Magnus H. Olsen,   Univ. of Southern Denmark,    Denmark     (Polarizable embedding model, QM/MM)
  Anders Osted,             Copenhagen University,        Denmark     (QM/MM)
  Martin J. Packer,         University of Sheffield,      UK          (SOPPA)
  Filip Pawlowski,          Kazimierz Wielki University,  Poland      (CC3)
  Morten N. Pedersen,       Univ. of Southern Denmark,    Denmark     (Polarizable embedding model)
  Thomas B. Pedersen,       University of Oslo,           Norway      (Cholesky decomposition)
  Patricio F. Provasi,      University of Northeastern,   Argentina   (Analysis of coupling constants in localized orbitals)
  Zilvinas Rinkevicius,     KTH Stockholm,                Sweden      (open-shell DFT, ESR)
  Elias Rudberg,            KTH Stockholm,                Sweden      (DFT grid and basis info)
  Torgeir A. Ruden,         University of Oslo,           Norway      (Numerical derivatives in ABACUS)
  Kenneth Ruud,             UiT The Arctic U. of Norway,  Norway      (DALTON; ABACUS magnetic properties and much more)
  Pawel Salek,              KTH Stockholm,                Sweden      (DALTON; DFT code)
  Claire C. M. Samson       University of Karlsruhe       Germany     (Boys localization, r12 integrals in ERI)
  Alfredo Sanchez de Meras, University of Valencia,       Spain       (CC module, Cholesky decomposition)
  Trond Saue,               Paul Sabatier University,     France      (direct Fock matrix construction)
  Stephan P. A. Sauer,      University of Copenhagen,     Denmark     (SOPPA(CCSD), SOPPA prop., AOSOPPA, vibrational g-factors)
  Bernd Schimmelpfennig,    Forschungszentrum Karlsruhe,  Germany     (AMFI module)
  Kristian Sneskov,         Aarhus University,            Denmark     (Polarizable embedding model, QM/MM)
  Arnfinn H. Steindal,      UiT The Arctic U. of Norway,  Norway      (parallel QM/MM, Polarizable embedding model)
  Casper Steinmann,         Univ. of Southern Denmark,    Denmark     (QFIT, Polarizable embedding model)
  K. O. Sylvester-Hvid,     University of Copenhagen,     Denmark     (MC-SCRF)
  Peter R. Taylor,          VLSCI/Univ. of Melbourne,     Australia   (Symmetry handling ABACUS, integral transformation)
  Andrew M. Teale,          University of Nottingham,     England     (DFT-AC, DFT-D)
  David P. Tew,             University of Bristol,        England     (CCSD(R12))
  Olav Vahtras,             KTH Stockholm,                Sweden      (triplet response, spin-orbit, ESR, TDDFT, open-shell DFT)
  David J. Wilson,          La Trobe University,          Australia   (DFT Hessian and DFT magnetizabilities)
  Hans Agren,               KTH Stockholm,                Sweden      (SIRIUS module, RESPONS, MC-SCRF solvation model)
 --------------------------------------------------------------------------------

     Date and time (Linux)  : Wed Nov 28 16:57:12 2018
     Host name              : n-62-24-5                               

 * Work memory size             :  1280000000 =  9.537 gigabytes.

 * Directories for basis set searches:
   1) /zhome/d7/7/119775/My_Codes/dalton-private/build2016/basis/diffs
   2) /zhome/37/3/129401/NH3NH4/CCSD/AIMD_SAMPLING/nh4_4h2o_nd
   3) /zhome/9a/4/124800/source/dalton/build-mlcc/basis


Compilation information
-----------------------

 Who compiled             | rfaber
 Host                     | hpclogin1
 System                   | Linux-2.6.32-696.1.1.el6.x86_64
 CMake generator          | Unix Makefiles
 Processor                | x86_64
 64-bit integers          | ON
 MPI                      | OFF
 Fortran compiler         | /opt/intel/2016update2/compilers_and_libraries_201
                          | 6.2.181/linux/bin/intel64/ifort
 Fortran compiler version | ifort (IFORT) 16.0.2 20160204
 C compiler               | /opt/intel/2016update2/compilers_and_libraries_201
                          | 6.2.181/linux/bin/intel64/icc
 C compiler version       | icc (ICC) 16.0.2 20160204
 C++ compiler             | /opt/intel/2016update2/compilers_and_libraries_201
                          | 6.2.181/linux/bin/intel64/icpc
 C++ compiler version     | icpc (ICC) 16.0.2 20160204
 Static linking           | OFF
 Last Git revision        | bb4d1599ca5680a9f3980451fc8bbefdba436d59
 Git branch               | mlcc
 Configuration time       | 2017-06-13 16:11:03.928841


   Content of the .dal input file
 ----------------------------------

**DALTON
.RUN WAVE FUNCTIONS
*QMMM
.QMMM
**INTEGRALS
.DIPLEN
**WAVE FUNCTIONS
.CC
*PRINT
!To check the origin of excit
.PRINTL
   0 11
*SCF INP
.THRESH
1.0D-7
!*ORBITAL INPUT
!.MOSTART
!NEWORB
*CC INP
!.RESTART
.CCSD
.THRLEQ
 1.0D-9
.THRENR
 1.0D-10
.FROIMP
4
0
.PRINT
 1
.MAX IT
 1200
.MAXRED
 1200
.MXLRV
1199
*CCSLV
.CCMM
.MXSLIT
200
.MXINIT
4 5
*CCEXCI
.NCCEXC
 1
.IONISATION
1
1
.CVSEPARA
1
1
*CCLRSD
.DIPOLE
**END OF DALTON INPUT


   Content of the .mol file
 ----------------------------

ATOMBASIS


Atomtypes=5 Charge=1 Nosymm Angstrom
   7.00000    1    Basis=6-311G**
N          0.000000        0.000000        0.000000
   1.00000    4    Basis=6-311G**
H         -0.093637        1.015944        0.111868
H          0.869446       -0.066704       -0.599961
H         -0.838925       -0.372354       -0.507389
H          0.241550       -0.410425        0.941720
   8.00000    4    Basis=6-311G**
O         -0.155211        3.004520       -1.251618
O         -2.501734       -1.214233       -0.947086
O          0.212759       -0.896749        2.527333
O          2.390803       -1.059605       -1.371300
   1.00000    8    Basis=6-311G**
H         -0.826130        2.712232       -1.976631
H          0.664585        2.936763       -1.789383
H         -2.583978       -2.188777       -0.940156
H         -3.045932       -0.793891       -0.210986
H          1.186383       -0.704270        2.727180
H          0.002015       -1.883067        2.728341
H          2.222884       -1.926932       -0.804190
H          3.233262       -0.561483       -1.038215
   0.00000    1    Basis=diffs
X          0.000000        0.000000        0.000000


       *******************************************************************
       *********** Output from DALTON general input processing ***********
       *******************************************************************

 --------------------------------------------------------------------------------
   Overall default print level:    0
   Print level for DALTON.STAT:    1

    HERMIT 1- and 2-electron integral sections will be executed
    "Old" integral transformation used (limited to max 255 basis functions)
    Wave function sections will be executed (SIRIUS module)
 --------------------------------------------------------------------------------


 Changes of defaults for *QMMM  :
 --------------------------------

 +------------------+
 |  WORD: | CHANGE: |
 +------------------+
 |   QMMM |       T |
 +------------------+
 


   ****************************************************************************
   *************** Output of molecule and basis set information ***************
   ****************************************************************************


    The two title cards from your ".mol" input:
    ------------------------------------------------------------------------
 1:                                                                         
 2:                                                                         
    ------------------------------------------------------------------------

  Coordinates are entered in Angstrom and converted to atomic units.
          - Conversion factor : 1 bohr = 0.52917721 A

  Atomic type no.    1
  --------------------
  Nuclear charge:   7.00000
  Number of symmetry independent centers:    1
  Number of basis sets to read;    2
  The basis set is "6-311G**" from the basis set library.
  Basis set file used for this atomic type with Z =   7 :
     "/zhome/9a/4/124800/source/dalton/build-mlcc/basis/6-311G**"

  Info about the basis set file: your basis has no documentation.
  Basis set: 6-311G**                                                                        

  Atomic type no.    2
  --------------------
  Nuclear charge:   1.00000
  Number of symmetry independent centers:    4
  Number of basis sets to read;    2
  The basis set is "6-311G**" from the basis set library.
  Basis set file used for this atomic type with Z =   1 :
     "/zhome/9a/4/124800/source/dalton/build-mlcc/basis/6-311G**"

  Info about the basis set file: your basis has no documentation.
  Basis set: 6-311G**                                                                        

  Atomic type no.    3
  --------------------
  Nuclear charge:   8.00000
  Number of symmetry independent centers:    4
  Number of basis sets to read;    2
  The basis set is "6-311G**" from the basis set library.
  Basis set file used for this atomic type with Z =   8 :
     "/zhome/9a/4/124800/source/dalton/build-mlcc/basis/6-311G**"

  Info about the basis set file: your basis has no documentation.
  Basis set: 6-311G**                                                                        

  Atomic type no.    4
  --------------------
  Nuclear charge:   1.00000
  Number of symmetry independent centers:    8
  Number of basis sets to read;    2
  The basis set is "6-311G**" from the basis set library.
  Basis set file used for this atomic type with Z =   1 :
     "/zhome/9a/4/124800/source/dalton/build-mlcc/basis/6-311G**"

  Info about the basis set file: your basis has no documentation.
  Basis set: 6-311G**                                                                        

  Atomic type no.    5
  --------------------
  Nuclear charge:   0.00000
  Number of symmetry independent centers:    1
  Number of basis sets to read;    2
  The basis set is "diffs" from the basis set library.
  Basis set file used for this atomic type with Z =   0 :
     "/zhome/9a/4/124800/source/dalton/build-mlcc/basis/diffs"

  Info about the basis set file: your basis has no documentation.
  Basis set: diffs                                                                           


                         SYMGRP: Point group information
                         -------------------------------

@    Point group: C1 


                                 Isotopic Masses
                                 ---------------

                           N          14.003074
                           H           1.007825
                           H           1.007825
                           H           1.007825
                           H           1.007825
                           O          15.994915
                           O          15.994915
                           O          15.994915
                           O          15.994915
                           H           1.007825
                           H           1.007825
                           H           1.007825
                           H           1.007825
                           H           1.007825
                           H           1.007825
                           H           1.007825
                           H           1.007825

                       Total mass:    90.076634 amu
                       Natural abundance:  98.500 %

 Center-of-mass coordinates (a.u.):    0.003897   -0.103149   -0.378586


  Atoms and basis sets
  --------------------

  Number of atom types :    5
  Total number of atoms:   18

  label    atoms   charge   prim   cont     basis
  ----------------------------------------------------------------------
  N           1    7.0000    31    18      [11s5p1d|4s3p1d]                                   
  H           4    1.0000     8     6      [5s1p|3s1p]                                        
  O           4    8.0000    31    18      [11s5p1d|4s3p1d]                                   
  H           8    1.0000     8     6      [5s1p|3s1p]                                        
  X           1    0.0000     1     1      [1s|1s]                                            
  ----------------------------------------------------------------------
  total:     18   51.0000   252   163
  ----------------------------------------------------------------------
  Spherical harmonic basis used.

  Threshold for neglecting AO integrals:  1.00D-12


  Cartesian Coordinates (a.u.)
  ----------------------------

  Total number of coordinates:   54
  N       :     1  x   0.0000000000    2  y   0.0000000000    3  z   0.0000000000
  H       :     4  x  -0.1769482852    5  y   1.9198559183    6  z   0.2113998822
  H       :     7  x   1.6430148205    8  y  -0.1260522914    9  z  -1.1337619757
  H       :    10  x  -1.5853384894   11  y  -0.7036470815   12  z  -0.9588262488
  H       :    13  x   0.4564633455   14  y  -0.7755908449   15  z   1.7795928864
  O       :    16  x  -0.2933062816   17  y   5.6777199371   18  z  -2.3652152331
  O       :    19  x  -4.7275920976   20  y  -2.2945678219   21  z  -1.7897331568
  O       :    22  x   0.4020562406   23  y  -1.6946100129   24  z   4.7759671967
  O       :    25  x   4.5179628888   26  y  -2.0023632507   27  z  -2.5913814352
  H       :    28  x  -1.5611594436   29  y   5.1253756674   30  z  -3.7352912402
  H       :    31  x   1.2558836368   32  y   5.5496777640   33  z  -3.3814438027
  H       :    34  x  -4.8830107330   35  y  -4.1361890787   36  z  -1.7766373548
  H       :    37  x  -5.7559772754   38  y  -1.5002365631   39  z  -0.3987057562
  H       :    40  x   2.2419389493   41  y  -1.3308774180   42  z   5.1536232936
  H       :    43  x   0.0038077981   44  y  -3.5584809050   45  z   5.1558172656
  H       :    46  x   4.2006419676   47  y  -3.6413737415   48  z  -1.5196988525
  H       :    49  x   6.1099796703   50  y  -1.0610490938   51  z  -1.9619420089
  X       :    52  x   0.0000000000   53  y   0.0000000000   54  z   0.0000000000

  Max    interatomic separation is    6.6392 Angstrom (   12.5464 Bohr)
  between atoms   15 and   11, "H     " and "H     ".

  Min HX interatomic separation is    0.9780 Angstrom (    1.8482 Bohr)

  Min YX interatomic separation is    2.6901 Angstrom (    5.0836 Bohr)


  Bond distances (Angstrom):
  --------------------------

                  atom 1     atom 2       distance
                  ------     ------       --------
  bond distance:  H          N            1.026365
  bond distance:  H          N            1.058461
  bond distance:  H          N            1.048755
  bond distance:  H          N            1.055287
  bond distance:  H          O            1.030150
  bond distance:  H          O            0.982776
  bond distance:  H          O            0.978033
  bond distance:  H          O            1.007314
  bond distance:  H          O            1.012389
  bond distance:  H          O            1.028416
  bond distance:  H          O            1.049794
  bond distance:  H          O            1.033832


  Bond angles (degrees):
  ----------------------

                  atom 1     atom 2     atom 3         angle
                  ------     ------     ------         -----
  bond angle:     H          N          H            101.484
  bond angle:     H          N          H            109.341
  bond angle:     H          N          H            107.974
  bond angle:     H          N          H            111.129
  bond angle:     H          N          H            107.055
  bond angle:     H          N          H            118.473
  bond angle:     H          O          H             97.967
  bond angle:     H          O          H            111.419
  bond angle:     H          O          H            109.928
  bond angle:     H          O          H            110.755




 Principal moments of inertia (u*A**2) and principal axes
 --------------------------------------------------------

   IA     368.895266         -0.010072    0.789443   -0.613741
   IB     423.947591          0.999748   -0.004361   -0.022017
   IC     511.766422          0.020057    0.613808    0.789200


 Rotational constants
 --------------------

               A                   B                   C

           1369.9796           1192.0790            987.5189 MHz
            0.045698            0.039763            0.032940 cm-1


@  Nuclear repulsion energy :  193.843608045847 Hartree

  Number of floating/multiple basis set orbitals :    1


                     .---------------------------------------.
                     | Starting in Integral Section (HERMIT) |
                     `---------------------------------------'



 ***************************************************************************************
 ****************** Output from **INTEGRALS input processing (HERMIT) ******************
 ***************************************************************************************



    *************************************************************************
    ****************** Output from HERMIT input processing ******************
    *************************************************************************


 Default print level:        1

 * Nuclear model: Point charge

 Calculation of one- and two-electron Hamiltonian integrals.

 The following one-electron property integrals are calculated as requested:
          - overlap integrals
          - dipole length integrals

 Center of mass  (bohr):      0.003896617383     -0.103148805611     -0.378585801030
 Operator center (bohr):      0.000000000000      0.000000000000      0.000000000000
 Gauge origin    (bohr):      0.000000000000      0.000000000000      0.000000000000
 Dipole origin   (bohr):      0.000000000000      0.000000000000      0.000000000000
 
  *********************************** 
  QMMM electrostatic potential: 
  Multipole order                                    0
  Isotropic polarization  
  *********************************** 
 
  ---------------- 
  QMMM information 
  ---------------- 
 
  MM coordinates in au 
  -------------------- 
     1    -10.117983      5.149181     -9.214429
     2    -11.152313      6.078986    -10.365426
     3     -8.500478      4.648683    -10.164328
     4      4.365243      4.962814     -3.853042
     5      4.891649      6.877683     -3.931575
     6      5.807438      4.165431     -4.786113
     7      6.830778      9.565601     -3.263223
     8      6.979730      9.579944     -1.279044
     9      8.575263      9.266523     -3.798896
    10     11.310608     -5.954862     -9.559089
    11     10.551352     -6.124453    -11.212631
    12     12.944284     -4.987966     -9.727932
    13      6.036116      5.048619      1.666383
    14      7.949885      5.405335      1.580374
    15      5.408054      4.930545     -0.127483
    16    -11.451015      8.262907     -4.507859
    17    -10.707625      6.946074     -3.424025
    18    -11.029360      7.681767     -6.267233
    19     -0.111634     -7.203010      6.402241
    20     -1.250857     -8.216180      5.335644
    21     -0.550354     -7.997376      8.049436
    22      8.462144     -2.228711     -7.475872
    23      6.642792     -2.382145     -7.961923
    24      9.435716     -3.557687     -8.436474
    25      9.817467     -9.786706      4.717697
    26     10.970779     -8.373142      4.027853
    27     10.677342    -11.295029      5.406108
    28      0.955504      7.148484     -9.892760
    29      1.325700      7.852337    -11.569117
    30      0.559726      5.351933    -10.068153
    31     -6.729908      0.323536      2.466206
    32     -8.515340      0.822210      2.468039
    33     -5.761068      1.789915      3.104631
    34      8.070860    -10.978982     -8.008123
    35      9.001635     -9.390809     -7.509768
    36      7.696085    -11.754225     -6.384379
    37      3.328554     -2.092845     -7.722519
    38      2.568682     -3.796301     -8.067545
    39      3.781584     -2.340214     -5.962921
    40    -10.488441      3.330285     -2.055438
    41     -9.640126      2.435989     -3.356273
    42     -9.523759      3.212937     -0.520729
    43     11.614476     -4.649293     -3.326063
    44     10.180724     -6.017032     -3.361844
    45     10.814833     -3.228852     -4.322954
    46     10.638143      6.843246      2.916106
    47     11.954972      6.741061      1.688019
    48     11.440867      7.624480      4.346209
    49      9.456647      8.977868     11.555568
    50      8.326284      7.945393     12.571755
    51      9.685835     10.385338     12.698759
    52     -1.128527      8.499181      1.577422
    53      0.660669      8.607291      2.210511
    54     -1.055034      7.515084     -0.057189
    55    -11.388971      1.581565      3.779681
    56    -11.858133      1.180461      5.608261
    57    -12.083652      3.400354      3.698402
    58      2.309561     -9.540515     -4.475512
    59      4.189311    -10.111594     -4.433490
    60      1.282731    -10.970011     -5.233069
    61     -7.445120     -4.000391      5.701130
    62     -9.293577     -3.887611      5.012958
    63     -6.552892     -2.529034      5.018806
    64     -1.324369      4.750252      8.315591
    65      0.030290      3.919487      9.244612
    66     -0.673213      6.409214      7.668764
    67     -8.497925     -8.331576     -5.138182
    68     -8.165796     -8.930214     -6.845705
    69     -9.661830     -6.847477     -5.205510
    70     -1.051903     10.802744     -6.371166
    71     -2.432646      9.972123     -5.437921
    72     -0.510160      9.558647     -7.701171
    73     11.310328     -5.323268      2.750056
    74      9.993754     -4.406121      3.580088
    75     11.406115     -4.971818      0.957912
    76     -3.062337     -5.739694    -11.454235
    77     -3.930041     -7.372037    -11.537288
    78     -1.581597     -6.253045    -10.313371
    79      6.194910    -11.225104      1.418912
    80      7.432508    -10.690137      2.726400
    81      4.695227    -10.173426      1.531481
    82     -7.689496      0.506348     -5.419648
    83     -7.991387     -0.595783     -6.896975
    84     -6.757538     -0.640976     -4.146921
    85      5.290753      1.145520      4.905236
    86      5.698841      2.282872      3.351074
    87      5.656729      2.530750      6.217403
    88      4.602670     -9.603352    -11.675968
    89      4.133840    -11.171071    -12.502899
    90      5.639827    -10.081793    -10.179985
    91      0.155776      1.860913    -10.330220
    92     -1.077541      0.889005    -11.465685
    93      1.387223      0.569552     -9.782328
    94      6.023625      5.300344      8.166034
    95      5.807433      4.851787     10.026715
    96      7.606042      6.119891      7.864605
    97     -3.709304      4.443631      3.750158
    98     -2.898224      4.283187      5.466131
    99     -2.704060      5.854698      3.035975
   100     -6.285284     -8.556111      3.419911
   101     -5.315382     -8.278123      1.860991
   102     -6.827080     -6.809549      4.136493
   103     -5.314683    -10.561866    -10.394148
   104     -5.970372    -11.522032    -11.854732
   105     -3.905567    -11.671701     -9.777135
   106      8.309933     -6.752594      9.285491
   107      8.723388     -7.880999      7.902098
   108      6.747930     -7.411680      9.889286
   109     -6.808441      9.773418      9.136172
   110     -6.332527      8.161109      9.930545
   111     -5.486321     10.044391      7.855338
   112     -4.517850     -7.347601     -1.875922
   113     -2.737204     -7.809308     -1.798549
   114     -5.597528     -8.782368     -2.750020
   115     11.001914      1.942217      9.192985
   116     12.520386      1.852910     10.208414
   117      9.655085      1.650298     10.306107
   118      7.164823     -3.463048      5.412837
   119      7.276383     -4.530010      7.046681
   120      6.435700     -1.852899      5.603454
   121      1.188483      9.704479      8.840409
   122     -0.455672     10.509740      8.328093
   123      2.205792      9.798370      7.230718
   124      8.765334      0.278447     -0.749511
   125      9.786750     -0.015288      0.837982
   126      9.892242      1.027231     -2.000884
   127     -5.567681      5.552473    -11.511314
   128     -4.111371      4.879507    -12.323533
   129     -5.072635      6.017908     -9.793549
   130     -7.633161     -0.427137      9.944701
   131     -5.687218     -0.158193      9.871978
   132     -7.791071     -1.995152      8.930736
   133      8.882540      2.869916     -6.395417
   134      8.660951      1.111620     -6.762120
   135     10.567868      3.333103     -7.104104
   136      3.511527      8.959335      4.257305
   137      4.790231     10.029302      3.434708
   138      4.269386      7.387865      3.734864
   139     -3.582000      4.020124     -6.352609
   140     -2.584733      2.960252     -7.461555
   141     -4.994002      2.921957     -5.824848
   142     -2.309353     -0.981480      9.918838
   143     -2.521577     -2.822627     10.587831
   144     -1.199073     -1.079867      8.527064
   145      1.658632     -6.915897     -8.937615
   146      2.014253     -7.633218     -7.277910
   147      2.992644     -7.812082    -10.118554
   148     -7.664304     -3.697567     -9.248429
   149     -5.911698     -4.348993     -8.991867
   150     -7.669297     -2.599689    -10.926485
   151      6.194192      4.955177    -10.081084
   152      4.517676      5.290795     -9.375069
   153      7.211497      4.046023     -8.805100
   154    -11.460486      9.599015      7.030467
   155     -9.666125      9.449676      7.782115
   156    -12.525520      8.937943      8.341981
   157      7.779364     -8.141815     -2.992742
   158      7.045181     -6.957650     -1.817503
   159      8.433963     -9.430612     -1.884386
   160      4.529454     -5.645663      1.062011
   161      5.345652     -4.841881      2.545321
   162      3.158354     -6.734710      1.594443
   163    -10.394490    -10.603153     -0.513017
   164     -9.939222    -10.800983     -2.306250
   165     -9.651941     -9.017393     -0.064530
   166     -5.642282     10.581225     -3.596457
   167     -7.121456     10.770619     -4.769661
   168     -6.379109      9.695195     -2.161977
   169     -3.304617     11.403892      5.774145
   170     -2.666976     10.583710      4.184891
   171     -4.306756     12.993736      5.164618
   172     -7.761003      8.629873      1.362409
   173     -8.723337     10.140886      1.086260
   174     -6.374360      8.957846      2.466520
   175      0.851082     -9.667489      0.093341
   176     -0.005350    -11.349708      0.158576
   177      1.449220     -9.406072     -1.594655
 
  MM charges 
  ---------- 
     1     -0.674440
     2      0.337220
     3      0.337220
     4     -0.674440
     5      0.337220
     6      0.337220
     7     -0.674440
     8      0.337220
     9      0.337220
    10     -0.674440
    11      0.337220
    12      0.337220
    13     -0.674440
    14      0.337220
    15      0.337220
    16     -0.674440
    17      0.337220
    18      0.337220
    19     -0.674440
    20      0.337220
    21      0.337220
    22     -0.674440
    23      0.337220
    24      0.337220
    25     -0.674440
    26      0.337220
    27      0.337220
    28     -0.674440
    29      0.337220
    30      0.337220
    31     -0.674440
    32      0.337220
    33      0.337220
    34     -0.674440
    35      0.337220
    36      0.337220
    37     -0.674440
    38      0.337220
    39      0.337220
    40     -0.674440
    41      0.337220
    42      0.337220
    43     -0.674440
    44      0.337220
    45      0.337220
    46     -0.674440
    47      0.337220
    48      0.337220
    49     -0.674440
    50      0.337220
    51      0.337220
    52     -0.674440
    53      0.337220
    54      0.337220
    55     -0.674440
    56      0.337220
    57      0.337220
    58     -0.674440
    59      0.337220
    60      0.337220
    61     -0.674440
    62      0.337220
    63      0.337220
    64     -0.674440
    65      0.337220
    66      0.337220
    67     -0.674440
    68      0.337220
    69      0.337220
    70     -0.674440
    71      0.337220
    72      0.337220
    73     -0.674440
    74      0.337220
    75      0.337220
    76     -0.674440
    77      0.337220
    78      0.337220
    79     -0.674440
    80      0.337220
    81      0.337220
    82     -0.674440
    83      0.337220
    84      0.337220
    85     -0.674440
    86      0.337220
    87      0.337220
    88     -0.674440
    89      0.337220
    90      0.337220
    91     -0.674440
    92      0.337220
    93      0.337220
    94     -0.674440
    95      0.337220
    96      0.337220
    97     -0.674440
    98      0.337220
    99      0.337220
   100     -0.674440
   101      0.337220
   102      0.337220
   103     -0.674440
   104      0.337220
   105      0.337220
   106     -0.674440
   107      0.337220
   108      0.337220
   109     -0.674440
   110      0.337220
   111      0.337220
   112     -0.674440
   113      0.337220
   114      0.337220
   115     -0.674440
   116      0.337220
   117      0.337220
   118     -0.674440
   119      0.337220
   120      0.337220
   121     -0.674440
   122      0.337220
   123      0.337220
   124     -0.674440
   125      0.337220
   126      0.337220
   127     -0.674440
   128      0.337220
   129      0.337220
   130     -0.674440
   131      0.337220
   132      0.337220
   133     -0.674440
   134      0.337220
   135      0.337220
   136     -0.674440
   137      0.337220
   138      0.337220
   139     -0.674440
   140      0.337220
   141      0.337220
   142     -0.674440
   143      0.337220
   144      0.337220
   145     -0.674440
   146      0.337220
   147      0.337220
   148     -0.674440
   149      0.337220
   150      0.337220
   151     -0.674440
   152      0.337220
   153      0.337220
   154     -0.674440
   155      0.337220
   156      0.337220
   157     -0.674440
   158      0.337220
   159      0.337220
   160     -0.674440
   161      0.337220
   162      0.337220
   163     -0.674440
   164      0.337220
   165      0.337220
   166     -0.674440
   167      0.337220
   168      0.337220
   169     -0.674440
   170      0.337220
   171      0.337220
   172     -0.674440
   173      0.337220
   174      0.337220
   175     -0.674440
   176      0.337220
   177      0.337220
 
  MM isotropic polarizabilities in au 
  ----------------------------------- 
     1      5.739350
     2      2.308390
     3      2.308390
     4      5.739350
     5      2.308390
     6      2.308390
     7      5.739350
     8      2.308390
     9      2.308390
    10      5.739350
    11      2.308390
    12      2.308390
    13      5.739350
    14      2.308390
    15      2.308390
    16      5.739350
    17      2.308390
    18      2.308390
    19      5.739350
    20      2.308390
    21      2.308390
    22      5.739350
    23      2.308390
    24      2.308390
    25      5.739350
    26      2.308390
    27      2.308390
    28      5.739350
    29      2.308390
    30      2.308390
    31      5.739350
    32      2.308390
    33      2.308390
    34      5.739350
    35      2.308390
    36      2.308390
    37      5.739350
    38      2.308390
    39      2.308390
    40      5.739350
    41      2.308390
    42      2.308390
    43      5.739350
    44      2.308390
    45      2.308390
    46      5.739350
    47      2.308390
    48      2.308390
    49      5.739350
    50      2.308390
    51      2.308390
    52      5.739350
    53      2.308390
    54      2.308390
    55      5.739350
    56      2.308390
    57      2.308390
    58      5.739350
    59      2.308390
    60      2.308390
    61      5.739350
    62      2.308390
    63      2.308390
    64      5.739350
    65      2.308390
    66      2.308390
    67      5.739350
    68      2.308390
    69      2.308390
    70      5.739350
    71      2.308390
    72      2.308390
    73      5.739350
    74      2.308390
    75      2.308390
    76      5.739350
    77      2.308390
    78      2.308390
    79      5.739350
    80      2.308390
    81      2.308390
    82      5.739350
    83      2.308390
    84      2.308390
    85      5.739350
    86      2.308390
    87      2.308390
    88      5.739350
    89      2.308390
    90      2.308390
    91      5.739350
    92      2.308390
    93      2.308390
    94      5.739350
    95      2.308390
    96      2.308390
    97      5.739350
    98      2.308390
    99      2.308390
   100      5.739350
   101      2.308390
   102      2.308390
   103      5.739350
   104      2.308390
   105      2.308390
   106      5.739350
   107      2.308390
   108      2.308390
   109      5.739350
   110      2.308390
   111      2.308390
   112      5.739350
   113      2.308390
   114      2.308390
   115      5.739350
   116      2.308390
   117      2.308390
   118      5.739350
   119      2.308390
   120      2.308390
   121      5.739350
   122      2.308390
   123      2.308390
   124      5.739350
   125      2.308390
   126      2.308390
   127      5.739350
   128      2.308390
   129      2.308390
   130      5.739350
   131      2.308390
   132      2.308390
   133      5.739350
   134      2.308390
   135      2.308390
   136      5.739350
   137      2.308390
   138      2.308390
   139      5.739350
   140      2.308390
   141      2.308390
   142      5.739350
   143      2.308390
   144      2.308390
   145      5.739350
   146      2.308390
   147      2.308390
   148      5.739350
   149      2.308390
   150      2.308390
   151      5.739350
   152      2.308390
   153      2.308390
   154      5.739350
   155      2.308390
   156      2.308390
   157      5.739350
   158      2.308390
   159      2.308390
   160      5.739350
   161      2.308390
   162      2.308390
   163      5.739350
   164      2.308390
   165      2.308390
   166      5.739350
   167      2.308390
   168      2.308390
   169      5.739350
   170      2.308390
   171      2.308390
   172      5.739350
   173      2.308390
   174      2.308390
   175      5.739350
   176      2.308390
   177      2.308390


     ************************************************************************
     ************************** Output from HERINT **************************
     ************************************************************************



                      Nuclear contribution to dipole moments
                      --------------------------------------

                 au               Debye          C m (/(10**-30)

      x      1.14226196         2.90334013         9.68450023
      y     -6.74915686       -17.15464452       -57.22173477
      z    -18.32877494       -46.58709603      -155.39782534



 Threshold for neglecting two-electron integrals:  1.00D-12
 HERMIT - Number of two-electron integrals written:    35690565 ( 40.0% )
 HERMIT - Megabytes written:                            408.678

  Time used in TWOINT     is       7.33 seconds
  Total CPU  time used in HERMIT:   7.51 seconds
  Total wall time used in HERMIT:  10.91 seconds


                        .----------------------------------.
                        | End of Integral Section (HERMIT) |
                        `----------------------------------'



                   .--------------------------------------------.
                   | Starting in Wave Function Section (SIRIUS) |
                   `--------------------------------------------'

NCCEXCI for singlet:    1
 CCSD_INPUT: core-val requested
 Requested number of virtual orbs per sym
                     1
 Indices of requested virtual orbs
                     1
 CCSD_INPUT: core-val requested
 Requested number of core orbs per sym
                     1
 Indices of requested core orbs
                     1

 *** Output from Huckel module :

     Using EWMO model:          T
     Using EHT  model:          F
     Number of Huckel orbitals each symmetry:   37

 EWMO - Energy Weighted Maximum Overlap - is a Huckel type method,
        which normally is better than Extended Huckel Theory.
 Reference: Linderberg and Ohrn, Propagators in Quantum Chemistry (Wiley, 1973)

 Huckel EWMO eigenvalues for symmetry :  1
          -20.684501     -20.684274     -20.684220     -20.683853     -15.675328
           -1.789093      -1.598493      -1.591548      -1.569801      -1.476474
           -0.823244      -0.799500      -0.792787      -0.773886      -0.765601
           -0.749462      -0.729818      -0.695747      -0.683969      -0.668855
           -0.655959      -0.613429      -0.583560      -0.566712      -0.551361
           -0.270028      -0.255431      -0.248074      -0.245084      -0.193469
           -0.187063      -0.184257      -0.181695      -0.177451      -0.154420
           -0.148379      -0.138976

 **********************************************************************
 *SIRIUS* a direct, restricted step, second order MCSCF program       *
 **********************************************************************

 
     Date and time (Linux)  : Wed Nov 28 16:57:24 2018
     Host name              : n-62-24-5                               

 Title lines from ".mol" input file:
                                                                             
                                                                             

 Print level on unit LUPRI =   2 is   0
 Print level on unit LUW4  =   2 is  11

@    (Integral direct) CC calculation.

@    This is a combination run starting with
@              a restricted, closed shell Hartree-Fock calculation


 Initial molecular orbitals are obtained according to
 ".MOSTART EWMO  " input option

@    QM part is embedded in an environment :

@         Model: QMMM

     Wave function specification
     ============================

     For the specification of the Coupled Cluster: see later.

@    Wave function type        --- CC ---
@    Number of closed shell electrons          50
@    Number of electrons in active shells       0
@    Total charge of the molecule               1

@    Spin multiplicity and 2 M_S                1         0
@    Total number of symmetries                 1 (point group: C1 )
@    Reference state symmetry                   1 (irrep name : A  )

     Orbital specifications
     ======================
@    Abelian symmetry species          All |    1
@                                          |  A  
                                       --- |  ---
@    Occupied SCF orbitals              25 |   25
@    Secondary orbitals                138 |  138
@    Total number of orbitals          163 |  163
@    Number of basis functions         163 |  163

     Optimization information
     ========================
@    Number of configurations                 1
@    Number of orbital rotations           3450
     ------------------------------------------
@    Total number of variables             3451

     Maximum number of Fock   iterations      0
     Maximum number of DIIS   iterations     60
     Maximum number of QC-SCF iterations     60
     Threshold for SCF convergence     1.00D-07


 Changes of defaults for CC:
 ---------------------------


 -Implicit frozen core calculation
 -Excitation energies calculated
 -One-photon absorption strengths will be calculated
 -Oscillator strengths calculated
  
* Read MO coefficients from SIRIUS.RST with label "NEWORB  " and header info: 28Nov18  REORTHO 


 ***********************************************
 ***** DIIS acceleration of SCF iterations *****
 ***********************************************

 C1-DIIS algorithm; max error vectors =    8
 -----------------------------------------------------------------------------

 *** DIIS iteration number    1
 RDSUPM called. NFMAT, ISYMDM(1:NFMAT)                     1
                     1

Calculating AOSUPINT
     (Precalculated two-electron integrals are transformed to P-supermatrix elements.
      Threshold for discarding integrals :  1.00D-12 )
  CPU  time used in FORMSUP    is   2.95 seconds
  WALL time used in FORMSUP    is  12.11 seconds

 ITDIIS, energy, error norm, change in energy, scr.thr., difden:
@ DIIS iter.   1    -360.241048668        3.90287D+00   -3.60D+02  -20    F

 (DIIS_RED) Control Parameters C2DIIS =         F NEVC =    1


 (DIIS_RED) B matrix:

               Column   1
       1      15.23236753
    ==== End of matrix output ====

 DIIS C vector; C2DIIS = F, LAMBDA = -1.52D+01
    1.000000
* Read MO coefficients from SIRIUS.RST with label "NEWORB  " and header info: 28Nov18  DIIS   1
      Virial theorem: -V/T =      2.003556
@      MULPOP N       0.13; H       0.16; H       0.16; H       0.16; H       0.18; O      -0.64; O      -0.59; O      -0.57; O      -0.61; H       0.33; 
@             H       0.34; H       0.32; H       0.33; H       0.33; H       0.31; H       0.33; H       0.33; 
   1  Level shift: doubly occupied orbital energies shifted by -2.00D-01

 DIIS Fock eigenvalues in symmetry 1
      -20.84431      -20.81406      -20.80622      -20.78007      -16.48373
       -1.74085       -1.65118       -1.62516       -1.61009       -1.59904
       -1.22273       -1.21064       -1.19956       -1.03387       -1.01150
       -0.99575       -0.95871       -0.89796       -0.87186       -0.87169
       -0.87145       -0.86907       -0.84469       -0.84013       -0.80951
       -0.02052       -0.00005        0.04493        0.06055        0.07611
        0.10854        0.12620        0.14047        0.14475        0.17422
        0.18743        0.19431        0.22367        0.25050        0.26783
        0.29659        0.40906        0.41887        0.45380        0.45647
        0.46669        0.48378        0.49368        0.49507        0.55949
        0.65610        0.67510        0.68782        0.83900        0.85933
        0.86481        0.90096        0.91195        0.95095        0.96383
        0.97851        0.98987        1.00514        1.01890        1.03258
        1.03946        1.06182        1.08801        1.24708        1.26212
        1.30471        1.31182        1.31418        1.35136        1.36431
        1.37755        1.42877        1.44134        1.45348        1.50560
        1.51609        1.53350        1.55277        1.56782        1.58699
        1.59874        1.66929        1.69507        1.71464        1.74676
        1.83532        1.84317        1.92913        1.99263        2.02905
        2.05118        2.06590        2.07427        2.10812        2.12545
        2.14354        2.16425        2.21492        2.24466        2.26173
        2.36164        2.45381        2.46898        2.50304        2.56762
        2.58722        2.60329        2.63120        2.63486        2.65723
        2.67234        2.68546        2.71714        2.73629        2.93064
        3.00712        3.03400        3.05601        3.26802        3.30556
        3.32237        3.35321        3.35887        3.40283        3.40851
        3.41798        3.44799        3.46971        3.51362        3.54797
        3.85287        3.86686        3.89170        3.92283        4.00862
        4.02050        4.06854        4.13590        4.61673        4.72629
        4.78340        5.26260        5.27056        5.30338        5.30977
        5.61900        5.65817        5.68277        5.69696        5.88662
        5.90131        5.92623        6.02136       36.32513       51.42662
       51.43419       51.46479       51.47093
 Time used in FCKEIG, thr_jaco:   4.70D-02  6.90D-02  1.66D-04
 CPU and wall times used in FCKEIG, THR_FCKEIG:   4.70D-02  6.90D-02  3.90D-02
 -----------------------------------------------------------------------------

 *** DIIS iteration number    2
 RDSUPM called. NFMAT, ISYMDM(1:NFMAT)                     1
                     1

 ITDIIS, energy, error norm, change in energy, scr.thr., difden:
@ DIIS iter.   2    -361.101602000        1.14167D+00   -8.61D-01  -20    F

 (DIIS_RED) Control Parameters C2DIIS =         F NEVC =    2


 (DIIS_RED) B matrix:

               Column   1     Column   2
       1      15.23236753
       2       0.61840847     1.30339904
    ==== End of matrix output ====

 DIIS C vector; C2DIIS = F, LAMBDA = -1.27D+00
    0.044774    0.955226
* Read MO coefficients from SIRIUS.RST with label "NEWORB  " and header info: 28Nov18  DIIS   2
      Virial theorem: -V/T =      2.003559
@      MULPOP N      -0.54; H       0.33; H       0.32; H       0.34; H       0.34; O      -0.61; O      -0.62; O      -0.55; O      -0.62; H       0.32; 
@             H       0.32; H       0.33; H       0.34; H       0.31; H       0.32; H       0.33; H       0.34; 
   2  Level shift: doubly occupied orbital energies shifted by -1.00D-01

 DIIS Fock eigenvalues in symmetry 1
      -20.81020      -20.79385      -20.75554      -20.74137      -15.64912
       -1.55021       -1.51774       -1.51729       -1.49347       -1.39035
       -0.92011       -0.89730       -0.88878       -0.88515       -0.87241
       -0.85536       -0.83582       -0.78557       -0.77532       -0.76998
       -0.76077       -0.73485       -0.71914       -0.70960       -0.68737
       -0.00005        0.04206        0.09158        0.10409        0.12192
        0.15483        0.16909        0.17944        0.20258        0.21400
        0.22675        0.28165        0.28290        0.33483        0.35435
        0.39306        0.44638        0.45369        0.48340        0.48801
        0.50426        0.52224        0.53221        0.58859        0.61122
        0.79657        0.80229        0.82978        0.87436        0.90124
        0.92126        0.94228        0.96996        0.98526        1.00762
        1.01015        1.02691        1.03397        1.04639        1.06088
        1.14420        1.17422        1.19303        1.28728        1.30801
        1.34833        1.36103        1.36798        1.40292        1.41568
        1.43326        1.49366        1.49908        1.51651        1.55734
        1.60231        1.62313        1.63292        1.63628        1.67443
        1.68961        1.73815        1.75196        1.79442        1.80337
        1.89256        1.95361        2.03372        2.07386        2.08712
        2.10612        2.11709        2.16902        2.18737        2.19326
        2.19640        2.26887        2.29256        2.31811        2.37706
        2.46704        2.55434        2.57905        2.60525        2.65264
        2.67197        2.68213        2.69879        2.73170        2.73243
        2.76317        2.79340        2.90977        2.93530        3.12510
        3.19255        3.27527        3.29939        3.33321        3.33915
        3.36236        3.36511        3.38100        3.42656        3.44699
        3.45864        3.46303        3.53779        3.54584        3.57034
        3.86992        3.88492        3.90006        3.94834        4.01623
        4.03664        4.09403        4.15214        5.01992        5.11209
        5.15677        5.27213        5.27540        5.29645        5.29994
        5.60176        5.65480        5.68103        5.70233        5.87801
        5.90686        5.93473        6.04102       37.04296       51.34586
       51.36669       51.41145       51.42627
 Time used in FCKEIG, thr_jaco:   3.20D-02  4.40D-02  4.86D-05
 CPU and wall times used in FCKEIG, THR_FCKEIG:   3.20D-02  4.40D-02  1.14D-02
 -----------------------------------------------------------------------------

 *** DIIS iteration number    3
 RDSUPM called. NFMAT, ISYMDM(1:NFMAT)                     1
                     1

 ITDIIS, energy, error norm, change in energy, scr.thr., difden:
@ DIIS iter.   3    -361.177000452        3.78774D-01   -7.54D-02  -20    F

 (DIIS_RED) Control Parameters C2DIIS =         F NEVC =    3


 (DIIS_RED) B matrix:

               Column   1     Column   2     Column   3
       1      15.23236753
       2       0.61840847     1.30339904
       3       0.82330521    -0.01359128     0.14346965
    ==== End of matrix output ====

 DIIS C vector; C2DIIS = F, LAMBDA = -9.36D-02
   -0.049152    0.104955    0.944196
* Read MO coefficients from SIRIUS.RST with label "NEWORB  " and header info: 28Nov18  DIIS   3
      Virial theorem: -V/T =      2.004070
@      MULPOP N      -0.35; H       0.27; H       0.27; H       0.31; H       0.32; O      -0.68; O      -0.68; O      -0.62; O      -0.70; H       0.35; 
@             H       0.35; H       0.36; H       0.37; H       0.33; H       0.34; H       0.36; H       0.38; 
   3  Level shift: doubly occupied orbital energies shifted by -5.00D-02

 DIIS Fock eigenvalues in symmetry 1
      -20.70566      -20.68853      -20.67209      -20.65554      -15.80374
       -1.47736       -1.45208       -1.44468       -1.42757       -1.39082
       -0.87985       -0.85776       -0.84178       -0.83907       -0.82138
       -0.81053       -0.76815       -0.71377       -0.70253       -0.70061
       -0.69276       -0.66181       -0.64343       -0.63741       -0.61287
       -0.00005        0.04753        0.09818        0.10941        0.12697
        0.16053        0.17383        0.18221        0.20558        0.21658
        0.23129        0.28140        0.28435        0.33633        0.35422
        0.39158        0.45807        0.46515        0.49437        0.49814
        0.51505        0.53111        0.54248        0.59131        0.61529
        0.78800        0.79672        0.81970        0.89206        0.90958
        0.92859        0.94898        0.98157        1.00066        1.02180
        1.02475        1.04059        1.04795        1.05903        1.07472
        1.14452        1.17273        1.18550        1.29994        1.31892
        1.36014        1.37337        1.38020        1.41617        1.42943
        1.44568        1.50392        1.51232        1.52762        1.56964
        1.61125        1.63128        1.63932        1.64448        1.68002
        1.69373        1.74865        1.76251        1.80044        1.81394
        1.90427        1.95541        2.03655        2.08609        2.10218
        2.12098        2.13130        2.17823        2.19401        2.20360
        2.20863        2.28280        2.29082        2.33484        2.37459
        2.47398        2.56333        2.58109        2.61319        2.66160
        2.68255        2.69218        2.70958        2.74027        2.74304
        2.76881        2.80518        2.87633        2.90379        3.11727
        3.17685        3.27129        3.28735        3.31195        3.35826
        3.38369        3.39419        3.40251        3.44950        3.46849
        3.48366        3.49184        3.54788        3.56622        3.59438
        3.89965        3.90820        3.92984        3.97123        4.04882
        4.06919        4.11892        4.17682        4.93889        5.03986
        5.08850        5.29890        5.30360        5.32784        5.33025
        5.63920        5.69141        5.70885        5.72835        5.91731
        5.94614        5.96278        6.06871       36.84447       51.40103
       51.42113       51.44750       51.46002
 Time used in FCKEIG, thr_jaco:   2.70D-02  3.71D-01  1.61D-05
 CPU and wall times used in FCKEIG, THR_FCKEIG:   2.70D-02  3.71D-01  3.79D-03
 -----------------------------------------------------------------------------

 *** DIIS iteration number    4
 RDSUPM called. NFMAT, ISYMDM(1:NFMAT)                     1
                     1

 ITDIIS, energy, error norm, change in energy, scr.thr., difden:
@ DIIS iter.   4    -361.187365232        9.24353D-02   -1.04D-02  -20    F

 (DIIS_RED) Control Parameters C2DIIS =         F NEVC =    4


 (DIIS_RED) B matrix:

               Column   1     Column   2     Column   3     Column   4
       1      15.23236753
       2       0.61840847     1.30339904
       3       0.82330521    -0.01359128     0.14346965
       4       0.05043349     0.07545400     0.00510003     0.00854428
    ==== End of matrix output ====

 DIIS C vector; C2DIIS = F, LAMBDA = -4.67D-03
   -0.000406   -0.058085   -0.008551    1.067042
* Read MO coefficients from SIRIUS.RST with label "NEWORB  " and header info: 28Nov18  DIIS   4
      Virial theorem: -V/T =      2.004169
@      MULPOP N      -0.42; H       0.29; H       0.29; H       0.32; H       0.33; O      -0.69; O      -0.70; O      -0.62; O      -0.71; H       0.36; 
@             H       0.36; H       0.37; H       0.38; H       0.34; H       0.35; H       0.37; H       0.39; 
   4  Level shift: doubly occupied orbital energies shifted by -1.25D-02

 DIIS Fock eigenvalues in symmetry 1
      -20.68809      -20.66949      -20.64574      -20.62757      -15.73819
       -1.44627       -1.41846       -1.41345       -1.39405       -1.34334
       -0.83482       -0.81168       -0.80641       -0.79489       -0.78674
       -0.77713       -0.73387       -0.67958       -0.66717       -0.66693
       -0.65642       -0.62628       -0.60766       -0.59964       -0.57502
       -0.00005        0.04725        0.09700        0.10895        0.12644
        0.15962        0.17362        0.18317        0.20673        0.21790
        0.23175        0.28428        0.28650        0.34041        0.35835
        0.39663        0.45685        0.46357        0.49311        0.49752
        0.51352        0.53099        0.54102        0.59352        0.61593
        0.79339        0.80113        0.82533        0.89149        0.91044
        0.92969        0.95041        0.98155        0.99871        1.02189
        1.02307        1.04008        1.04641        1.05800        1.07312
        1.14783        1.17682        1.18792        1.29930        1.31903
        1.36005        1.37216        1.37912        1.41411        1.42797
        1.44449        1.50384        1.50976        1.52718        1.56828
        1.61210        1.63303        1.64010        1.64574        1.68194
        1.69551        1.74781        1.76238        1.80287        1.81294
        1.90159        1.95953        2.03975        2.08631        2.09988
        2.11862        2.12839        2.17956        2.19582        2.20323
        2.20672        2.28129        2.29463        2.33084        2.37886
        2.47618        2.56353        2.58439        2.61647        2.66275
        2.68310        2.69201        2.70857        2.74165        2.74229
        2.77065        2.80234        2.88613        2.91312        3.12375
        3.18320        3.27960        3.29539        3.31067        3.35582
        3.38033        3.38889        3.40017        3.44693        3.46615
        3.48025        3.48689        3.54690        3.56384        3.59183
        3.89422        3.90529        3.92443        3.96830        4.04341
        4.06344        4.11628        4.17437        4.95417        5.05413
        5.10220        5.29343        5.29629        5.32084        5.32347
        5.63041        5.68236        5.70409        5.72357        5.90758
        5.93589        5.95743        6.06293       36.87222       51.38295
       51.40171       51.43817       51.44923
 Time used in FCKEIG, thr_jaco:   2.60D-02  2.80D-02  3.93D-06
 CPU and wall times used in FCKEIG, THR_FCKEIG:   2.60D-02  2.80D-02  9.24D-04
 -----------------------------------------------------------------------------

 *** DIIS iteration number    5
 RDSUPM called. NFMAT, ISYMDM(1:NFMAT)                     1
                     1

 ITDIIS, energy, error norm, change in energy, scr.thr., difden:
@ DIIS iter.   5    -361.188355496        3.14122D-02   -9.90D-04  -20    F

 (DIIS_RED) Control Parameters C2DIIS =         F NEVC =    5


 (DIIS_RED) B matrix:

               Column   1     Column   2     Column   3     Column   4     Column   5
       1      15.23236753
       2       0.61840847     1.30339904
       3       0.82330521    -0.01359128     0.14346965
       4       0.05043349     0.07545400     0.00510003     0.00854428
       5       0.02319337     0.00783066     0.00588413     0.00069045     0.00098673
    ==== End of matrix output ====

 DIIS C vector; C2DIIS = F, LAMBDA = -6.37D-04
    0.001308   -0.014988   -0.047158    0.154013    0.906824
* Read MO coefficients from SIRIUS.RST with label "NEWORB  " and header info: 28Nov18  DIIS   5
      Virial theorem: -V/T =      2.003759
@      MULPOP N      -0.41; H       0.29; H       0.29; H       0.32; H       0.33; O      -0.71; O      -0.71; O      -0.64; O      -0.72; H       0.37; 
@             H       0.37; H       0.38; H       0.39; H       0.34; H       0.35; H       0.37; H       0.40; 

 DIIS Fock eigenvalues in symmetry 1
      -20.66558      -20.64798      -20.62753      -20.61088      -15.72086
       -1.43029       -1.40398       -1.39776       -1.37998       -1.32890
       -0.82044       -0.79736       -0.79149       -0.78040       -0.77298
       -0.76250       -0.72033       -0.66413       -0.65360       -0.65172
       -0.64220       -0.60982       -0.59141       -0.58422       -0.56009
       -0.00005        0.04776        0.09745        0.10930        0.12676
        0.15995        0.17406        0.18375        0.20728        0.21846
        0.23222        0.28527        0.28729        0.34150        0.35938
        0.39787        0.45770        0.46428        0.49381        0.49797
        0.51421        0.53163        0.54140        0.59433        0.61660
        0.79486        0.80272        0.82678        0.89389        0.91225
        0.93148        0.95179        0.98333        1.00045        1.02313
        1.02483        1.04195        1.04801        1.05893        1.07436
        1.14948        1.17821        1.18936        1.30051        1.32042
        1.36180        1.37287        1.37996        1.41471        1.42873
        1.44506        1.50484        1.50996        1.52778        1.56941
        1.61272        1.63372        1.64095        1.64648        1.68287
        1.69642        1.74819        1.76292        1.80383        1.81308
        1.90141        1.96082        2.04100        2.08764        2.10105
        2.11971        2.12871        2.18054        2.19703        2.20432
        2.20755        2.28194        2.29585        2.33130        2.37998
        2.47704        2.56389        2.58530        2.61731        2.66343
        2.68352        2.69260        2.70881        2.74216        2.74238
        2.77157        2.80206        2.88795        2.91489        3.12546
        3.18552        3.28192        3.29803        3.31360        3.35824
        3.38367        3.39227        3.40188        3.44860        3.46839
        3.48355        3.49017        3.55019        3.56592        3.59338
        3.89762        3.90715        3.92765        3.97027        4.04697
        4.06732        4.11849        4.17610        4.95698        5.05701
        5.10516        5.29733        5.30116        5.32574        5.32701
        5.63548        5.68771        5.70673        5.72669        5.91240
        5.94121        5.95960        6.06583       36.87695       51.39186
       51.41155       51.44237       51.45482
 Time used in FCKEIG, thr_jaco:   2.30D-02  2.80D-02  1.34D-06
 CPU and wall times used in FCKEIG, THR_FCKEIG:   2.30D-02  2.80D-02  3.14D-04
 -----------------------------------------------------------------------------

 *** DIIS iteration number    6
 RDSUPM called. NFMAT, ISYMDM(1:NFMAT)                     1
                     1

 ITDIIS, energy, error norm, change in energy, scr.thr., difden:
@ DIIS iter.   6    -361.188444837        1.08771D-02   -8.93D-05  -20    F

 (DIIS_RED) Control Parameters C2DIIS =         F NEVC =    6


 (DIIS_RED) B matrix:

               Column   1     Column   2     Column   3     Column   4     Column   5     Column   6
       1      15.23236753
       2       0.61840847     1.30339904
       3       0.82330521    -0.01359128     0.14346965
       4       0.05043349     0.07545400     0.00510003     0.00854428
       5       0.02319337     0.00783066     0.00588413     0.00069045     0.00098673
       6      -0.00442863     0.00001254     0.00080367     0.00058572     0.00001531     0.00011831
    ==== End of matrix output ====

 DIIS C vector; C2DIIS = F, LAMBDA = -3.60D-05
    0.000797    0.006740   -0.008569   -0.133826    0.092840    1.042019
* Read MO coefficients from SIRIUS.RST with label "NEWORB  " and header info: 28Nov18  DIIS   6
      Virial theorem: -V/T =      2.004025
@      MULPOP N      -0.41; H       0.29; H       0.28; H       0.32; H       0.33; O      -0.71; O      -0.71; O      -0.63; O      -0.72; H       0.37; 
@             H       0.37; H       0.38; H       0.39; H       0.34; H       0.35; H       0.37; H       0.40; 

 DIIS Fock eigenvalues in symmetry 1
      -20.66824      -20.65034      -20.62896      -20.61177      -15.72291
       -1.43105       -1.40439       -1.39838       -1.38013       -1.32941
       -0.82104       -0.79787       -0.79218       -0.78083       -0.77358
       -0.76316       -0.72064       -0.66511       -0.65411       -0.65254
       -0.64281       -0.61035       -0.59171       -0.58433       -0.55991
       -0.00005        0.04761        0.09726        0.10914        0.12664
        0.15980        0.17391        0.18367        0.20719        0.21837
        0.23210        0.28513        0.28718        0.34134        0.35926
        0.39767        0.45741        0.46398        0.49356        0.49783
        0.51394        0.53141        0.54113        0.59416        0.61645
        0.79456        0.80241        0.82647        0.89350        0.91196
        0.93118        0.95160        0.98296        1.00000        1.02282
        1.02453        1.04162        1.04767        1.05871        1.07407
        1.14925        1.17801        1.18899        1.30034        1.32016
        1.36142        1.37263        1.37965        1.41433        1.42839
        1.44472        1.50450        1.50966        1.52745        1.56903
        1.61249        1.63354        1.64067        1.64627        1.68262
        1.69611        1.74790        1.76268        1.80368        1.81275
        1.90110        1.96070        2.04077        2.08733        2.10055
        2.11924        2.12834        2.18015        2.19676        2.20395
        2.20713        2.28150        2.29559        2.33096        2.37968
        2.47681        2.56362        2.58506        2.61724        2.66319
        2.68329        2.69229        2.70844        2.74189        2.74205
        2.77133        2.80169        2.88743        2.91439        3.12516
        3.18494        3.28129        3.29732        3.31288        3.35765
        3.38280        3.39145        3.40156        3.44828        3.46777
        3.48270        3.48941        3.54935        3.56537        3.59306
        3.89671        3.90678        3.92682        3.96966        4.04613
        4.06631        4.11790        4.17578        4.95605        5.05604
        5.10411        5.29649        5.30000        5.32478        5.32618
        5.63424        5.68632        5.70614        5.72590        5.91108
        5.93973        5.95906        6.06496       36.87494       51.38953
       51.40893       51.44147       51.45343
 Time used in FCKEIG, thr_jaco:   2.40D-02  4.10D-02  4.63D-07
 CPU and wall times used in FCKEIG, THR_FCKEIG:   2.40D-02  4.10D-02  1.09D-04
 -----------------------------------------------------------------------------

 *** DIIS iteration number    7
 RDSUPM called. NFMAT, ISYMDM(1:NFMAT)                     1
                     1

 ITDIIS, energy, error norm, change in energy, scr.thr., difden:
@ DIIS iter.   7    -361.188458416        2.25918D-03   -1.36D-05  -20    F

 (DIIS_RED) Control Parameters C2DIIS =         F NEVC =    7


 (DIIS_RED) B matrix:

               Column   1     Column   2     Column   3     Column   4     Column   5     Column   6
       1      15.23236753
       2       0.61840847     1.30339904
       3       0.82330521    -0.01359128     0.14346965
       4       0.05043349     0.07545400     0.00510003     0.00854428
       5       0.02319337     0.00783066     0.00588413     0.00069045     0.00098673
       6      -0.00442863     0.00001254     0.00080367     0.00058572     0.00001531     0.00011831
       7       0.00015545     0.00019797    -0.00000322     0.00000451     0.00004909     0.00000199

               Column   7
       7       0.00000510
    ==== End of matrix output ====

 DIIS C vector; C2DIIS = F, LAMBDA = -1.31D-06
   -0.000239   -0.000770    0.005150    0.022538   -0.091651   -0.153017    1.217989
* Read MO coefficients from SIRIUS.RST with label "NEWORB  " and header info: 28Nov18  DIIS   7
      Virial theorem: -V/T =      2.003970
@      MULPOP N      -0.41; H       0.29; H       0.28; H       0.32; H       0.33; O      -0.71; O      -0.71; O      -0.64; O      -0.72; H       0.37; 
@             H       0.37; H       0.38; H       0.39; H       0.34; H       0.35; H       0.37; H       0.40; 

 DIIS Fock eigenvalues in symmetry 1
      -20.66784      -20.64994      -20.62889      -20.61175      -15.72249
       -1.43087       -1.40432       -1.39820       -1.38006       -1.32920
       -0.82087       -0.79771       -0.79205       -0.78068       -0.77354
       -0.76305       -0.72062       -0.66502       -0.65418       -0.65248
       -0.64281       -0.61014       -0.59149       -0.58418       -0.55978
       -0.00005        0.04766        0.09729        0.10918        0.12668
        0.15983        0.17395        0.18372        0.20724        0.21843
        0.23214        0.28522        0.28725        0.34146        0.35937
        0.39780        0.45747        0.46402        0.49361        0.49787
        0.51399        0.53146        0.54115        0.59425        0.61652
        0.79468        0.80253        0.82661        0.89362        0.91207
        0.93129        0.95168        0.98307        1.00011        1.02289
        1.02461        1.04173        1.04775        1.05876        1.07411
        1.14938        1.17813        1.18913        1.30042        1.32025
        1.36154        1.37266        1.37970        1.41436        1.42842
        1.44474        1.50457        1.50966        1.52749        1.56910
        1.61254        1.63360        1.64074        1.64634        1.68270
        1.69620        1.74792        1.76272        1.80377        1.81276
        1.90109        1.96081        2.04089        2.08741        2.10061
        2.11930        2.12835        2.18021        2.19686        2.20402
        2.20717        2.28152        2.29572        2.33096        2.37979
        2.47688        2.56366        2.58515        2.61731        2.66325
        2.68332        2.69232        2.70846        2.74194        2.74207
        2.77140        2.80167        2.88763        2.91458        3.12532
        3.18513        3.28150        3.29753        3.31307        3.35774
        3.38297        3.39162        3.40161        3.44833        3.46785
        3.48288        3.48958        3.54954        3.56544        3.59311
        3.89687        3.90683        3.92698        3.96972        4.04632
        4.06651        4.11797        4.17584        4.95632        5.05632
        5.10440        5.29660        5.30021        5.32497        5.32631
        5.63448        5.68655        5.70619        5.72597        5.91132
        5.93996        5.95909        6.06502       36.87535       51.38992
       51.40932       51.44149       51.45349
 Time used in FCKEIG, thr_jaco:   2.30D-02  3.80D-02  9.62D-08
 CPU and wall times used in FCKEIG, THR_FCKEIG:   2.30D-02  3.80D-02  2.26D-05
 -----------------------------------------------------------------------------

 *** DIIS iteration number    8
 RDSUPM called. NFMAT, ISYMDM(1:NFMAT)                     1
                     1

 ITDIIS, energy, error norm, change in energy, scr.thr., difden:
@ DIIS iter.   8    -361.188459004        4.04890D-04   -5.88D-07  -20    F

 (DIIS_RED) Control Parameters C2DIIS =         F NEVC =    8


 (DIIS_RED) B matrix:

               Column   1     Column   2     Column   3     Column   4     Column   5     Column   6
       1      15.23236753
       2       0.61840847     1.30339904
       3       0.82330521    -0.01359128     0.14346965
       4       0.05043349     0.07545400     0.00510003     0.00854428
       5       0.02319337     0.00783066     0.00588413     0.00069045     0.00098673
       6      -0.00442863     0.00001254     0.00080367     0.00058572     0.00001531     0.00011831
       7       0.00015545     0.00019797    -0.00000322     0.00000451     0.00004909     0.00000199
       8       0.00013039    -0.00003489     0.00000811     0.00000195     0.00000052     0.00000161

               Column   7     Column   8
       7       0.00000510
       8       0.00000039     0.00000016
    ==== End of matrix output ====

 DIIS C vector; C2DIIS = F, LAMBDA = -1.12D-07
   -0.000013   -0.000066   -0.000258    0.001278    0.007772   -0.018450   -0.130472    1.140210
* Read MO coefficients from SIRIUS.RST with label "NEWORB  " and header info: 28Nov18  DIIS   8
      Virial theorem: -V/T =      2.003985
@      MULPOP N      -0.41; H       0.29; H       0.28; H       0.32; H       0.33; O      -0.71; O      -0.71; O      -0.64; O      -0.72; H       0.37; 
@             H       0.37; H       0.38; H       0.39; H       0.34; H       0.35; H       0.37; H       0.40; 

 DIIS Fock eigenvalues in symmetry 1
      -20.66788      -20.65002      -20.62879      -20.61167      -15.72250
       -1.43088       -1.40428       -1.39822       -1.38003       -1.32920
       -0.82087       -0.79771       -0.79204       -0.78068       -0.77351
       -0.76306       -0.72059       -0.66505       -0.65417       -0.65252
       -0.64280       -0.61014       -0.59149       -0.58415       -0.55975
       -0.00005        0.04766        0.09729        0.10918        0.12668
        0.15983        0.17395        0.18372        0.20724        0.21843
        0.23215        0.28521        0.28725        0.34145        0.35937
        0.39779        0.45747        0.46402        0.49361        0.49788
        0.51398        0.53147        0.54115        0.59425        0.61652
        0.79468        0.80253        0.82661        0.89361        0.91206
        0.93129        0.95168        0.98307        1.00011        1.02290
        1.02461        1.04173        1.04775        1.05878        1.07412
        1.14938        1.17814        1.18913        1.30043        1.32025
        1.36153        1.37267        1.37970        1.41435        1.42842
        1.44474        1.50456        1.50967        1.52749        1.56910
        1.61255        1.63360        1.64073        1.64634        1.68270
        1.69620        1.74792        1.76272        1.80377        1.81276
        1.90109        1.96081        2.04089        2.08741        2.10060
        2.11929        2.12835        2.18021        2.19686        2.20402
        2.20717        2.28153        2.29571        2.33097        2.37979
        2.47688        2.56366        2.58514        2.61731        2.66325
        2.68332        2.69232        2.70845        2.74193        2.74207
        2.77140        2.80167        2.88762        2.91458        3.12531
        3.18513        3.28149        3.29752        3.31305        3.35776
        3.38297        3.39160        3.40164        3.44836        3.46788
        3.48287        3.48956        3.54953        3.56547        3.59314
        3.89686        3.90685        3.92695        3.96975        4.04630
        4.06649        4.11801        4.17587        4.95631        5.05631
[...]
 | 1 1 1 1 |  26   1  10   1 |     1268        1 |       803279 |   -0.147001  |
 | 1 1 1 1 |  26   1  12   1 |     1544        1 |      1191197 |   -0.066516  |
 | 1 1 1 1 |  12   1  18   1 |     2358        1 |      2778904 |   -0.065525  |
 +=============================================================================+


          Norm of Printed Amplitude Vector :             0.8302

          Printed all single excitations greater than 0.381235

          Printed all double excitations greater than 0.064702



+======================================================================+
| contributions of excitation levels to right eigenvectors as computed |
| from the (RE|RE) self overlap                                        |
+----------------------------------------------------------------------+
| sym | multi | state |    E / eV  | % singles | % doubles | % triples |
+======================================================================+
|    1|   1   |   1   |  411.69616 |  88.1451  |  11.8549  |   0.0000  |
+======================================================================+





+======================================================================+
| contributions of excitation levels to excited states as computed     |
| from the (LE|RE) overlap                                             |
+----------------------------------------------------------------------+
| sym | multi | state |    E / eV  | % singles | % doubles | % triples |
+======================================================================+
|    1|   1   |   1   |  411.69616 |  79.0627  |  20.9373  |   0.0000  |
+======================================================================+



 --------------------------
 Symmetry class Nr.:     1
 Multiplicity      :     3
 --------------------------

 Length of Excitation vectors in this class is:   8404200
 No Excitation Energies calculated in this symmetry class
     

   *******************************************************************
   *                                                                 *
   *--------   OUTPUT FROM PROPERTY AND SYMMETRY ANALYSIS   ---------*
   *                                                                 *
   *******************************************************************



                         +-------------------------------+
                         ! REQUESTED PROPERTY OPERATORS: !
                         +-------------------------------+

             Index   Oper. Label  Symmetry  Transp.  PDBS  Atom
             --------------------------------------------------
                1     HAM0            1        1      T      0
                2     XDIPLEN         1        1      F      0
                3     YDIPLEN         1        1      F      0
                4     ZDIPLEN         1        1      F      0
             --------------------------------------------------




                         +-------------------------------+
                         ! REQUESTED EXPECTATION VALUES: !
                         +-------------------------------+

                       Index   Oper. Label  Symmetry
                       -----------------------------
                       -----------------------------




                       +------------------------------------+
                       ! REQUESTED EFFECTIVE FOCK MATRICES: !
                       +------------------------------------+

                       Index   Oper. Label  Symmetry
                       -----------------------------
                       -----------------------------




                        +----------------------------------+
                        ! REQUESTED FIRST ORDER M-VECTORS: !
                        +----------------------------------+

               Index   State Symmetry  Frequency
               --------------------------------------------------
                  1             1    1     1.512956D+01
               --------------------------------------------------


      

    *******************************************************************
    *          SOLVING COUPLED CLUSTER RESPONSE EQUATIONS             *
    *******************************************************************



 
 +======================================================================+
 !                     RHS & ETA VECTORS TO COMPUTE:                    !
 +======================================================================+
 | TYPE | # VEC. |  NEEDED FOR:                                         |
 +----------------------------------------------------------------------+
 +======================================================================+



 +======================================================================+
 !                       LINEAR EQUATIONS TO SOLVE:                     !
 +======================================================================+
 | TYPE | # VEC. |  EQUATION:                                           |
 +----------------------------------------------------------------------+
 |  M1  |    1   |  first-order ground - excited state multipliers      |
 +======================================================================+



 +======================================================================+
 !                F MATRIX TRANSFORMATIONS TO COMPUTE:                  !
 +======================================================================+
 | TYPE | # VEC. |  TRANSFORMED:                                        |
 +----------------------------------------------------------------------+
 |  FR  |    1   |  right eigenvectors (RE)                             |
 +======================================================================+





 Testing R1 list: 

 List nr.  Label     Symmetry      Frequency      T1-norm        T2-norm


 Testing L1 list: 

 List nr.  Label     Symmetry      Frequency      T1-norm        T2-norm
  Solvent 1-order response equations converged in                     0 
  solvent iterations
 SONIAPRI                     0
 CCEQ_STR: CVSEPARATION =  T
 CCEQ_STR: IONIZATION =  T
 CCEQ_STR: REMOVE_CORE =  F
 could not find required file CCM1_1___1
 IOPTSV is    33 ... program continues nevertheless.
 Vector nr.  1 of type M1  and symmetry  1 was not found on file.
     M1  start vector nr.  1 of symmetry  1 generated from gradient
 CCEQ_STR: freeze VALENCE OR VIRT
 CCEQ_SOL: CVSEPARA=     T
 CCEQ_SOL: LIONISAT=     T
 CCEQ_SOL: REMOVE_CORE =  F



 ----- COUPLED CLUSTER RESPONSE SOLVER -----

    Iter  #Vectors  time (min)   residual
    --------------------------------------
 CCRED CVS/IONIS sigma_                     1 
 project out valence occupied or virtual
      1       1         1.60     0.22E+01
 CCRED CVS/IONIS sigma_                     2 
 project out valence occupied or virtual
      2       1         1.66     0.40E+00
 CCRED CVS/IONIS sigma_                     3 
 project out valence occupied or virtual
      3       1         1.66     0.50E-01
 CCRED CVS/IONIS sigma_                     4 
 project out valence occupied or virtual
                    -1  vectors with norm le:  1.000000000000000E-035  REMOVED

 CCORT,**WARNING**  number vectors added is zero after check for vector norm , NBADD :    0

 CCORT, number vectors added is zero , NBADD :    0

 CCORT, number vectors added is zero , NBADD :    0

 CCORT, number vectors added is zero , NBADD :    0

 CCORT, number vectors added is zero , NBADD :    0

 *** MICROITERATIONS STOPPED DUE TO LINEAR DEPENDENCE BETWEEN ALL NEW TRIAL VECTORS
                     0  trial vectors converged
  LINEAR DEPENDENCE BETWEEN                     1  NON CONVERGED TRIAL VECTORS
      4       1         1.57     0.54E-02

 ***  CCEQ_SOL -MICROITERATIONS STOPPED  
     LINEAR DEPENDENCE BETWEEN ALL NEW TRIAL VECTORS
    --------------------------------------
    converged in  4 iterations
    threshold:    0.10E-08


         Routine          Time (min)
         ---------------------------
         CC_TRDRV            6.49
         CCRED               0.03
         CCNEX               0.05
         ---------------------------
         Total time          6.56


  Total CPU  time used in CCEQ_SOLV:  6 minutes 34 seconds
  Total wall time used in CCEQ_SOLV:  9 minutes 21 seconds


 xxxxxxxxxxxxxxxxxxxxxxxxxxxxxxxxxxxxx

 
 Solution of CC response equations completed.
 

 *******************************************************************
 *                                                                 *
 *--------  OUTPUT FROM COUPLED CLUSTER LINEAR RESPONSE   ---------*
 *                                                                 *
 *--------      CALCULATION OF SECOND ORDER RESIDUES      ---------*
 *                                                                 *
 *******************************************************************



                  +---------------------------------------------+
                  ! CC_SOPR: Calculation of CCSD       Residues !
                  +---------------------------------------------+

 Doing the Mf*CsiA
 Doing the Mf*CsiA
 Doing the Mf*CsiA


 CCSD  Right transition moments in atomic units:
 -----------------------------------------------

  1      15.129556  <XDIPLEN |f> =      -0.00000003
  1      15.129556  <YDIPLEN |f> =       0.00000001
  1      15.129556  <ZDIPLEN |f> =      -0.00000001


 CCSD  Left  transition moments in atomic units:
 -----------------------------------------------

  1      15.129556  <f|XDIPLEN > =      -0.00000001
  1      15.129556  <f|YDIPLEN > =       0.00000000
  1      15.129556  <f|ZDIPLEN > =      -0.00000000


 CCSD  linear response residue property in atomic units:
 -------------------------------------------------------

 RES{<<XDIPLEN ,XDIPLEN >>(15.129556)} =     0.00000000 (   0.00000002)
 RES{<<XDIPLEN ,YDIPLEN >>(15.129556)} =    -0.00000000 (  -0.00000001)
 RES{<<XDIPLEN ,ZDIPLEN >>(15.129556)} =     0.00000000 (   0.00000001)
 RES{<<YDIPLEN ,XDIPLEN >>(15.129556)} =    -0.00000000 (  -0.00000001)
 RES{<<YDIPLEN ,YDIPLEN >>(15.129556)} =     0.00000000 (   0.00000001)
 RES{<<YDIPLEN ,ZDIPLEN >>(15.129556)} =    -0.00000000 (  -0.00000001)
 RES{<<ZDIPLEN ,XDIPLEN >>(15.129556)} =     0.00000000 (   0.00000001)
 RES{<<ZDIPLEN ,YDIPLEN >>(15.129556)} =    -0.00000000 (  -0.00000001)
 RES{<<ZDIPLEN ,ZDIPLEN >>(15.129556)} =     0.00000000 (   0.00000000)


 CCSD  Transition strength matrix for state nr.  1 of symmetry 1
 CCSD  excitation energy:15.12955585

 Gauge: length

               Column   1     Column   2     Column   3
       1     4.088623D-16  -1.207207D-16   9.283994D-17
       2    -1.207207D-16   3.560764D-17  -2.740261D-17
       3     9.283994D-17  -2.740261D-17   2.107869D-17
    ==== End of matrix output ====

 Principal values of diagonalized transition strength matrix:

             a.u.               
 1       0.00000000
 2       0.00000000
 3       0.00000000

 Principal axis of diagonalized transition strength matrix:


               Column   1     Column   2     Column   3
       1       1.00000000     0.00000000     0.00000000
       2       0.00000000     1.00000000     0.00000000
       3       0.00000000     0.00000000     1.00000000
    ==== End of matrix output ====


 CCSD   oscillator strength matrix for state nr.  1 of symmetry 1
 CCSD  excitation energy:15.12955585


               Column   1     Column   2     Column   3
       1     4.123936D-15  -1.217634D-15   9.364181D-16
       2    -1.217634D-15   3.591519D-16  -2.763929D-16
       3     9.364181D-16  -2.763929D-16   2.126074D-16
    ==== End of matrix output ====

 Principal values of diagonalized oscillator strength matrix:

             a.u.               
 1       0.00000000
 2       0.00000000
 3       0.00000000

 Principal axis of diagonalized oscillator strength matrix:


               Column   1     Column   2     Column   3
       1       1.00000000     0.00000000     0.00000000
       2       0.00000000     1.00000000     0.00000000
       3       0.00000000     0.00000000     1.00000000
    ==== End of matrix output ====

  Total time for      9 linear response residues:       3.20 seconds.
  

 *******************************************************************************
 *******************************************************************************
 *                                                                             *
 *                                                                             *
 *                   SUMMARY OF COUPLED CLUSTER CALCULATION                    *
 *                                                                             *
 *                                                                             *
 *******************************************************************************
 *******************************************************************************

                                                                                
                                                                                
            Total SCF   energy:                  -361.1884590260                
            Total MP2   energy:                  -362.2994824749                
            Total CCSD  energy:                  -362.3398284917                
                                                                                
                                                                                
            Total SCF   energy:                  -361.1884590260                
            Total RSTAR energy:                  -362.3398284917                
            Total CCSD  energy:                  -362.3399817516                
                                                                                
                                                                                
            Total SCF   energy:                  -361.1884590260                
            Total RSTAR energy:                  -362.3399817516                
            Total CCSD  energy:                  -362.3399832850                
                                                                                
                                                                                
            Total SCF   energy:                  -361.1884590260                
            Total RSTAR energy:                  -362.3399832850                
            Total CCSD  energy:                  -362.3399834465                
                                                                                
                                                                                
            Total SCF   energy:                  -361.1884590260                
            Total RSTAR energy:                  -362.3399834465                
            Total CCSD  energy:                  -362.3399834541                
                                                                                
                                                                                
            Total SCF   energy:                  -361.1884590260                
            Total RSTAR energy:                  -362.3399834541                
            Total CCSD  energy:                  -362.3399834545                
                                                                                
                                                                                
            Total SCF   energy:                  -361.1884590260                
            Total RSTAR energy:                  -362.3399834545                
            Total CCSD  energy:                  -362.3399834545                
            CCSD Total  energy:                  -362.7752192857                
            CCSD E(QM/MM)     :                    -0.4296519062                
                                                                                
                                                                                
                                                                                
 +=============================================================================+
 |  sym. | Exci.  |        CCSD       Excitation energies            | ||T1||  |
 |(spin, |        +------------------------------------------------------------+
 | spat) |        |     Hartree    |       eV.      |     cm-1       |    %    |
 +=============================================================================+
 | ^1A   |    1   |    15.1295559  |     411.69616  |   3320553.663  |  88.15  |
 +=============================================================================+
                                                                                
                                                                                
     Total energies in Hartree:                                                 
             1 ^1A       -347.2160115250                                        
                                                                                
                                                                                
 +=============================================================================+
 |  sym. | Exci.  |        CCSD       Length   Gauge Oscillator Strength       |
 |(spin, |        +------------------------------------------------------------+
 | spat) |        | Dipole Strength(a.u.) | Oscillator strength  | Direction   |
 +=============================================================================+
 | ^1A   |    1   |        0.0000000      |      0.0000000       |    -        |
 +=============================================================================+

  1 a.u. =        27.21138 eV.  
  1 a.u. =    219474.62934 cm-1.
  

 *******************************************************************************
 *******************************************************************************
 *                                                                             *
 *                                                                             *
 *                      END OF COUPLED CLUSTER CALCULATION                     *
 *                                                                             *
 *                                                                             *
 *******************************************************************************
 *******************************************************************************


 CPU and wall time for CC :    8108.684   12860.511

 
     Date and time (Linux)  : Wed Nov 28 20:35:00 2018
     Host name              : n-62-24-5                               


                      .-------------------------------------.
                      | End of Coupled Cluster Section (CC) |
                      `-------------------------------------'

  Total CPU  time used in DALTON:   2 hours 17 minutes 23 seconds
  Total wall time used in DALTON:   3 hours 37 minutes 50 seconds

 
     Date and time (Linux)  : Wed Nov 28 20:35:02 2018
     Host name              : n-62-24-5                               
  

 +---------------------------------------------------------+ 
 | List of selected calculated molecular properties (a.u.) | 
 +---------------------------------------------------------+ 

  Properties are read from unit number                      4

 CCSD       properties :
 #  1 1 CCSD/MM  Ground state Energy =    -362.7752192857
 #  2 1 E_QM/MM  Ground state Energy =      -0.4296519062
 #  3 1 Sy: 1 Sp: 1 Exc:  1 E_tot:   -347.2160115250 w:     15.1295558545 E_grs:   -362.3455673796
 #  4 1 Exctot   Excited state Energy =    -347.2160115250
 #  5 1 |<O|XDIPLEN |i(15.129556)>| =     0.00000002
 #  7 1 |<O|YDIPLEN |i(15.129556)>| =     0.00000001
 #  9 1 |<O|ZDIPLEN |i(15.129556)>| =     0.00000000

 THE_END   
