

     ************************************************************************
     *************** Dalton - An Electronic Structure Program ***************
     ************************************************************************

    This is output from DALTON release Dalton2017.alpha (2016)
         ( Web site: http://daltonprogram.org )

   ----------------------------------------------------------------------------

    NOTE:
     
    Dalton is an experimental code for the evaluation of molecular
    properties using (MC)SCF, DFT, CI, and CC wave functions.
    The authors accept no responsibility for the performance of
    the code or for the correctness of the results.
     
    The code (in whole or part) is provided under a licence and
    is not to be reproduced for further distribution without
    the written permission of the authors or their representatives.
     
    See the home page "http://daltonprogram.org" for further information.
     
    If results obtained with this code are published,
    the appropriate citations would be both of:
     
       K. Aidas, C. Angeli, K. L. Bak, V. Bakken, R. Bast,
       L. Boman, O. Christiansen, R. Cimiraglia, S. Coriani,
       P. Dahle, E. K. Dalskov, U. Ekstroem,
       T. Enevoldsen, J. J. Eriksen, P. Ettenhuber, B. Fernandez,
       L. Ferrighi, H. Fliegl, L. Frediani, K. Hald, A. Halkier,
       C. Haettig, H. Heiberg, T. Helgaker, A. C. Hennum,
       H. Hettema, E. Hjertenaes, S. Hoest, I.-M. Hoeyvik,
       M. F. Iozzi, B. Jansik, H. J. Aa. Jensen, D. Jonsson,
       P. Joergensen, J. Kauczor, S. Kirpekar,
       T. Kjaergaard, W. Klopper, S. Knecht, R. Kobayashi, H. Koch,
       J. Kongsted, A. Krapp, K. Kristensen, A. Ligabue,
       O. B. Lutnaes, J. I. Melo, K. V. Mikkelsen, R. H. Myhre,
       C. Neiss, C. B. Nielsen, P. Norman, J. Olsen,
       J. M. H. Olsen, A. Osted, M. J. Packer, F. Pawlowski,
       T. B. Pedersen, P. F. Provasi, S. Reine, Z. Rinkevicius,
       T. A. Ruden, K. Ruud, V. Rybkin, P. Salek, C. C. M. Samson,
       A. Sanchez de Meras, T. Saue, S. P. A. Sauer,
       B. Schimmelpfennig, K. Sneskov, A. H. Steindal,
       K. O. Sylvester-Hvid, P. R. Taylor, A. M. Teale,
       E. I. Tellgren, D. P. Tew, A. J. Thorvaldsen, L. Thoegersen,
       O. Vahtras, M. A. Watson, D. J. D. Wilson, M. Ziolkowski
       and H. Agren,
       "The Dalton quantum chemistry program system",
       WIREs Comput. Mol. Sci. 2014, 4:269–284 (doi: 10.1002/wcms.1172)
     
    and
     
       Dalton, a Molecular Electronic Structure Program,
       Release Dalton2017.alpha (2016), see http://daltonprogram.org
   ----------------------------------------------------------------------------

    Authors in alphabetical order (major contribution(s) in parenthesis):

  Kestutis Aidas,           Vilnius University,           Lithuania   (QM/MM)
  Celestino Angeli,         University of Ferrara,        Italy       (NEVPT2)
  Keld L. Bak,              UNI-C,                        Denmark     (AOSOPPA, non-adiabatic coupling, magnetic properties)
  Vebjoern Bakken,          University of Oslo,           Norway      (DALTON; geometry optimizer, symmetry detection)
  Radovan Bast,             UiT The Arctic U. of Norway,  Norway      (DALTON installation and execution frameworks)
  Pablo Baudin,             University of Valencia,       Spain       (Cholesky excitation energies)
  Linus Boman,              NTNU,                         Norway      (Cholesky decomposition and subsystems)
  Ove Christiansen,         Aarhus University,            Denmark     (CC module)
  Renzo Cimiraglia,         University of Ferrara,        Italy       (NEVPT2)
  Sonia Coriani,            University of Trieste,        Italy       (CC module, MCD in RESPONS)
  Janusz Cukras,            University of Trieste,        Italy       (MChD in RESPONS)
  Paal Dahle,               University of Oslo,           Norway      (Parallelization)
  Erik K. Dalskov,          UNI-C,                        Denmark     (SOPPA)
  Thomas Enevoldsen,        Univ. of Southern Denmark,    Denmark     (SOPPA)
  Janus J. Eriksen,         Aarhus University,            Denmark     (Polarizable embedding model, TDA)
  Rasmus Faber,             University of Copenhagen,     Denmark     (Vib.avg. NMR with SOPPA, parallel AO-SOPPA)
  Berta Fernandez,          U. of Santiago de Compostela, Spain       (doublet spin, ESR in RESPONS)
  Lara Ferrighi,            Aarhus University,            Denmark     (PCM Cubic response)
  Heike Fliegl,             University of Oslo,           Norway      (CCSD(R12))
  Luca Frediani,            UiT The Arctic U. of Norway,  Norway      (PCM)
  Bin Gao,                  UiT The Arctic U. of Norway,  Norway      (Gen1Int library)
  Christof Haettig,         Ruhr-University Bochum,       Germany     (CC module)
  Kasper Hald,              Aarhus University,            Denmark     (CC module)
  Asger Halkier,            Aarhus University,            Denmark     (CC module)
  Frederik Beyer Hansen,    University of Copenhagen,     Denmark     (Parallel AO-SOPPA)
  Erik D. Hedegaard,        Univ. of Southern Denmark,    Denmark     (Polarizable embedding model, QM/MM)
  Hanne Heiberg,            University of Oslo,           Norway      (geometry analysis, selected one-electron integrals)
  Trygve Helgaker,          University of Oslo,           Norway      (DALTON; ABACUS, ERI, DFT modules, London, and much more)
  Alf Christian Hennum,     University of Oslo,           Norway      (Parity violation)
  Hinne Hettema,            University of Auckland,       New Zealand (quadratic response in RESPONS; SIRIUS supersymmetry)
  Eirik Hjertenaes,         NTNU,                         Norway      (Cholesky decomposition)
  Pi A. B. Haase,           University of Copenhagen,     Denmark     (Triplet AO-SOPPA)
  Maria Francesca Iozzi,    University of Oslo,           Norway      (RPA)
  Brano Jansik              Technical Univ. of Ostrava    Czech Rep.  (DFT cubic response)
  Hans Joergen Aa. Jensen,  Univ. of Southern Denmark,    Denmark     (DALTON; SIRIUS, RESPONS, ABACUS modules, London, and much more)
  Dan Jonsson,              UiT The Arctic U. of Norway,  Norway      (cubic response in RESPONS module)
  Poul Joergensen,          Aarhus University,            Denmark     (RESPONS, ABACUS, and CC modules)
  Maciej Kaminski,          University of Warsaw,         Poland      (CPPh in RESPONS)
  Joanna Kauczor,           Linkoeping University,        Sweden      (Complex polarization propagator (CPP) module)
  Sheela Kirpekar,          Univ. of Southern Denmark,    Denmark     (Mass-velocity & Darwin integrals)
  Wim Klopper,              KIT Karlsruhe,                Germany     (R12 code in CC, SIRIUS, and ABACUS modules)
  Stefan Knecht,            ETH Zurich,                   Switzerland (Parallel CI and MCSCF)
  Rika Kobayashi,           Australian National Univ.,    Australia   (DIIS in CC, London in MCSCF)
  Henrik Koch,              NTNU,                         Norway      (CC module, Cholesky decomposition)
  Jacob Kongsted,           Univ. of Southern Denmark,    Denmark     (Polarizable embedding model, QM/MM)
  Andrea Ligabue,           University of Modena,         Italy       (CTOCD, AOSOPPA)
  Nanna H. List             Univ. of Southern Denmark,    Denmark     (Polarizable embedding model)
  Ola B. Lutnaes,           University of Oslo,           Norway      (DFT Hessian)
  Juan I. Melo,             University of Buenos Aires,   Argentina   (LRESC, Relativistic Effects on NMR Shieldings)
  Kurt V. Mikkelsen,        University of Copenhagen,     Denmark     (MC-SCRF and QM/MM)
  Rolf H. Myhre,            NTNU,                         Norway      (Cholesky, subsystems and ECC2)
  Christian Neiss,          Univ. Erlangen-Nuernberg,     Germany     (CCSD(R12))
  Christian B. Nielsen,     University of Copenhagen,     Denmark     (QM/MM)
  Patrick Norman,           Linkoeping University,        Sweden      (Cubic response and complex frequency response in RESPONS)
  Jeppe Olsen,              Aarhus University,            Denmark     (SIRIUS CI/density modules)
  Jogvan Magnus H. Olsen,   Univ. of Southern Denmark,    Denmark     (Polarizable embedding model, QM/MM)
  Anders Osted,             Copenhagen University,        Denmark     (QM/MM)
  Martin J. Packer,         University of Sheffield,      UK          (SOPPA)
  Filip Pawlowski,          Kazimierz Wielki University,  Poland      (CC3)
  Morten N. Pedersen,       Univ. of Southern Denmark,    Denmark     (Polarizable embedding model)
  Thomas B. Pedersen,       University of Oslo,           Norway      (Cholesky decomposition)
  Patricio F. Provasi,      University of Northeastern,   Argentina   (Analysis of coupling constants in localized orbitals)
  Zilvinas Rinkevicius,     KTH Stockholm,                Sweden      (open-shell DFT, ESR)
  Elias Rudberg,            KTH Stockholm,                Sweden      (DFT grid and basis info)
  Torgeir A. Ruden,         University of Oslo,           Norway      (Numerical derivatives in ABACUS)
  Kenneth Ruud,             UiT The Arctic U. of Norway,  Norway      (DALTON; ABACUS magnetic properties and much more)
  Pawel Salek,              KTH Stockholm,                Sweden      (DALTON; DFT code)
  Claire C. M. Samson       University of Karlsruhe       Germany     (Boys localization, r12 integrals in ERI)
  Alfredo Sanchez de Meras, University of Valencia,       Spain       (CC module, Cholesky decomposition)
  Trond Saue,               Paul Sabatier University,     France      (direct Fock matrix construction)
  Stephan P. A. Sauer,      University of Copenhagen,     Denmark     (SOPPA(CCSD), SOPPA prop., AOSOPPA, vibrational g-factors)
  Bernd Schimmelpfennig,    Forschungszentrum Karlsruhe,  Germany     (AMFI module)
  Kristian Sneskov,         Aarhus University,            Denmark     (Polarizable embedding model, QM/MM)
  Arnfinn H. Steindal,      UiT The Arctic U. of Norway,  Norway      (parallel QM/MM, Polarizable embedding model)
  Casper Steinmann,         Univ. of Southern Denmark,    Denmark     (QFIT, Polarizable embedding model)
  K. O. Sylvester-Hvid,     University of Copenhagen,     Denmark     (MC-SCRF)
  Peter R. Taylor,          VLSCI/Univ. of Melbourne,     Australia   (Symmetry handling ABACUS, integral transformation)
  Andrew M. Teale,          University of Nottingham,     England     (DFT-AC, DFT-D)
  David P. Tew,             University of Bristol,        England     (CCSD(R12))
  Olav Vahtras,             KTH Stockholm,                Sweden      (triplet response, spin-orbit, ESR, TDDFT, open-shell DFT)
  David J. Wilson,          La Trobe University,          Australia   (DFT Hessian and DFT magnetizabilities)
  Hans Agren,               KTH Stockholm,                Sweden      (SIRIUS module, RESPONS, MC-SCRF solvation model)
 --------------------------------------------------------------------------------

     Date and time (Linux)  : Sun Dec  2 17:03:41 2018
     Host name              : n-62-23-21                              

 * Work memory size             :  1280000000 =  9.537 gigabytes.

 * Directories for basis set searches:
   1) /zhome/d7/7/119775/My_Codes/dalton-private/build2016/basis/diffs
   2) /zhome/37/3/129401/NH3NH4/CCSD/AIMD_SAMPLING/nh4_4h2o_nd
   3) /zhome/9a/4/124800/source/dalton/build-mlcc/basis


Compilation information
-----------------------

 Who compiled             | rfaber
 Host                     | hpclogin1
 System                   | Linux-2.6.32-696.1.1.el6.x86_64
 CMake generator          | Unix Makefiles
 Processor                | x86_64
 64-bit integers          | ON
 MPI                      | OFF
 Fortran compiler         | /opt/intel/2016update2/compilers_and_libraries_201
                          | 6.2.181/linux/bin/intel64/ifort
 Fortran compiler version | ifort (IFORT) 16.0.2 20160204
 C compiler               | /opt/intel/2016update2/compilers_and_libraries_201
                          | 6.2.181/linux/bin/intel64/icc
 C compiler version       | icc (ICC) 16.0.2 20160204
 C++ compiler             | /opt/intel/2016update2/compilers_and_libraries_201
                          | 6.2.181/linux/bin/intel64/icpc
 C++ compiler version     | icpc (ICC) 16.0.2 20160204
 Static linking           | OFF
 Last Git revision        | bb4d1599ca5680a9f3980451fc8bbefdba436d59
 Git branch               | mlcc
 Configuration time       | 2017-06-13 16:11:03.928841


   Content of the .dal input file
 ----------------------------------

**DALTON
.RUN WAVE FUNCTIONS
*QMMM
.QMMM
**INTEGRALS
.DIPLEN
**WAVE FUNCTIONS
.CC
*PRINT
!To check the origin of excit
.PRINTL
   0 11
*SCF INP
.THRESH
1.0D-7
!*ORBITAL INPUT
!.MOSTART
!NEWORB
*CC INP
!.RESTART
.CCSD
.THRLEQ
 1.0D-9
.THRENR
 1.0D-10
.FROIMP
4
0
.PRINT
 1
.MAX IT
 1200
.MAXRED
 1200
.MXLRV
1199
*CCSLV
.CCMM
.MXSLIT
200
.MXINIT
4 5
*CCEXCI
.NCCEXC
 1
.IONISATION
1
1
.CVSEPARA
1
1
*CCLRSD
.DIPOLE
**END OF DALTON INPUT


   Content of the .mol file
 ----------------------------

ATOMBASIS


Atomtypes=5 Charge=1 Nosymm Angstrom
   7.00000    1    Basis=6-311G**
N          0.000000        0.000000        0.000000
   1.00000    4    Basis=6-311G**
H          0.509008        0.904721       -0.085209
H          0.608663       -0.878890       -0.080782
H         -0.873921       -0.032642       -0.605661
H         -0.311685        0.058018        1.051428
   8.00000    4    Basis=6-311G**
O         -2.380780       -0.525676       -1.337466
O          1.683252        2.324263       -0.138234
O         -0.661222        0.877666        2.549059
O          1.353960       -3.072088        0.685345
   1.00000    8    Basis=6-311G**
H         -2.904547       -1.341677       -1.002523
H         -3.045458        0.233168       -1.265853
H          1.156801        2.941330       -0.659744
H          2.315348        1.822211       -0.741577
H         -0.002438        0.997351        3.300935
H         -0.898048        1.703889        2.080431
H          2.157390       -3.577783        1.065336
H          0.560603       -3.650091        0.633391
   0.00000    1    Basis=diffs
X          0.000000        0.000000        0.000000


       *******************************************************************
       *********** Output from DALTON general input processing ***********
       *******************************************************************

 --------------------------------------------------------------------------------
   Overall default print level:    0
   Print level for DALTON.STAT:    1

    HERMIT 1- and 2-electron integral sections will be executed
    "Old" integral transformation used (limited to max 255 basis functions)
    Wave function sections will be executed (SIRIUS module)
 --------------------------------------------------------------------------------


 Changes of defaults for *QMMM  :
 --------------------------------

 +------------------+
 |  WORD: | CHANGE: |
 +------------------+
 |   QMMM |       T |
 +------------------+
 


   ****************************************************************************
   *************** Output of molecule and basis set information ***************
   ****************************************************************************


    The two title cards from your ".mol" input:
    ------------------------------------------------------------------------
 1:                                                                         
 2:                                                                         
    ------------------------------------------------------------------------

  Coordinates are entered in Angstrom and converted to atomic units.
          - Conversion factor : 1 bohr = 0.52917721 A

  Atomic type no.    1
  --------------------
  Nuclear charge:   7.00000
  Number of symmetry independent centers:    1
  Number of basis sets to read;    2
  The basis set is "6-311G**" from the basis set library.
  Basis set file used for this atomic type with Z =   7 :
     "/zhome/9a/4/124800/source/dalton/build-mlcc/basis/6-311G**"

  Info about the basis set file: your basis has no documentation.
  Basis set: 6-311G**                                                                        

  Atomic type no.    2
  --------------------
  Nuclear charge:   1.00000
  Number of symmetry independent centers:    4
  Number of basis sets to read;    2
  The basis set is "6-311G**" from the basis set library.
  Basis set file used for this atomic type with Z =   1 :
     "/zhome/9a/4/124800/source/dalton/build-mlcc/basis/6-311G**"

  Info about the basis set file: your basis has no documentation.
  Basis set: 6-311G**                                                                        

  Atomic type no.    3
  --------------------
  Nuclear charge:   8.00000
  Number of symmetry independent centers:    4
  Number of basis sets to read;    2
  The basis set is "6-311G**" from the basis set library.
  Basis set file used for this atomic type with Z =   8 :
     "/zhome/9a/4/124800/source/dalton/build-mlcc/basis/6-311G**"

  Info about the basis set file: your basis has no documentation.
  Basis set: 6-311G**                                                                        

  Atomic type no.    4
  --------------------
  Nuclear charge:   1.00000
  Number of symmetry independent centers:    8
  Number of basis sets to read;    2
  The basis set is "6-311G**" from the basis set library.
  Basis set file used for this atomic type with Z =   1 :
     "/zhome/9a/4/124800/source/dalton/build-mlcc/basis/6-311G**"

  Info about the basis set file: your basis has no documentation.
  Basis set: 6-311G**                                                                        

  Atomic type no.    5
  --------------------
  Nuclear charge:   0.00000
  Number of symmetry independent centers:    1
  Number of basis sets to read;    2
  The basis set is "diffs" from the basis set library.
  Basis set file used for this atomic type with Z =   0 :
     "/zhome/9a/4/124800/source/dalton/build-mlcc/basis/diffs"

  Info about the basis set file: your basis has no documentation.
  Basis set: diffs                                                                           


                         SYMGRP: Point group information
                         -------------------------------

@    Point group: C1 


                                 Isotopic Masses
                                 ---------------

                           N          14.003074
                           H           1.007825
                           H           1.007825
                           H           1.007825
                           H           1.007825
                           O          15.994915
                           O          15.994915
                           O          15.994915
                           O          15.994915
                           H           1.007825
                           H           1.007825
                           H           1.007825
                           H           1.007825
                           H           1.007825
                           H           1.007825
                           H           1.007825
                           H           1.007825

                       Total mass:    90.076634 amu
                       Natural abundance:  98.500 %

 Center-of-mass coordinates (a.u.):   -0.017006   -0.150172    0.668171


  Atoms and basis sets
  --------------------

  Number of atom types :    5
  Total number of atoms:   18

  label    atoms   charge   prim   cont     basis
  ----------------------------------------------------------------------
  N           1    7.0000    31    18      [11s5p1d|4s3p1d]                                   
  H           4    1.0000     8     6      [5s1p|3s1p]                                        
  O           4    8.0000    31    18      [11s5p1d|4s3p1d]                                   
  H           8    1.0000     8     6      [5s1p|3s1p]                                        
  X           1    0.0000     1     1      [1s|1s]                                            
  ----------------------------------------------------------------------
  total:     18   51.0000   252   163
  ----------------------------------------------------------------------
  Spherical harmonic basis used.

  Threshold for neglecting AO integrals:  1.00D-12


  Cartesian Coordinates (a.u.)
  ----------------------------

  Total number of coordinates:   54
  N       :     1  x   0.0000000000    2  y   0.0000000000    3  z   0.0000000000
  H       :     4  x   0.9618857154    5  y   1.7096749095    6  z  -0.1610216734
  H       :     7  x   1.1502063724    8  y  -1.6608613940    9  z  -0.1526558558
  H       :    10  x  -1.6514713449   11  y  -0.0616844402   12  z  -1.1445334146
  H       :    13  x  -0.5889992873   14  y   0.1096381303   15  z   1.9869109601
  O       :    16  x  -4.4990221639   17  y  -0.9933836705   18  z  -2.5274444415
  O       :    19  x   3.1808852793   20  y   4.3922205125   21  z  -0.2612244012
  O       :    22  x  -1.2495284878   23  y   1.6585483692   24  z   4.8170233865
  O       :    25  x   2.5586135842   26  y  -5.8054049519   27  z   1.2951143511
  H       :    28  x  -5.4887983472   29  y  -2.5354020782   30  z  -1.8944939040
  H       :    31  x  -5.7550815452   32  y   0.4406236611   33  z  -2.3921154845
  H       :    34  x   2.1860370711   35  y   5.5583081432   36  z  -1.2467354726
  H       :    37  x   4.3753736041   38  y   3.4434797320   39  z  -1.4013774306
  H       :    40  x  -0.0046071523   41  y   1.8847202405   42  z   6.2378631064
  H       :    43  x  -1.6970647671   44  y   3.2198835574   45  z   3.9314448119
  H       :    46  x   4.0768762448   47  y  -6.7610300047   48  z   2.0131932711
  H       :    49  x   1.0593861348   50  y  -6.8976723213   51  z   1.1969355200
  X       :    52  x   0.0000000000   53  y   0.0000000000   54  z   0.0000000000

  Max    interatomic separation is    6.8577 Angstrom (   12.9591 Bohr)
  between atoms   16 and   11, "H     " and "H     ".

  Min HX interatomic separation is    0.9643 Angstrom (    1.8223 Bohr)

  Min YX interatomic separation is    2.7758 Angstrom (    5.2456 Bohr)


  Bond distances (Angstrom):
  --------------------------

                  atom 1     atom 2       distance
                  ------     ------       --------
  bond distance:  H          N            1.041571
  bond distance:  H          N            1.072121
  bond distance:  H          N            1.063780
  bond distance:  H          N            1.098187
  bond distance:  H          O            1.025854
  bond distance:  H          O            1.011321
  bond distance:  H          O            0.964311
  bond distance:  H          O            1.007782
  bond distance:  H          O            1.006796
  bond distance:  H          O            0.978950
  bond distance:  H          O            1.022556
  bond distance:  H          O            0.982956


  Bond angles (degrees):
  ----------------------

                  atom 1     atom 2     atom 3         angle
                  ------     ------     ------         -----
  bond angle:     H          N          H            115.370
  bond angle:     H          N          H            112.430
  bond angle:     H          N          H             99.854
  bond angle:     H          N          H            113.474
  bond angle:     H          N          H            106.056
  bond angle:     H          N          H            108.274
  bond angle:     H          O          H            103.779
  bond angle:     H          O          H            109.720
  bond angle:     H          O          H            114.548
  bond angle:     H          O          H            111.284




 Principal moments of inertia (u*A**2) and principal axes
 --------------------------------------------------------

   IA     353.865609          0.100490    0.990977    0.088694
   IB     429.783766          0.875456   -0.130426    0.465366
   IC     525.660918         -0.472735   -0.030883    0.880663


 Rotational constants
 --------------------

               A                   B                   C

           1428.1665           1175.8913            961.4164 MHz
            0.047639            0.039224            0.032069 cm-1


@  Nuclear repulsion energy :  194.566152742116 Hartree

  Number of floating/multiple basis set orbitals :    1


                     .---------------------------------------.
                     | Starting in Integral Section (HERMIT) |
                     `---------------------------------------'



 ***************************************************************************************
 ****************** Output from **INTEGRALS input processing (HERMIT) ******************
 ***************************************************************************************



    *************************************************************************
    ****************** Output from HERMIT input processing ******************
    *************************************************************************


 Default print level:        1

 * Nuclear model: Point charge

 Calculation of one- and two-electron Hamiltonian integrals.

 The following one-electron property integrals are calculated as requested:
          - overlap integrals
          - dipole length integrals

 Center of mass  (bohr):     -0.017005620975     -0.150171744911      0.668170880826
 Operator center (bohr):      0.000000000000      0.000000000000      0.000000000000
 Gauge origin    (bohr):      0.000000000000      0.000000000000      0.000000000000
 Dipole origin   (bohr):      0.000000000000      0.000000000000      0.000000000000
 
  *********************************** 
  QMMM electrostatic potential: 
  Multipole order                                    0
  Isotropic polarization  
  *********************************** 
 
  ---------------- 
  QMMM information 
  ---------------- 
 
  MM coordinates in au 
  -------------------- 
     1      1.006761      4.482139     -5.796587
     2      1.528554      2.779526     -6.161108
     3      2.449421      5.569709     -6.150575
     4      9.844870      8.901748     11.535128
     5      7.903564      9.181144     11.369089
     6     10.080262      7.284751     10.621727
     7      5.523855      6.594122     -7.191026
     8      6.552126      7.903400     -6.200456
     9      6.706043      5.279065     -7.814932
    10      8.676702      9.429019     -3.894009
    11      9.220372      9.056936     -2.200431
    12     10.175211      9.382617     -4.940226
    13     -8.140621     -6.518024     -9.537389
    14     -7.209882     -7.808027    -10.686993
    15     -7.985499     -4.763811    -10.183851
    16    -10.422295      9.866194     -8.150372
    17    -11.454685      9.165389     -9.621333
    18    -10.863176     11.660591     -8.067700
    19     -1.576907     -8.771980      0.646239
    20     -1.181776     -9.922553     -0.729245
    21     -2.916095     -9.541004      1.802848
    22      5.128881     -0.205793    -10.673364
    23      4.030020     -1.172163     -9.533997
    24      6.490138     -1.505284    -10.981212
    25      6.562233     -9.359454      2.785997
    26      8.226074     -8.903384      1.955757
    27      6.691518    -11.051366      3.479254
    28     -1.843874      5.638400    -10.373776
    29     -2.196412      3.811483    -10.696755
    30     -0.721981      5.612194     -8.860769
    31     -8.627363      1.962679     -2.115140
    32     -9.552201      1.959007     -0.416588
    33     -8.731774      3.772080     -2.659336
    34     10.425003     -8.580354     -8.521370
    35     12.193475     -7.926836     -8.888200
    36      9.820693     -7.968824     -6.886865
    37      1.833633     -0.672950     -5.437938
    38      0.250608     -1.242557     -6.252187
    39      2.973416     -2.117521     -5.358685
    40    -10.997233     -0.508028     -6.158820
    41    -10.250933     -1.014560     -7.823050
    42    -10.065802      0.440113     -4.945041
    43     10.857350     -4.834331     -2.829795
    44      9.043573     -4.890743     -2.939136
    45     11.422956     -3.120178     -3.203643
    46      9.852845      7.362706      0.910903
    47     11.421577      8.027969      1.670165
    48      8.438311      7.777451      2.011343
    49      6.778807     -8.590648     11.721597
    50      5.605476    -10.041952     11.984148
    51      8.269379     -9.221884     12.592500
    52     -3.315693      6.051062     -3.426773
    53     -2.338060      4.774712     -4.346070
    54     -5.184571      6.232659     -3.794570
    55     10.878773      1.934652      1.678578
    56     10.971882      1.829784      3.568650
    57     10.355658      3.719427      1.473089
    58     -0.406204    -11.714191     -7.910050
    59      1.074154    -11.918170     -9.179796
    60     -2.007437    -12.644598     -8.379877
    61     -6.832029      1.559667      9.547764
    62     -5.133484      1.228167     10.434867
    63     -6.845210      0.241904      8.182429
    64     -5.504821     -2.526991      6.878601
    65     -3.970864     -1.718842      6.136453
    66     -4.877345     -3.872799      7.928081
    67     -8.592303     -7.941570     -4.118267
    68     -8.048000     -7.783999     -5.828365
    69     -9.919488     -6.782890     -4.046771
    70     -5.097612      9.648123     -9.747812
    71     -6.774700      9.531461     -9.180305
    72     -4.442393      7.890230     -9.947293
    73      9.885683     -2.501134     10.337123
    74      9.872201     -1.447190      8.727415
    75      9.797406     -4.236299      9.720262
    76     -3.268922     -6.571808      9.139184
    77     -4.173300     -8.222040      9.190173
    78     -2.701273     -6.600435     10.988829
    79      2.855021     10.424289      1.415609
    80      3.769098     11.911084      0.964786
    81      1.741900      9.952305     -0.020129
    82     -2.711972     -2.183424     -7.438208
    83     -2.631357     -4.018648     -7.865331
    84     -3.283061     -2.082353     -5.644831
    85      4.834741      4.137586      5.743089
    86      4.021222      3.519653      4.198476
    87      3.638908      4.543002      6.978449
    88      4.234878     -5.636970     -8.069748
    89      5.182889     -6.280930     -9.451773
    90      4.777146     -6.283991     -6.445327
    91      1.422879      0.181924      8.791388
    92      1.307666     -1.556078      8.198397
    93      3.152708      0.659316      9.381190
    94      1.410263      7.153430      9.145485
    95      0.535414      8.285487      7.778366
    96      0.220969      7.056768     10.472722
    97     -9.537701      9.573113      3.524929
    98    -10.025403     10.643408      4.961909
    99     -9.150352      7.957892      4.298741
   100     -7.753484     -6.308150      4.061717
   101     -6.938364     -6.131124      2.385207
   102     -7.057997     -4.788630      5.102873
   103     -6.871772    -10.185252     10.757411
   104     -8.199263    -10.744010      9.586131
   105     -5.966910    -11.769588     11.359671
   106      9.367115     -6.643667      7.040088
   107      7.942568     -7.734664      7.350337
   108      9.072843     -6.018757      5.260599
   109    -11.148749    -10.742434      7.491829
   110    -12.233567    -11.110433      9.034403
   111    -11.651537     -8.952997      6.877431
   112     -5.475272     -5.732902     -0.808893
   113     -3.899609     -6.632187     -0.528849
   114     -6.358910     -6.835364     -2.030849
   115      9.443441      1.501019      6.606329
   116     10.115857      2.468464      7.976305
   117      7.804913      2.151499      6.118096
   118      8.482750     -3.413318      2.951208
   119      9.541342     -3.103097      1.367102
   120      8.948843     -2.017449      4.101414
   121     -0.669951      9.658097      5.297594
   122      0.411356     10.491792      3.941022
   123     -2.103303     10.886049      5.565684
   124      7.605341      0.706130     -2.355942
   125      8.692251      0.819295     -0.687983
   126      8.507235      1.775008     -3.519188
   127     -7.416121      5.580894      5.533670
   128     -5.716401      5.848511      4.816861
   129     -7.417517      4.612888      7.020835
   130     11.589910      3.902645     10.397815
   131     10.895732      3.604346     12.113437
   132     13.229646      2.987653     10.546883
   133      9.066347      3.012649     -8.691164
   134      7.634480      1.829262     -9.121018
   135     10.117665      2.013131     -7.546257
   136     -2.829468      5.793228      2.111119
   137     -2.837533      5.887105      0.222680
   138     -1.941159      7.263119      2.849613
   139     -2.630108      0.789974     11.469918
   140     -0.854778      0.571047     10.800348
   141     -2.625489     -0.404180     12.957657
   142      0.473743     -4.316584      6.559453
   143      1.194808     -4.957177      4.926028
   144     -0.652679     -5.632040      7.202874
   145     -1.313838     -6.910539     -9.408226
   146     -1.530119     -8.568268     -8.585011
   147      0.592603     -6.479474     -9.329534
   148     -8.988677     -1.581298    -10.910980
   149    -10.639041     -2.062245    -11.901675
   150     -7.984688     -0.362589    -11.986074
   151      4.495946      9.513114    -11.374683
   152      3.546211      8.418327    -12.803452
   153      4.676112      8.193132    -10.064553
   154      7.054431      9.462038      5.298384
   155      6.091353      7.995877      5.799632
   156      8.399390      9.302188      6.550503
   157      7.296603     -8.898119     -4.407966
   158      7.038396     -7.812638     -2.930262
   159      7.660045    -10.597556     -3.889245
   160     11.498834     -9.458928      0.896543
   161     11.113876     -8.642024     -0.728673
   162     12.483531     -8.085887      1.676242
   163     -8.735709      6.881292     -3.683724
   164     -9.483487      7.266942     -5.382673
   165     -8.663219      8.508543     -2.627216
   166      5.520400     -4.039611     -2.535257
   167      4.403120     -4.629171     -1.174246
   168      5.964754     -2.250025     -2.464653
   169     -5.073232    -10.790839      4.792138
   170     -6.393308    -12.048299      4.196653
   171     -6.103059     -9.225093      5.053581
   172     -7.541886     10.888131     -0.944451
   173     -7.632502     12.544044     -1.819682
   174     -8.641608     11.064819      0.603985
   175     -0.651954     10.493742     -2.543146
   176     -1.983428      9.144872     -2.706676
   177     -0.241550     11.105363     -4.335644
 
  MM charges 
  ---------- 
     1     -0.674440
     2      0.337220
     3      0.337220
     4     -0.674440
     5      0.337220
     6      0.337220
     7     -0.674440
     8      0.337220
     9      0.337220
    10     -0.674440
    11      0.337220
    12      0.337220
    13     -0.674440
    14      0.337220
    15      0.337220
    16     -0.674440
    17      0.337220
    18      0.337220
    19     -0.674440
    20      0.337220
    21      0.337220
    22     -0.674440
    23      0.337220
    24      0.337220
    25     -0.674440
    26      0.337220
    27      0.337220
    28     -0.674440
    29      0.337220
    30      0.337220
    31     -0.674440
    32      0.337220
    33      0.337220
    34     -0.674440
    35      0.337220
    36      0.337220
    37     -0.674440
    38      0.337220
    39      0.337220
    40     -0.674440
    41      0.337220
    42      0.337220
    43     -0.674440
    44      0.337220
    45      0.337220
    46     -0.674440
    47      0.337220
    48      0.337220
    49     -0.674440
    50      0.337220
    51      0.337220
    52     -0.674440
    53      0.337220
    54      0.337220
    55     -0.674440
    56      0.337220
    57      0.337220
    58     -0.674440
    59      0.337220
    60      0.337220
    61     -0.674440
    62      0.337220
    63      0.337220
    64     -0.674440
    65      0.337220
    66      0.337220
    67     -0.674440
    68      0.337220
    69      0.337220
    70     -0.674440
    71      0.337220
    72      0.337220
    73     -0.674440
    74      0.337220
    75      0.337220
    76     -0.674440
    77      0.337220
    78      0.337220
    79     -0.674440
    80      0.337220
    81      0.337220
    82     -0.674440
    83      0.337220
    84      0.337220
    85     -0.674440
    86      0.337220
    87      0.337220
    88     -0.674440
    89      0.337220
    90      0.337220
    91     -0.674440
    92      0.337220
    93      0.337220
    94     -0.674440
    95      0.337220
    96      0.337220
    97     -0.674440
    98      0.337220
    99      0.337220
   100     -0.674440
   101      0.337220
   102      0.337220
   103     -0.674440
   104      0.337220
   105      0.337220
   106     -0.674440
   107      0.337220
   108      0.337220
   109     -0.674440
   110      0.337220
   111      0.337220
   112     -0.674440
   113      0.337220
   114      0.337220
   115     -0.674440
   116      0.337220
   117      0.337220
   118     -0.674440
   119      0.337220
   120      0.337220
   121     -0.674440
   122      0.337220
   123      0.337220
   124     -0.674440
   125      0.337220
   126      0.337220
   127     -0.674440
   128      0.337220
   129      0.337220
   130     -0.674440
   131      0.337220
   132      0.337220
   133     -0.674440
   134      0.337220
   135      0.337220
   136     -0.674440
   137      0.337220
   138      0.337220
   139     -0.674440
   140      0.337220
   141      0.337220
   142     -0.674440
   143      0.337220
   144      0.337220
   145     -0.674440
   146      0.337220
   147      0.337220
   148     -0.674440
   149      0.337220
   150      0.337220
   151     -0.674440
   152      0.337220
   153      0.337220
   154     -0.674440
   155      0.337220
   156      0.337220
   157     -0.674440
   158      0.337220
   159      0.337220
   160     -0.674440
   161      0.337220
   162      0.337220
   163     -0.674440
   164      0.337220
   165      0.337220
   166     -0.674440
   167      0.337220
   168      0.337220
   169     -0.674440
   170      0.337220
   171      0.337220
   172     -0.674440
   173      0.337220
   174      0.337220
   175     -0.674440
   176      0.337220
   177      0.337220
 
  MM isotropic polarizabilities in au 
  ----------------------------------- 
     1      5.739350
     2      2.308390
     3      2.308390
     4      5.739350
     5      2.308390
     6      2.308390
     7      5.739350
     8      2.308390
     9      2.308390
    10      5.739350
    11      2.308390
    12      2.308390
    13      5.739350
    14      2.308390
    15      2.308390
    16      5.739350
    17      2.308390
    18      2.308390
    19      5.739350
    20      2.308390
    21      2.308390
    22      5.739350
    23      2.308390
    24      2.308390
    25      5.739350
    26      2.308390
    27      2.308390
    28      5.739350
    29      2.308390
    30      2.308390
    31      5.739350
    32      2.308390
    33      2.308390
    34      5.739350
    35      2.308390
    36      2.308390
    37      5.739350
    38      2.308390
    39      2.308390
    40      5.739350
    41      2.308390
    42      2.308390
    43      5.739350
    44      2.308390
    45      2.308390
    46      5.739350
    47      2.308390
    48      2.308390
    49      5.739350
    50      2.308390
    51      2.308390
    52      5.739350
    53      2.308390
    54      2.308390
    55      5.739350
    56      2.308390
    57      2.308390
    58      5.739350
    59      2.308390
    60      2.308390
    61      5.739350
    62      2.308390
    63      2.308390
    64      5.739350
    65      2.308390
    66      2.308390
    67      5.739350
    68      2.308390
    69      2.308390
    70      5.739350
    71      2.308390
    72      2.308390
    73      5.739350
    74      2.308390
    75      2.308390
    76      5.739350
    77      2.308390
    78      2.308390
    79      5.739350
    80      2.308390
    81      2.308390
    82      5.739350
    83      2.308390
    84      2.308390
    85      5.739350
    86      2.308390
    87      2.308390
    88      5.739350
    89      2.308390
    90      2.308390
    91      5.739350
    92      2.308390
    93      2.308390
    94      5.739350
    95      2.308390
    96      2.308390
    97      5.739350
    98      2.308390
    99      2.308390
   100      5.739350
   101      2.308390
   102      2.308390
   103      5.739350
   104      2.308390
   105      2.308390
   106      5.739350
   107      2.308390
   108      2.308390
   109      5.739350
   110      2.308390
   111      2.308390
   112      5.739350
   113      2.308390
   114      2.308390
   115      5.739350
   116      2.308390
   117      2.308390
   118      5.739350
   119      2.308390
   120      2.308390
   121      5.739350
   122      2.308390
   123      2.308390
   124      5.739350
   125      2.308390
   126      2.308390
   127      5.739350
   128      2.308390
   129      2.308390
   130      5.739350
   131      2.308390
   132      2.308390
   133      5.739350
   134      2.308390
   135      2.308390
   136      5.739350
   137      2.308390
   138      2.308390
   139      5.739350
   140      2.308390
   141      2.308390
   142      5.739350
   143      2.308390
   144      2.308390
   145      5.739350
   146      2.308390
   147      2.308390
   148      5.739350
   149      2.308390
   150      2.308390
   151      5.739350
   152      2.308390
   153      2.308390
   154      5.739350
   155      2.308390
   156      2.308390
   157      5.739350
   158      2.308390
   159      2.308390
   160      5.739350
   161      2.308390
   162      2.308390
   163      5.739350
   164      2.308390
   165      2.308390
   166      5.739350
   167      2.308390
   168      2.308390
   169      5.739350
   170      2.308390
   171      2.308390
   172      5.739350
   173      2.308390
   174      2.308390
   175      5.739350
   176      2.308390
   177      2.308390


     ************************************************************************
     ************************** Output from HERINT **************************
     ************************************************************************



                      Nuclear contribution to dipole moments
                      --------------------------------------

                 au               Debye          C m (/(10**-30)

      x     -1.44867161        -3.68215571       -12.28234937
      y     -7.53447979       -19.15073619       -63.87997988
      z     33.56116559        85.30396873       284.54341146



 Threshold for neglecting two-electron integrals:  1.00D-12
 HERMIT - Number of two-electron integrals written:    35399037 ( 39.6% )
 HERMIT - Megabytes written:                            405.339

  Time used in TWOINT     is       7.85 seconds
  Total CPU  time used in HERMIT:   8.04 seconds
  Total wall time used in HERMIT:   8.81 seconds


                        .----------------------------------.
                        | End of Integral Section (HERMIT) |
                        `----------------------------------'



                   .--------------------------------------------.
                   | Starting in Wave Function Section (SIRIUS) |
                   `--------------------------------------------'

NCCEXCI for singlet:    1
 CCSD_INPUT: core-val requested
 Requested number of virtual orbs per sym
                     1
 Indices of requested virtual orbs
                     1
 CCSD_INPUT: core-val requested
 Requested number of core orbs per sym
                     1
 Indices of requested core orbs
                     1

 *** Output from Huckel module :

     Using EWMO model:          T
     Using EHT  model:          F
     Number of Huckel orbitals each symmetry:   37

 EWMO - Energy Weighted Maximum Overlap - is a Huckel type method,
        which normally is better than Extended Huckel Theory.
 Reference: Linderberg and Ohrn, Propagators in Quantum Chemistry (Wiley, 1973)

 Huckel EWMO eigenvalues for symmetry :  1
          -20.684672     -20.684498     -20.684312     -20.684197     -15.674611
           -1.793898      -1.605360      -1.595513      -1.580007      -1.467011
           -0.824625      -0.809144      -0.798012      -0.781758      -0.774602
           -0.753751      -0.734991      -0.683974      -0.671447      -0.657092
           -0.650157      -0.615997      -0.591505      -0.557377      -0.552036
           -0.266274      -0.249884      -0.248706      -0.240998      -0.188340
           -0.187748      -0.180442      -0.176049      -0.175426      -0.159458
           -0.148673      -0.143254

 **********************************************************************
 *SIRIUS* a direct, restricted step, second order MCSCF program       *
 **********************************************************************

 
     Date and time (Linux)  : Sun Dec  2 17:03:50 2018
     Host name              : n-62-23-21                              

 Title lines from ".mol" input file:
                                                                             
                                                                             

 Print level on unit LUPRI =   2 is   0
 Print level on unit LUW4  =   2 is  11

@    (Integral direct) CC calculation.

@    This is a combination run starting with
@              a restricted, closed shell Hartree-Fock calculation


 Initial molecular orbitals are obtained according to
 ".MOSTART EWMO  " input option

@    QM part is embedded in an environment :

@         Model: QMMM

     Wave function specification
     ============================

     For the specification of the Coupled Cluster: see later.

@    Wave function type        --- CC ---
@    Number of closed shell electrons          50
@    Number of electrons in active shells       0
@    Total charge of the molecule               1

@    Spin multiplicity and 2 M_S                1         0
@    Total number of symmetries                 1 (point group: C1 )
@    Reference state symmetry                   1 (irrep name : A  )

     Orbital specifications
     ======================
@    Abelian symmetry species          All |    1
@                                          |  A  
                                       --- |  ---
@    Occupied SCF orbitals              25 |   25
@    Secondary orbitals                138 |  138
@    Total number of orbitals          163 |  163
@    Number of basis functions         163 |  163

     Optimization information
     ========================
@    Number of configurations                 1
@    Number of orbital rotations           3450
     ------------------------------------------
@    Total number of variables             3451

     Maximum number of Fock   iterations      0
     Maximum number of DIIS   iterations     60
     Maximum number of QC-SCF iterations     60
     Threshold for SCF convergence     1.00D-07


 Changes of defaults for CC:
 ---------------------------


 -Implicit frozen core calculation
 -Excitation energies calculated
 -One-photon absorption strengths will be calculated
 -Oscillator strengths calculated
  
* Read MO coefficients from SIRIUS.RST with label "NEWORB  " and header info:  2Dec18  REORTHO 


 ***********************************************
 ***** DIIS acceleration of SCF iterations *****
 ***********************************************

 C1-DIIS algorithm; max error vectors =    8
 -----------------------------------------------------------------------------

 *** DIIS iteration number    1
 RDSUPM called. NFMAT, ISYMDM(1:NFMAT)                     1
                     1

Calculating AOSUPINT
     (Precalculated two-electron integrals are transformed to P-supermatrix elements.
      Threshold for discarding integrals :  1.00D-12 )
  CPU  time used in FORMSUP    is   4.84 seconds
  WALL time used in FORMSUP    is  15.74 seconds

 ITDIIS, energy, error norm, change in energy, scr.thr., difden:
@ DIIS iter.   1    -360.270044585        3.88855D+00   -3.60D+02  -20    F

 (DIIS_RED) Control Parameters C2DIIS =         F NEVC =    1


 (DIIS_RED) B matrix:

               Column   1
       1      15.12082732
    ==== End of matrix output ====

 DIIS C vector; C2DIIS = F, LAMBDA = -1.51D+01
    1.000000
* Read MO coefficients from SIRIUS.RST with label "NEWORB  " and header info:  2Dec18  DIIS   1
      Virial theorem: -V/T =      2.003615
@      MULPOP N       0.12; H       0.17; H       0.14; H       0.17; H       0.18; O      -0.57; O      -0.60; O      -0.58; O      -0.61; H       0.31; 
@             H       0.32; H       0.34; H       0.33; H       0.31; H       0.33; H       0.31; H       0.33; 
   1  Level shift: doubly occupied orbital energies shifted by -2.00D-01

 DIIS Fock eigenvalues in symmetry 1
      -20.83286      -20.81976      -20.81237      -20.80798      -16.45571
       -1.71534       -1.65510       -1.63032       -1.62633       -1.60954
       -1.20589       -1.19000       -1.16950       -1.04559       -1.01923
       -1.01723       -0.97881       -0.89412       -0.88293       -0.87297
       -0.86837       -0.85658       -0.85054       -0.83730       -0.83316
       -0.02189       -0.00005        0.04068        0.06254        0.08210
        0.10037        0.11814        0.14920        0.16399        0.16968
        0.18857        0.19601        0.22191        0.24348        0.26310
        0.29401        0.42368        0.44140        0.44542        0.45661
        0.47264        0.47685        0.48484        0.50025        0.52745
        0.64804        0.68395        0.69460        0.84508        0.84913
        0.87512        0.89040        0.92463        0.95785        0.96348
        0.98044        1.00473        1.01435        1.02988        1.04491
        1.05477        1.07816        1.10822        1.23969        1.24909
        1.32010        1.33085        1.35152        1.35510        1.37674
        1.39416        1.40684        1.44902        1.46666        1.49218
        1.51313        1.55681        1.57587        1.58248        1.60340
        1.61083        1.65122        1.70990        1.72806        1.73597
        1.79614        1.84056        1.92085        2.00036        2.07081
        2.07641        2.09263        2.10292        2.13512        2.14308
        2.18073        2.18328        2.19662        2.21987        2.24424
        2.37114        2.45040        2.49656        2.50797        2.51928
        2.55875        2.60337        2.61232        2.63212        2.65597
        2.66764        2.69782        2.71828        2.73960        2.92350
        2.95437        3.02926        3.09708        3.27605        3.31243
        3.33428        3.36593        3.38859        3.39061        3.39528
        3.44845        3.49192        3.49290        3.51330        3.51838
        3.86058        3.89913        3.91470        3.95112        4.03899
        4.05053        4.05939        4.09391        4.55363        4.69686
        4.77368        5.19755        5.26556        5.27357        5.33845
        5.60340        5.66301        5.69352        5.73367        5.90932
        5.98047        6.00409        6.03952       36.31188       51.43703
       51.45330       51.46039       51.47356
 Time used in FCKEIG, thr_jaco:   4.60D-02  6.10D-02  1.66D-04
 CPU and wall times used in FCKEIG, THR_FCKEIG:   4.60D-02  6.10D-02  3.89D-02
 -----------------------------------------------------------------------------

 *** DIIS iteration number    2
 RDSUPM called. NFMAT, ISYMDM(1:NFMAT)                     1
                     1

 ITDIIS, energy, error norm, change in energy, scr.thr., difden:
@ DIIS iter.   2    -361.124302039        1.12271D+00   -8.54D-01  -20    F

 (DIIS_RED) Control Parameters C2DIIS =         F NEVC =    2


 (DIIS_RED) B matrix:

               Column   1     Column   2
       1      15.12082732
       2       0.76024122     1.26047898
    ==== End of matrix output ====

 DIIS C vector; C2DIIS = F, LAMBDA = -1.24D+00
    0.033662    0.966338
* Read MO coefficients from SIRIUS.RST with label "NEWORB  " and header info:  2Dec18  DIIS   2
      Virial theorem: -V/T =      2.003314
@      MULPOP N      -0.55; H       0.31; H       0.31; H       0.35; H       0.34; O      -0.61; O      -0.52; O      -0.57; O      -0.63; H       0.33; 
@             H       0.34; H       0.30; H       0.29; H       0.32; H       0.33; H       0.33; H       0.33; 
   2  Level shift: doubly occupied orbital energies shifted by -1.00D-01

 DIIS Fock eigenvalues in symmetry 1
      -20.79135      -20.76760      -20.76436      -20.75965      -15.64315
       -1.54890       -1.52431       -1.52188       -1.50498       -1.37038
       -0.92263       -0.90312       -0.89755       -0.87977       -0.86880
       -0.85532       -0.84324       -0.78936       -0.77515       -0.75929
       -0.75155       -0.72786       -0.72318       -0.69999       -0.69514
       -0.00005        0.04662        0.08177        0.10705        0.12302
        0.14107        0.16412        0.18221        0.20620        0.22680
        0.23198        0.25939        0.29012        0.33996        0.35557
        0.37740        0.46057        0.47210        0.49023        0.49967
        0.51504        0.51674        0.52780        0.55158        0.59568
        0.79522        0.81813        0.83131        0.87380        0.89117
        0.92908        0.94849        0.97032        0.98441        0.99508
        1.01707        1.03561        1.04944        1.07778        1.08517
        1.15715        1.18939        1.20130        1.28058        1.29742
        1.36787        1.38623        1.40499        1.40624        1.43506
        1.45246        1.46348        1.52096        1.52649        1.56842
        1.59796        1.62609        1.64540        1.66315        1.67676
        1.67893        1.74202        1.76784        1.79270        1.80208
        1.85356        1.94926        2.01515        2.08955        2.11550
        2.14357        2.14871        2.18092        2.20478        2.23743
        2.24665        2.25403        2.27204        2.31111        2.35438
        2.48211        2.56014        2.57593        2.58362        2.60826
        2.66124        2.67792        2.68827        2.71873        2.76212
        2.76541        2.79300        2.90792        2.90899        3.12917
        3.19929        3.23093        3.29746        3.29878        3.36119
        3.38926        3.40842        3.41193        3.41495        3.47537
        3.48892        3.51986        3.52511        3.54012        3.54440
        3.88126        3.92200        3.93679        3.97378        4.06242
        4.07246        4.08098        4.11481        4.94355        5.08198
        5.15573        5.20000        5.27417        5.27613        5.33274
        5.60422        5.66121        5.69518        5.73482        5.92135
        5.99682        6.01749        6.05434       37.00858       51.39119
       51.39880       51.40998       51.42380
 Time used in FCKEIG, thr_jaco:   3.20D-02  3.80D-02  4.78D-05
 CPU and wall times used in FCKEIG, THR_FCKEIG:   3.20D-02  3.80D-02  1.12D-02
 -----------------------------------------------------------------------------

 *** DIIS iteration number    3
 RDSUPM called. NFMAT, ISYMDM(1:NFMAT)                     1
                     1

 ITDIIS, energy, error norm, change in energy, scr.thr., difden:
@ DIIS iter.   3    -361.198211043        3.81515D-01   -7.39D-02  -20    F

 (DIIS_RED) Control Parameters C2DIIS =         F NEVC =    3


 (DIIS_RED) B matrix:

               Column   1     Column   2     Column   3
       1      15.12082732
       2       0.76024122     1.26047898
       3       0.81387474    -0.01826299     0.14555381
    ==== End of matrix output ====

 DIIS C vector; C2DIIS = F, LAMBDA = -9.29D-02
   -0.049950    0.117375    0.932575
* Read MO coefficients from SIRIUS.RST with label "NEWORB  " and header info:  2Dec18  DIIS   3
      Virial theorem: -V/T =      2.004066
@      MULPOP N      -0.37; H       0.28; H       0.26; H       0.33; H       0.30; O      -0.69; O      -0.57; O      -0.64; O      -0.70; H       0.37; 
@             H       0.38; H       0.32; H       0.31; H       0.35; H       0.36; H       0.36; H       0.36; 
   3  Level shift: doubly occupied orbital energies shifted by -5.00D-02

 DIIS Fock eigenvalues in symmetry 1
      -20.69447      -20.69163      -20.66685      -20.66529      -15.80497
       -1.47863       -1.46223       -1.45027       -1.43594       -1.37335
       -0.86560       -0.85372       -0.84920       -0.83585       -0.83364
       -0.81151       -0.78755       -0.71641       -0.70965       -0.69191
       -0.68130       -0.65585       -0.65020       -0.62741       -0.62400
       -0.00005        0.05074        0.08728        0.11387        0.12893
        0.14516        0.16494        0.18607        0.21170        0.23015
        0.23568        0.25908        0.29001        0.33977        0.35205
        0.37707        0.47264        0.48183        0.50145        0.50852
        0.52557        0.52656        0.53731        0.55968        0.59660
        0.78098        0.80928        0.81950        0.88855        0.90213
        0.94067        0.95474        0.98088        0.99783        1.00634
        1.03186        1.04744        1.06409        1.09299        1.09993
        1.15424        1.18585        1.19941        1.28521        1.30742
        1.38118        1.40218        1.41639        1.41801        1.44641
        1.46394        1.47457        1.53074        1.53587        1.57883
        1.60284        1.63505        1.65546        1.66862        1.68293
        1.68884        1.74709        1.78084        1.80387        1.80929
        1.86298        1.94994        2.01896        2.09741        2.13039
        2.15603        2.16311        2.19928        2.20218        2.25075
        2.26028        2.26906        2.28344        2.30908        2.35443
        2.48672        2.57154        2.57796        2.59104        2.61570
        2.66942        2.68973        2.69927        2.72916        2.76282
        2.77208        2.80324        2.87448        2.87993        3.11493
        3.17839        3.19135        3.29334        3.31846        3.37641
        3.41061        3.41948        3.43187        3.44065        3.47832
        3.51114        3.53943        3.55080        3.56729        3.57156
        3.90720        3.94111        3.96397        4.00343        4.08355
        4.10308        4.11131        4.14303        4.85824        4.99836
        5.07533        5.22199        5.30298        5.30920        5.36750
        5.62602        5.69661        5.72700        5.76772        5.95422
        6.01948        6.05252        6.09041       36.80291       51.41800
       51.44499       51.45475       51.47121
 Time used in FCKEIG, thr_jaco:   2.80D-02  3.40D-02  1.62D-05
 CPU and wall times used in FCKEIG, THR_FCKEIG:   2.80D-02  3.40D-02  3.82D-03
 -----------------------------------------------------------------------------

 *** DIIS iteration number    4
 RDSUPM called. NFMAT, ISYMDM(1:NFMAT)                     1
                     1

 ITDIIS, energy, error norm, change in energy, scr.thr., difden:
@ DIIS iter.   4    -361.208570615        9.24513D-02   -1.04D-02  -20    F

 (DIIS_RED) Control Parameters C2DIIS =         F NEVC =    4


 (DIIS_RED) B matrix:

               Column   1     Column   2     Column   3     Column   4
       1      15.12082732
       2       0.76024122     1.26047898
       3       0.81387474    -0.01826299     0.14555381
       4       0.05137261     0.07691249     0.00342550     0.00854724
    ==== End of matrix output ====

 DIIS C vector; C2DIIS = F, LAMBDA = -4.35D-03
   -0.000124   -0.061403   -0.002122    1.063649
* Read MO coefficients from SIRIUS.RST with label "NEWORB  " and header info:  2Dec18  DIIS   4
      Virial theorem: -V/T =      2.003984
@      MULPOP N      -0.45; H       0.29; H       0.28; H       0.35; H       0.32; O      -0.71; O      -0.58; O      -0.65; O      -0.71; H       0.37; 
@             H       0.39; H       0.32; H       0.31; H       0.35; H       0.36; H       0.37; H       0.37; 
   4  Level shift: doubly occupied orbital energies shifted by -1.25D-02

 DIIS Fock eigenvalues in symmetry 1
      -20.67197      -20.65995      -20.64520      -20.64350      -15.73488
       -1.44640       -1.42736       -1.41771       -1.40351       -1.32401
       -0.82123       -0.81466       -0.80396       -0.79896       -0.79671
       -0.76833       -0.75438       -0.68126       -0.67208       -0.65682
       -0.64508       -0.61677       -0.61362       -0.59048       -0.58697
       -0.00005        0.05244        0.08689        0.11350        0.12830
        0.14516        0.16702        0.18579        0.21125        0.23161
        0.23717        0.26167        0.29388        0.34488        0.35847
        0.38208        0.47214        0.48120        0.50070        0.50796
        0.52574        0.52613        0.53683        0.55861        0.60027
        0.78863        0.81556        0.82591        0.89006        0.90352
        0.94164        0.95719        0.98113        0.99692        1.00585
        1.03104        1.04690        1.06352        1.09119        1.09687
        1.15924        1.19152        1.20162        1.28742        1.30855
        1.38174        1.40063        1.41495        1.41739        1.44581
        1.46320        1.47322        1.53091        1.53644        1.57918
        1.60759        1.63639        1.65470        1.66998        1.68539
        1.69001        1.74869        1.78003        1.80450        1.81054
        1.86197        1.95502        2.02428        2.09978        2.12704
        2.15373        2.16239        2.19721        2.20813        2.25109
        2.25784        2.26673        2.28337        2.31221        2.35883
        2.49016        2.56955        2.58359        2.59145        2.61883
        2.67126        2.68900        2.70011        2.72976        2.76561
        2.77553        2.80219        2.88550        2.88955        3.12420
        3.18723        3.20309        3.29871        3.31749        3.37505
        3.40906        3.41769        3.43077        3.43667        3.47925
        3.50863        3.53846        3.54755        3.56368        3.56752
        3.90278        3.93974        3.95977        3.99915        4.08262
        4.09889        4.10713        4.13882        4.87609        5.01630
        5.09258        5.21969        5.29612        5.30184        5.36012
        5.62388        5.68942        5.72031        5.76029        5.94596
        6.01626        6.04480        6.08249       36.83511       51.41231
       51.43034       51.43953       51.45577
 Time used in FCKEIG, thr_jaco:   2.60D-02  2.80D-02  3.93D-06
 CPU and wall times used in FCKEIG, THR_FCKEIG:   2.60D-02  2.80D-02  9.25D-04
 -----------------------------------------------------------------------------

 *** DIIS iteration number    5
 RDSUPM called. NFMAT, ISYMDM(1:NFMAT)                     1
                     1

 ITDIIS, energy, error norm, change in energy, scr.thr., difden:
@ DIIS iter.   5    -361.209531704        2.90650D-02   -9.61D-04  -20    F

 (DIIS_RED) Control Parameters C2DIIS =         F NEVC =    5


 (DIIS_RED) B matrix:

               Column   1     Column   2     Column   3     Column   4     Column   5
       1      15.12082732
       2       0.76024122     1.26047898
       3       0.81387474    -0.01826299     0.14555381
       4       0.05137261     0.07691249     0.00342550     0.00854724
       5       0.02078643     0.00740163     0.00536126     0.00072595     0.00084477
    ==== End of matrix output ====

 DIIS C vector; C2DIIS = F, LAMBDA = -5.74D-04
    0.001322   -0.013864   -0.042428    0.121723    0.933247
* Read MO coefficients from SIRIUS.RST with label "NEWORB  " and header info:  2Dec18  DIIS   5
      Virial theorem: -V/T =      2.003632
@      MULPOP N      -0.44; H       0.29; H       0.27; H       0.35; H       0.32; O      -0.72; O      -0.59; O      -0.66; O      -0.72; H       0.38; 
@             H       0.39; H       0.33; H       0.32; H       0.36; H       0.37; H       0.37; H       0.37; 

 DIIS Fock eigenvalues in symmetry 1
      -20.65180      -20.64455      -20.62401      -20.62300      -15.71838
       -1.43114       -1.41380       -1.40206       -1.38820       -1.30977
       -0.80690       -0.80034       -0.78999       -0.78555       -0.78248
       -0.75383       -0.73992       -0.66635       -0.65866       -0.64214
       -0.62972       -0.60233       -0.59780       -0.57435       -0.57088
       -0.00005        0.05306        0.08717        0.11400        0.12870
        0.14551        0.16756        0.18590        0.21159        0.23218
        0.23799        0.26244        0.29495        0.34596        0.35965
        0.38321        0.47288        0.48147        0.50145        0.50827
        0.52651        0.52700        0.53756        0.55920        0.60134
        0.79014        0.81712        0.82731        0.89158        0.90537
        0.94349        0.95926        0.98213        0.99845        1.00654
        1.03265        1.04816        1.06534        1.09291        1.09834
        1.16080        1.19282        1.20295        1.28852        1.31035
        1.38353        1.40137        1.41499        1.41843        1.44661
        1.46403        1.47398        1.53171        1.53721        1.58015
        1.60857        1.63731        1.65480        1.67089        1.68625
        1.69091        1.74907        1.78044        1.80519        1.81116
        1.86220        1.95625        2.02541        2.10100        2.12784
        2.15378        2.16349        2.19838        2.20944        2.25232
        2.25816        2.26769        2.28453        2.31323        2.36005
        2.49117        2.56939        2.58469        2.59196        2.61973
        2.67176        2.68918        2.70061        2.73025        2.76652
        2.77640        2.80228        2.88714        2.89104        3.12577
        3.18921        3.20507        3.30121        3.31872        3.37791
        3.41206        3.42053        3.43185        3.43955        3.48200
        3.51180        3.53957        3.55071        3.56656        3.57037
        3.90562        3.94074        3.96256        4.00236        4.08382
        4.10215        4.11040        4.14189        4.87855        5.01869
        5.09504        5.22164        5.30085        5.30701        5.36483
        5.62563        5.69431        5.72457        5.76471        5.95013
        6.01770        6.04884        6.08711       36.83904       51.41525
       51.43790       51.44739       51.46431
 Time used in FCKEIG, thr_jaco:   2.70D-02  4.20D-02  1.24D-06
 CPU and wall times used in FCKEIG, THR_FCKEIG:   2.70D-02  4.20D-02  2.91D-04
 -----------------------------------------------------------------------------

 *** DIIS iteration number    6
 RDSUPM called. NFMAT, ISYMDM(1:NFMAT)                     1
                     1

 ITDIIS, energy, error norm, change in energy, scr.thr., difden:
@ DIIS iter.   6    -361.209611169        1.04791D-02   -7.95D-05  -20    F

 (DIIS_RED) Control Parameters C2DIIS =         F NEVC =    6


 (DIIS_RED) B matrix:

               Column   1     Column   2     Column   3     Column   4     Column   5     Column   6
       1      15.12082732
       2       0.76024122     1.26047898
       3       0.81387474    -0.01826299     0.14555381
       4       0.05137261     0.07691249     0.00342550     0.00854724
       5       0.02078643     0.00740163     0.00536126     0.00072595     0.00084477
       6      -0.00464704    -0.00006227     0.00071575     0.00052567     0.00001195     0.00010981
    ==== End of matrix output ====

 DIIS C vector; C2DIIS = F, LAMBDA = -3.38D-05
    0.000769    0.006628   -0.009610   -0.128837    0.120460    1.010590
* Read MO coefficients from SIRIUS.RST with label "NEWORB  " and header info:  2Dec18  DIIS   6
      Virial theorem: -V/T =      2.003875
@      MULPOP N      -0.43; H       0.29; H       0.27; H       0.35; H       0.32; O      -0.72; O      -0.59; O      -0.66; O      -0.73; H       0.38; 
@             H       0.39; H       0.33; H       0.32; H       0.36; H       0.37; H       0.38; H       0.38; 

 DIIS Fock eigenvalues in symmetry 1
      -20.65391      -20.64522      -20.62643      -20.62537      -15.72021
       -1.43170       -1.41392       -1.40273       -1.38888       -1.31020
       -0.80743       -0.80085       -0.79042       -0.78597       -0.78305
       -0.75426       -0.74064       -0.66707       -0.65899       -0.64305
       -0.63045       -0.60214       -0.59815       -0.57474       -0.57130
       -0.00005        0.05302        0.08708        0.11387        0.12853
        0.14542        0.16746        0.18579        0.21146        0.23204
        0.23790        0.26235        0.29487        0.34590        0.35951
        0.38307        0.47267        0.48130        0.50122        0.50809
        0.52626        0.52679        0.53735        0.55889        0.60119
        0.78992        0.81684        0.82701        0.89161        0.90513
        0.94321        0.95903        0.98187        0.99806        1.00626
        1.03223        1.04781        1.06501        1.09252        1.09789
        1.16061        1.19263        1.20269        1.28839        1.31003
        1.38314        1.40109        1.41471        1.41809        1.44627
        1.46367        1.47361        1.53147        1.53700        1.57986
        1.60848        1.63707        1.65456        1.67057        1.68607
        1.69072        1.74885        1.78022        1.80498        1.81099
        1.86189        1.95611        2.02536        2.10075        2.12728
        2.15341        2.16313        2.19786        2.20928        2.25205
        2.25781        2.26725        2.28415        2.31292        2.35981
        2.49097        2.56907        2.58462        2.59164        2.61954
        2.67156        2.68892        2.70038        2.73001        2.76621
        2.77628        2.80194        2.88674        2.89063        3.12552
        3.18871        3.20454        3.30060        3.31852        3.37724
        3.41125        3.41974        3.43159        3.43882        3.48123
        3.51101        3.53935        3.54995        3.56586        3.56951
        3.90474        3.94046        3.96181        4.00148        4.08356
        4.10132        4.10957        4.14099        4.87771        5.01782
        5.09420        5.22135        5.29958        5.30576        5.36369
        5.62524        5.69303        5.72343        5.76342        5.94879
        6.01727        6.04769        6.08579       36.83724       51.41456
       51.43579       51.44509       51.46193
 Time used in FCKEIG, thr_jaco:   2.40D-02  3.00D-02  4.46D-07
 CPU and wall times used in FCKEIG, THR_FCKEIG:   2.40D-02  3.00D-02  1.05D-04
 -----------------------------------------------------------------------------

 *** DIIS iteration number    7
 RDSUPM called. NFMAT, ISYMDM(1:NFMAT)                     1
                     1

 ITDIIS, energy, error norm, change in energy, scr.thr., difden:
@ DIIS iter.   7    -361.209622811        2.17886D-03   -1.16D-05  -20    F

 (DIIS_RED) Control Parameters C2DIIS =         F NEVC =    7


 (DIIS_RED) B matrix:

               Column   1     Column   2     Column   3     Column   4     Column   5     Column   6
       1      15.12082732
       2       0.76024122     1.26047898
       3       0.81387474    -0.01826299     0.14555381
       4       0.05137261     0.07691249     0.00342550     0.00854724
       5       0.02078643     0.00740163     0.00536126     0.00072595     0.00084477
       6      -0.00464704    -0.00006227     0.00071575     0.00052567     0.00001195     0.00010981
       7       0.00025092     0.00018309    -0.00000189     0.00000573     0.00004452     0.00000089

               Column   7
       7       0.00000475
    ==== End of matrix output ====

 DIIS C vector; C2DIIS = F, LAMBDA = -1.09D-06
   -0.000243   -0.000789    0.005150    0.023233   -0.100600   -0.144427    1.217676
* Read MO coefficients from SIRIUS.RST with label "NEWORB  " and header info:  2Dec18  DIIS   7
      Virial theorem: -V/T =      2.003817
@      MULPOP N      -0.43; H       0.28; H       0.27; H       0.35; H       0.32; O      -0.72; O      -0.59; O      -0.66; O      -0.73; H       0.38; 
@             H       0.40; H       0.33; H       0.32; H       0.36; H       0.37; H       0.38; H       0.38; 

 DIIS Fock eigenvalues in symmetry 1
      -20.65363      -20.64518      -20.62610      -20.62502      -15.71981
       -1.43156       -1.41384       -1.40258       -1.38871       -1.31000
       -0.80732       -0.80073       -0.79028       -0.78593       -0.78295
       -0.75411       -0.74053       -0.66702       -0.65900       -0.64299
       -0.63036       -0.60202       -0.59798       -0.57453       -0.57109
       -0.00005        0.05309        0.08711        0.11391        0.12856
        0.14545        0.16752        0.18581        0.21149        0.23208
        0.23796        0.26241        0.29496        0.34600        0.35963
        0.38319        0.47272        0.48132        0.50127        0.50813
        0.52631        0.52686        0.53741        0.55893        0.60130
        0.79007        0.81697        0.82714        0.89170        0.90524
        0.94333        0.95916        0.98193        0.99816        1.00632
        1.03233        1.04789        1.06511        1.09259        1.09795
        1.16073        1.19276        1.20281        1.28850        1.31015
        1.38327        1.40111        1.41471        1.41815        1.44632
        1.46371        1.47365        1.53152        1.53706        1.57992
        1.60858        1.63714        1.65458        1.67064        1.68614
        1.69079        1.74890        1.78025        1.80503        1.81105
        1.86190        1.95622        2.02548        2.10085        2.12731
        2.15341        2.16320        2.19791        2.20940        2.25212
        2.25783        2.26729        2.28422        2.31302        2.35992
        2.49106        2.56907        2.58472        2.59167        2.61962
        2.67160        2.68893        2.70041        2.73005        2.76629
        2.77635        2.80194        2.88691        2.89080        3.12569
        3.18890        3.20474        3.30077        3.31858        3.37738
        3.41141        3.41991        3.43165        3.43895        3.48142
        3.51116        3.53941        3.55009        3.56600        3.56968
        3.90489        3.94051        3.96193        4.00163        4.08364
        4.10148        4.10972        4.14117        4.87797        5.01809
        5.09446        5.22143        5.29983        5.30597        5.36388
        5.62530        5.69323        5.72361        5.76363        5.94899
        6.01732        6.04786        6.08598       36.83763       51.41461
       51.43608       51.44542       51.46225
 Time used in FCKEIG, thr_jaco:   2.30D-02  2.70D-02  9.27D-08
 CPU and wall times used in FCKEIG, THR_FCKEIG:   2.30D-02  2.70D-02  2.18D-05
 -----------------------------------------------------------------------------

 *** DIIS iteration number    8
 RDSUPM called. NFMAT, ISYMDM(1:NFMAT)                     1
                     1

 ITDIIS, energy, error norm, change in energy, scr.thr., difden:
@ DIIS iter.   8    -361.209623344        3.51351D-04   -5.33D-07  -20    F

 (DIIS_RED) Control Parameters C2DIIS =         F NEVC =    8


 (DIIS_RED) B matrix:

               Column   1     Column   2     Column   3     Column   4     Column   5     Column   6
       1      15.12082732
       2       0.76024122     1.26047898
       3       0.81387474    -0.01826299     0.14555381
       4       0.05137261     0.07691249     0.00342550     0.00854724
       5       0.02078643     0.00740163     0.00536126     0.00072595     0.00084477
       6      -0.00464704    -0.00006227     0.00071575     0.00052567     0.00001195     0.00010981
       7       0.00025092     0.00018309    -0.00000189     0.00000573     0.00004452     0.00000089
       8       0.00009154    -0.00003791     0.00000929     0.00000131     0.00000043     0.00000144

               Column   7     Column   8
       7       0.00000475
       8       0.00000035     0.00000012
    ==== End of matrix output ====

 DIIS C vector; C2DIIS = F, LAMBDA = -5.98D-08
    0.000019    0.000047   -0.000828   -0.001744    0.018864   -0.001168   -0.256588    1.241399
* Read MO coefficients from SIRIUS.RST with label "NEWORB  " and header info:  2Dec18  DIIS   8
      Virial theorem: -V/T =      2.003832
@      MULPOP N      -0.43; H       0.28; H       0.27; H       0.35; H       0.32; O      -0.72; O      -0.59; O      -0.66; O      -0.73; H       0.38; 
@             H       0.40; H       0.33; H       0.32; H       0.36; H       0.37; H       0.38; H       0.38; 

 DIIS Fock eigenvalues in symmetry 1
      -20.65361      -20.64513      -20.62610      -20.62508      -15.71984
       -1.43155       -1.41382       -1.40257       -1.38872       -1.31001
       -0.80731       -0.80073       -0.79029       -0.78591       -0.78294
       -0.75411       -0.74054       -0.66703       -0.65901       -0.64303
       -0.63038       -0.60200       -0.59796       -0.57454       -0.57109
       -0.00005        0.05309        0.08711        0.11391        0.12856
        0.14545        0.16751        0.18581        0.21149        0.23208
        0.23796        0.26241        0.29496        0.34600        0.35962
        0.38318        0.47273        0.48133        0.50127        0.50813
        0.52630        0.52686        0.53741        0.55893        0.60130
        0.79007        0.81697        0.82714        0.89171        0.90523
        0.94332        0.95916        0.98193        0.99816        1.00633
        1.03232        1.04789        1.06511        1.09259        1.09794
        1.16073        1.19275        1.20281        1.28851        1.31015
        1.38326        1.40111        1.41471        1.41815        1.44631
        1.46370        1.47365        1.53152        1.53706        1.57991
        1.60858        1.63713        1.65458        1.67063        1.68614
        1.69079        1.74890        1.78025        1.80503        1.81105
        1.86190        1.95622        2.02547        2.10084        2.12730
        2.15342        2.16320        2.19790        2.20940        2.25212
        2.25783        2.26729        2.28421        2.31301        2.35992
        2.49105        2.56907        2.58472        2.59167        2.61962
        2.67160        2.68893        2.70040        2.73005        2.76629
        2.77635        2.80194        2.88691        2.89079        3.12568
        3.18888        3.20473        3.30076        3.31860        3.37738
        3.41140        3.41989        3.43167        3.43896        3.48140
        3.51116        3.53943        3.55009        3.56600        3.56966
        3.90486        3.94053        3.96194        4.00163        4.08366
        4.10148        4.10972        4.14114        4.87795        5.01807
[...]
 | 1 1 1 1 |  12   1   9   1 |     1116        1 |       622171 |   -0.079906  |
 | 1 1 1 1 |  26   1   9   1 |     1130        1 |       637886 |    0.089764  |
 | 1 1 1 1 |  27   1   9   1 |     1131        1 |       639016 |    0.119347  |
 | 1 1 1 1 |  12   1  11   1 |     1392        1 |       968137 |    0.072043  |
 | 1 1 1 1 |  27   1  11   1 |     1407        1 |       989122 |   -0.080527  |
 | 1 1 1 1 |  11   1  12   1 |     1529        1 |      1168157 |    0.087175  |
 | 1 1 1 1 |  26   1  12   1 |     1544        1 |      1191197 |    0.136163  |
 | 1 1 1 1 |  32   1  12   1 |     1550        1 |      1200476 |    0.065395  |
 +=============================================================================+


          Norm of Printed Amplitude Vector :             0.8333

          Printed all single excitations greater than 0.379081

          Printed all double excitations greater than 0.065207



+======================================================================+
| contributions of excitation levels to right eigenvectors as computed |
| from the (RE|RE) self overlap                                        |
+----------------------------------------------------------------------+
| sym | multi | state |    E / eV  | % singles | % doubles | % triples |
+======================================================================+
|    1|   1   |   1   |  411.47100 |  87.9408  |  12.0592  |   0.0000  |
+======================================================================+





+======================================================================+
| contributions of excitation levels to excited states as computed     |
| from the (LE|RE) overlap                                             |
+----------------------------------------------------------------------+
| sym | multi | state |    E / eV  | % singles | % doubles | % triples |
+======================================================================+
|    1|   1   |   1   |  411.47100 |  78.6854  |  21.3146  |   0.0000  |
+======================================================================+



 --------------------------
 Symmetry class Nr.:     1
 Multiplicity      :     3
 --------------------------

 Length of Excitation vectors in this class is:   8404200
 No Excitation Energies calculated in this symmetry class
     

   *******************************************************************
   *                                                                 *
   *--------   OUTPUT FROM PROPERTY AND SYMMETRY ANALYSIS   ---------*
   *                                                                 *
   *******************************************************************



                         +-------------------------------+
                         ! REQUESTED PROPERTY OPERATORS: !
                         +-------------------------------+

             Index   Oper. Label  Symmetry  Transp.  PDBS  Atom
             --------------------------------------------------
                1     HAM0            1        1      T      0
                2     XDIPLEN         1        1      F      0
                3     YDIPLEN         1        1      F      0
                4     ZDIPLEN         1        1      F      0
             --------------------------------------------------




                         +-------------------------------+
                         ! REQUESTED EXPECTATION VALUES: !
                         +-------------------------------+

                       Index   Oper. Label  Symmetry
                       -----------------------------
                       -----------------------------




                       +------------------------------------+
                       ! REQUESTED EFFECTIVE FOCK MATRICES: !
                       +------------------------------------+

                       Index   Oper. Label  Symmetry
                       -----------------------------
                       -----------------------------




                        +----------------------------------+
                        ! REQUESTED FIRST ORDER M-VECTORS: !
                        +----------------------------------+

               Index   State Symmetry  Frequency
               --------------------------------------------------
                  1             1    1     1.512128D+01
               --------------------------------------------------


      

    *******************************************************************
    *          SOLVING COUPLED CLUSTER RESPONSE EQUATIONS             *
    *******************************************************************



 
 +======================================================================+
 !                     RHS & ETA VECTORS TO COMPUTE:                    !
 +======================================================================+
 | TYPE | # VEC. |  NEEDED FOR:                                         |
 +----------------------------------------------------------------------+
 +======================================================================+



 +======================================================================+
 !                       LINEAR EQUATIONS TO SOLVE:                     !
 +======================================================================+
 | TYPE | # VEC. |  EQUATION:                                           |
 +----------------------------------------------------------------------+
 |  M1  |    1   |  first-order ground - excited state multipliers      |
 +======================================================================+



 +======================================================================+
 !                F MATRIX TRANSFORMATIONS TO COMPUTE:                  !
 +======================================================================+
 | TYPE | # VEC. |  TRANSFORMED:                                        |
 +----------------------------------------------------------------------+
 |  FR  |    1   |  right eigenvectors (RE)                             |
 +======================================================================+





 Testing R1 list: 

 List nr.  Label     Symmetry      Frequency      T1-norm        T2-norm


 Testing L1 list: 

 List nr.  Label     Symmetry      Frequency      T1-norm        T2-norm
  Solvent 1-order response equations converged in                     0 
  solvent iterations
 SONIAPRI                     0
 CCEQ_STR: CVSEPARATION =  T
 CCEQ_STR: IONIZATION =  T
 CCEQ_STR: REMOVE_CORE =  F
 could not find required file CCM1_1___1
 IOPTSV is    33 ... program continues nevertheless.
 Vector nr.  1 of type M1  and symmetry  1 was not found on file.
     M1  start vector nr.  1 of symmetry  1 generated from gradient
 CCEQ_STR: freeze VALENCE OR VIRT
 CCEQ_SOL: CVSEPARA=     T
 CCEQ_SOL: LIONISAT=     T
 CCEQ_SOL: REMOVE_CORE =  F



 ----- COUPLED CLUSTER RESPONSE SOLVER -----

    Iter  #Vectors  time (min)   residual
    --------------------------------------
 CCRED CVS/IONIS sigma_                     1 
 project out valence occupied or virtual
      1       1         1.84     0.22E+01
 CCRED CVS/IONIS sigma_                     2 
 project out valence occupied or virtual
      2       1         1.82     0.40E+00
 CCRED CVS/IONIS sigma_                     3 
 project out valence occupied or virtual
      3       1         1.75     0.50E-01
 CCRED CVS/IONIS sigma_                     4 
 project out valence occupied or virtual
                    -1  vectors with norm le:  1.000000000000000E-035  REMOVED

 CCORT,**WARNING**  number vectors added is zero after check for vector norm , NBADD :    0

 CCORT, number vectors added is zero , NBADD :    0

 CCORT, number vectors added is zero , NBADD :    0

 CCORT, number vectors added is zero , NBADD :    0

 CCORT, number vectors added is zero , NBADD :    0

 *** MICROITERATIONS STOPPED DUE TO LINEAR DEPENDENCE BETWEEN ALL NEW TRIAL VECTORS
                     0  trial vectors converged
  LINEAR DEPENDENCE BETWEEN                     1  NON CONVERGED TRIAL VECTORS
      4       1         1.65     0.55E-02

 ***  CCEQ_SOL -MICROITERATIONS STOPPED  
     LINEAR DEPENDENCE BETWEEN ALL NEW TRIAL VECTORS
    --------------------------------------
    converged in  4 iterations
    threshold:    0.10E-08


         Routine          Time (min)
         ---------------------------
         CC_TRDRV            7.07
         CCRED               0.03
         CCNEX               0.05
         ---------------------------
         Total time          7.15


  Total CPU  time used in CCEQ_SOLV:  7 minutes  9 seconds
  Total wall time used in CCEQ_SOLV:  7 minutes 20 seconds


 xxxxxxxxxxxxxxxxxxxxxxxxxxxxxxxxxxxxx

 
 Solution of CC response equations completed.
 

 *******************************************************************
 *                                                                 *
 *--------  OUTPUT FROM COUPLED CLUSTER LINEAR RESPONSE   ---------*
 *                                                                 *
 *--------      CALCULATION OF SECOND ORDER RESIDUES      ---------*
 *                                                                 *
 *******************************************************************



                  +---------------------------------------------+
                  ! CC_SOPR: Calculation of CCSD       Residues !
                  +---------------------------------------------+

 Doing the Mf*CsiA
 Doing the Mf*CsiA
 Doing the Mf*CsiA


 CCSD  Right transition moments in atomic units:
 -----------------------------------------------

  1      15.121282  <XDIPLEN |f> =       0.00000005
  1      15.121282  <YDIPLEN |f> =      -0.00000005
  1      15.121282  <ZDIPLEN |f> =       0.00000000


 CCSD  Left  transition moments in atomic units:
 -----------------------------------------------

  1      15.121282  <f|XDIPLEN > =       0.00000002
  1      15.121282  <f|YDIPLEN > =      -0.00000002
  1      15.121282  <f|ZDIPLEN > =       0.00000000


 CCSD  linear response residue property in atomic units:
 -------------------------------------------------------

 RES{<<XDIPLEN ,XDIPLEN >>(15.121282)} =     0.00000000 (   0.00000003)
 RES{<<XDIPLEN ,YDIPLEN >>(15.121282)} =    -0.00000000 (  -0.00000003)
 RES{<<XDIPLEN ,ZDIPLEN >>(15.121282)} =     0.00000000 (   0.00000001)
 RES{<<YDIPLEN ,XDIPLEN >>(15.121282)} =    -0.00000000 (  -0.00000003)
 RES{<<YDIPLEN ,YDIPLEN >>(15.121282)} =     0.00000000 (   0.00000003)
 RES{<<YDIPLEN ,ZDIPLEN >>(15.121282)} =    -0.00000000 (  -0.00000001)
 RES{<<ZDIPLEN ,XDIPLEN >>(15.121282)} =     0.00000000 (   0.00000001)
 RES{<<ZDIPLEN ,YDIPLEN >>(15.121282)} =    -0.00000000 (  -0.00000001)
 RES{<<ZDIPLEN ,ZDIPLEN >>(15.121282)} =     0.00000000 (   0.00000000)


 CCSD  Transition strength matrix for state nr.  1 of symmetry 1
 CCSD  excitation energy:15.12128153

 Gauge: length

               Column   1     Column   2     Column   3
       1     1.219702D-15  -1.137064D-15   8.384546D-17
       2    -1.137064D-15   1.060025D-15  -7.816290D-17
       3     8.384546D-17  -7.816290D-17   5.760376D-18
    ==== End of matrix output ====

 Principal values of diagonalized transition strength matrix:

             a.u.               
 1       0.00000000
 2       0.00000000
 3       0.00000000

 Principal axis of diagonalized transition strength matrix:


               Column   1     Column   2     Column   3
       1       1.00000000     0.00000000     0.00000000
       2       0.00000000     1.00000000     0.00000000
       3       0.00000000     0.00000000     1.00000000
    ==== End of matrix output ====


 CCSD   oscillator strength matrix for state nr.  1 of symmetry 1
 CCSD  excitation energy:15.12128153


               Column   1     Column   2     Column   3
       1     1.229564D-14  -1.146258D-14   8.452338D-16
       2    -1.146258D-14   1.068595D-14  -7.879488D-16
       3     8.452338D-16  -7.879488D-16   5.806951D-17
    ==== End of matrix output ====

 Principal values of diagonalized oscillator strength matrix:

             a.u.               
 1       0.00000000
 2       0.00000000
 3       0.00000000

 Principal axis of diagonalized oscillator strength matrix:


               Column   1     Column   2     Column   3
       1       1.00000000     0.00000000     0.00000000
       2       0.00000000     1.00000000     0.00000000
       3       0.00000000     0.00000000     1.00000000
    ==== End of matrix output ====

  Total time for      9 linear response residues:       3.09 seconds.
  

 *******************************************************************************
 *******************************************************************************
 *                                                                             *
 *                                                                             *
 *                   SUMMARY OF COUPLED CLUSTER CALCULATION                    *
 *                                                                             *
 *                                                                             *
 *******************************************************************************
 *******************************************************************************

                                                                                
                                                                                
            Total SCF   energy:                  -361.2096233626                
            Total MP2   energy:                  -362.3199112861                
            Total CCSD  energy:                  -362.3604285046                
                                                                                
                                                                                
            Total SCF   energy:                  -361.2096233626                
            Total RSTAR energy:                  -362.3604285046                
            Total CCSD  energy:                  -362.3605610382                
                                                                                
                                                                                
            Total SCF   energy:                  -361.2096233626                
            Total RSTAR energy:                  -362.3605610382                
            Total CCSD  energy:                  -362.3605604657                
                                                                                
                                                                                
            Total SCF   energy:                  -361.2096233626                
            Total RSTAR energy:                  -362.3605604657                
            Total CCSD  energy:                  -362.3605605357                
                                                                                
                                                                                
            Total SCF   energy:                  -361.2096233626                
            Total RSTAR energy:                  -362.3605605357                
            Total CCSD  energy:                  -362.3605605359                
                                                                                
                                                                                
            Total SCF   energy:                  -361.2096233626                
            Total RSTAR energy:                  -362.3605605359                
            Total CCSD  energy:                  -362.3605605359                
            CCSD Total  energy:                  -362.7957559551                
            CCSD E(QM/MM)     :                    -0.4314892158                
                                                                                
                                                                                
                                                                                
 +=============================================================================+
 |  sym. | Exci.  |        CCSD       Excitation energies            | ||T1||  |
 |(spin, |        +------------------------------------------------------------+
 | spat) |        |     Hartree    |       eV.      |     cm-1       |    %    |
 +=============================================================================+
 | ^1A   |    1   |    15.1212815  |     411.47100  |   3318737.658  |  87.94  |
 +=============================================================================+
                                                                                
                                                                                
     Total energies in Hartree:                                                 
             1 ^1A       -347.2429852124                                        
                                                                                
                                                                                
 +=============================================================================+
 |  sym. | Exci.  |        CCSD       Length   Gauge Oscillator Strength       |
 |(spin, |        +------------------------------------------------------------+
 | spat) |        | Dipole Strength(a.u.) | Oscillator strength  | Direction   |
 +=============================================================================+
 | ^1A   |    1   |        0.0000000      |      0.0000000       |    -        |
 +=============================================================================+

  1 a.u. =        27.21138 eV.  
  1 a.u. =    219474.62934 cm-1.
  

 *******************************************************************************
 *******************************************************************************
 *                                                                             *
 *                                                                             *
 *                      END OF COUPLED CLUSTER CALCULATION                     *
 *                                                                             *
 *                                                                             *
 *******************************************************************************
 *******************************************************************************


 CPU and wall time for CC :    7897.180   11175.811

 
     Date and time (Linux)  : Sun Dec  2 20:13:16 2018
     Host name              : n-62-23-21                              


                      .-------------------------------------.
                      | End of Coupled Cluster Section (CC) |
                      `-------------------------------------'

  Total CPU  time used in DALTON:   2 hours 13 minutes 55 seconds
  Total wall time used in DALTON:   3 hours  9 minutes 35 seconds

 
     Date and time (Linux)  : Sun Dec  2 20:13:16 2018
     Host name              : n-62-23-21                              
  

 +---------------------------------------------------------+ 
 | List of selected calculated molecular properties (a.u.) | 
 +---------------------------------------------------------+ 

  Properties are read from unit number                      4

 CCSD       properties :
 #  1 1 CCSD/MM  Ground state Energy =    -362.7957559551
 #  2 1 E_QM/MM  Ground state Energy =      -0.4314892158
 #  3 1 Sy: 1 Sp: 1 Exc:  1 E_tot:   -347.2429852124 w:     15.1212815269 E_grs:   -362.3642667393
 #  4 1 Exctot   Excited state Energy =    -347.2429852124
 #  5 1 |<O|XDIPLEN |i(15.121282)>| =     0.00000003
 #  7 1 |<O|YDIPLEN |i(15.121282)>| =     0.00000003
 #  9 1 |<O|ZDIPLEN |i(15.121282)>| =     0.00000000

 THE_END   
