

     ************************************************************************
     *************** Dalton - An Electronic Structure Program ***************
     ************************************************************************

    This is output from DALTON release Dalton2017.alpha (2016)
         ( Web site: http://daltonprogram.org )

   ----------------------------------------------------------------------------

    NOTE:
     
    Dalton is an experimental code for the evaluation of molecular
    properties using (MC)SCF, DFT, CI, and CC wave functions.
    The authors accept no responsibility for the performance of
    the code or for the correctness of the results.
     
    The code (in whole or part) is provided under a licence and
    is not to be reproduced for further distribution without
    the written permission of the authors or their representatives.
     
    See the home page "http://daltonprogram.org" for further information.
     
    If results obtained with this code are published,
    the appropriate citations would be both of:
     
       K. Aidas, C. Angeli, K. L. Bak, V. Bakken, R. Bast,
       L. Boman, O. Christiansen, R. Cimiraglia, S. Coriani,
       P. Dahle, E. K. Dalskov, U. Ekstroem,
       T. Enevoldsen, J. J. Eriksen, P. Ettenhuber, B. Fernandez,
       L. Ferrighi, H. Fliegl, L. Frediani, K. Hald, A. Halkier,
       C. Haettig, H. Heiberg, T. Helgaker, A. C. Hennum,
       H. Hettema, E. Hjertenaes, S. Hoest, I.-M. Hoeyvik,
       M. F. Iozzi, B. Jansik, H. J. Aa. Jensen, D. Jonsson,
       P. Joergensen, J. Kauczor, S. Kirpekar,
       T. Kjaergaard, W. Klopper, S. Knecht, R. Kobayashi, H. Koch,
       J. Kongsted, A. Krapp, K. Kristensen, A. Ligabue,
       O. B. Lutnaes, J. I. Melo, K. V. Mikkelsen, R. H. Myhre,
       C. Neiss, C. B. Nielsen, P. Norman, J. Olsen,
       J. M. H. Olsen, A. Osted, M. J. Packer, F. Pawlowski,
       T. B. Pedersen, P. F. Provasi, S. Reine, Z. Rinkevicius,
       T. A. Ruden, K. Ruud, V. Rybkin, P. Salek, C. C. M. Samson,
       A. Sanchez de Meras, T. Saue, S. P. A. Sauer,
       B. Schimmelpfennig, K. Sneskov, A. H. Steindal,
       K. O. Sylvester-Hvid, P. R. Taylor, A. M. Teale,
       E. I. Tellgren, D. P. Tew, A. J. Thorvaldsen, L. Thoegersen,
       O. Vahtras, M. A. Watson, D. J. D. Wilson, M. Ziolkowski
       and H. Agren,
       "The Dalton quantum chemistry program system",
       WIREs Comput. Mol. Sci. 2014, 4:269–284 (doi: 10.1002/wcms.1172)
     
    and
     
       Dalton, a Molecular Electronic Structure Program,
       Release Dalton2017.alpha (2016), see http://daltonprogram.org
   ----------------------------------------------------------------------------

    Authors in alphabetical order (major contribution(s) in parenthesis):

  Kestutis Aidas,           Vilnius University,           Lithuania   (QM/MM)
  Celestino Angeli,         University of Ferrara,        Italy       (NEVPT2)
  Keld L. Bak,              UNI-C,                        Denmark     (AOSOPPA, non-adiabatic coupling, magnetic properties)
  Vebjoern Bakken,          University of Oslo,           Norway      (DALTON; geometry optimizer, symmetry detection)
  Radovan Bast,             UiT The Arctic U. of Norway,  Norway      (DALTON installation and execution frameworks)
  Pablo Baudin,             University of Valencia,       Spain       (Cholesky excitation energies)
  Linus Boman,              NTNU,                         Norway      (Cholesky decomposition and subsystems)
  Ove Christiansen,         Aarhus University,            Denmark     (CC module)
  Renzo Cimiraglia,         University of Ferrara,        Italy       (NEVPT2)
  Sonia Coriani,            University of Trieste,        Italy       (CC module, MCD in RESPONS)
  Janusz Cukras,            University of Trieste,        Italy       (MChD in RESPONS)
  Paal Dahle,               University of Oslo,           Norway      (Parallelization)
  Erik K. Dalskov,          UNI-C,                        Denmark     (SOPPA)
  Thomas Enevoldsen,        Univ. of Southern Denmark,    Denmark     (SOPPA)
  Janus J. Eriksen,         Aarhus University,            Denmark     (Polarizable embedding model, TDA)
  Rasmus Faber,             University of Copenhagen,     Denmark     (Vib.avg. NMR with SOPPA, parallel AO-SOPPA)
  Berta Fernandez,          U. of Santiago de Compostela, Spain       (doublet spin, ESR in RESPONS)
  Lara Ferrighi,            Aarhus University,            Denmark     (PCM Cubic response)
  Heike Fliegl,             University of Oslo,           Norway      (CCSD(R12))
  Luca Frediani,            UiT The Arctic U. of Norway,  Norway      (PCM)
  Bin Gao,                  UiT The Arctic U. of Norway,  Norway      (Gen1Int library)
  Christof Haettig,         Ruhr-University Bochum,       Germany     (CC module)
  Kasper Hald,              Aarhus University,            Denmark     (CC module)
  Asger Halkier,            Aarhus University,            Denmark     (CC module)
  Frederik Beyer Hansen,    University of Copenhagen,     Denmark     (Parallel AO-SOPPA)
  Erik D. Hedegaard,        Univ. of Southern Denmark,    Denmark     (Polarizable embedding model, QM/MM)
  Hanne Heiberg,            University of Oslo,           Norway      (geometry analysis, selected one-electron integrals)
  Trygve Helgaker,          University of Oslo,           Norway      (DALTON; ABACUS, ERI, DFT modules, London, and much more)
  Alf Christian Hennum,     University of Oslo,           Norway      (Parity violation)
  Hinne Hettema,            University of Auckland,       New Zealand (quadratic response in RESPONS; SIRIUS supersymmetry)
  Eirik Hjertenaes,         NTNU,                         Norway      (Cholesky decomposition)
  Pi A. B. Haase,           University of Copenhagen,     Denmark     (Triplet AO-SOPPA)
  Maria Francesca Iozzi,    University of Oslo,           Norway      (RPA)
  Brano Jansik              Technical Univ. of Ostrava    Czech Rep.  (DFT cubic response)
  Hans Joergen Aa. Jensen,  Univ. of Southern Denmark,    Denmark     (DALTON; SIRIUS, RESPONS, ABACUS modules, London, and much more)
  Dan Jonsson,              UiT The Arctic U. of Norway,  Norway      (cubic response in RESPONS module)
  Poul Joergensen,          Aarhus University,            Denmark     (RESPONS, ABACUS, and CC modules)
  Maciej Kaminski,          University of Warsaw,         Poland      (CPPh in RESPONS)
  Joanna Kauczor,           Linkoeping University,        Sweden      (Complex polarization propagator (CPP) module)
  Sheela Kirpekar,          Univ. of Southern Denmark,    Denmark     (Mass-velocity & Darwin integrals)
  Wim Klopper,              KIT Karlsruhe,                Germany     (R12 code in CC, SIRIUS, and ABACUS modules)
  Stefan Knecht,            ETH Zurich,                   Switzerland (Parallel CI and MCSCF)
  Rika Kobayashi,           Australian National Univ.,    Australia   (DIIS in CC, London in MCSCF)
  Henrik Koch,              NTNU,                         Norway      (CC module, Cholesky decomposition)
  Jacob Kongsted,           Univ. of Southern Denmark,    Denmark     (Polarizable embedding model, QM/MM)
  Andrea Ligabue,           University of Modena,         Italy       (CTOCD, AOSOPPA)
  Nanna H. List             Univ. of Southern Denmark,    Denmark     (Polarizable embedding model)
  Ola B. Lutnaes,           University of Oslo,           Norway      (DFT Hessian)
  Juan I. Melo,             University of Buenos Aires,   Argentina   (LRESC, Relativistic Effects on NMR Shieldings)
  Kurt V. Mikkelsen,        University of Copenhagen,     Denmark     (MC-SCRF and QM/MM)
  Rolf H. Myhre,            NTNU,                         Norway      (Cholesky, subsystems and ECC2)
  Christian Neiss,          Univ. Erlangen-Nuernberg,     Germany     (CCSD(R12))
  Christian B. Nielsen,     University of Copenhagen,     Denmark     (QM/MM)
  Patrick Norman,           Linkoeping University,        Sweden      (Cubic response and complex frequency response in RESPONS)
  Jeppe Olsen,              Aarhus University,            Denmark     (SIRIUS CI/density modules)
  Jogvan Magnus H. Olsen,   Univ. of Southern Denmark,    Denmark     (Polarizable embedding model, QM/MM)
  Anders Osted,             Copenhagen University,        Denmark     (QM/MM)
  Martin J. Packer,         University of Sheffield,      UK          (SOPPA)
  Filip Pawlowski,          Kazimierz Wielki University,  Poland      (CC3)
  Morten N. Pedersen,       Univ. of Southern Denmark,    Denmark     (Polarizable embedding model)
  Thomas B. Pedersen,       University of Oslo,           Norway      (Cholesky decomposition)
  Patricio F. Provasi,      University of Northeastern,   Argentina   (Analysis of coupling constants in localized orbitals)
  Zilvinas Rinkevicius,     KTH Stockholm,                Sweden      (open-shell DFT, ESR)
  Elias Rudberg,            KTH Stockholm,                Sweden      (DFT grid and basis info)
  Torgeir A. Ruden,         University of Oslo,           Norway      (Numerical derivatives in ABACUS)
  Kenneth Ruud,             UiT The Arctic U. of Norway,  Norway      (DALTON; ABACUS magnetic properties and much more)
  Pawel Salek,              KTH Stockholm,                Sweden      (DALTON; DFT code)
  Claire C. M. Samson       University of Karlsruhe       Germany     (Boys localization, r12 integrals in ERI)
  Alfredo Sanchez de Meras, University of Valencia,       Spain       (CC module, Cholesky decomposition)
  Trond Saue,               Paul Sabatier University,     France      (direct Fock matrix construction)
  Stephan P. A. Sauer,      University of Copenhagen,     Denmark     (SOPPA(CCSD), SOPPA prop., AOSOPPA, vibrational g-factors)
  Bernd Schimmelpfennig,    Forschungszentrum Karlsruhe,  Germany     (AMFI module)
  Kristian Sneskov,         Aarhus University,            Denmark     (Polarizable embedding model, QM/MM)
  Arnfinn H. Steindal,      UiT The Arctic U. of Norway,  Norway      (parallel QM/MM, Polarizable embedding model)
  Casper Steinmann,         Univ. of Southern Denmark,    Denmark     (QFIT, Polarizable embedding model)
  K. O. Sylvester-Hvid,     University of Copenhagen,     Denmark     (MC-SCRF)
  Peter R. Taylor,          VLSCI/Univ. of Melbourne,     Australia   (Symmetry handling ABACUS, integral transformation)
  Andrew M. Teale,          University of Nottingham,     England     (DFT-AC, DFT-D)
  David P. Tew,             University of Bristol,        England     (CCSD(R12))
  Olav Vahtras,             KTH Stockholm,                Sweden      (triplet response, spin-orbit, ESR, TDDFT, open-shell DFT)
  David J. Wilson,          La Trobe University,          Australia   (DFT Hessian and DFT magnetizabilities)
  Hans Agren,               KTH Stockholm,                Sweden      (SIRIUS module, RESPONS, MC-SCRF solvation model)
 --------------------------------------------------------------------------------

     Date and time (Linux)  : Wed Nov 28 16:57:10 2018
     Host name              : n-62-29-9                               

 * Work memory size             :  1280000000 =  9.537 gigabytes.

 * Directories for basis set searches:
   1) /zhome/d7/7/119775/My_Codes/dalton-private/build2016/basis/diffs
   2) /zhome/37/3/129401/NH3NH4/CCSD/AIMD_SAMPLING/nh4_4h2o_nd
   3) /zhome/9a/4/124800/source/dalton/build-mlcc/basis


Compilation information
-----------------------

 Who compiled             | rfaber
 Host                     | hpclogin1
 System                   | Linux-2.6.32-696.1.1.el6.x86_64
 CMake generator          | Unix Makefiles
 Processor                | x86_64
 64-bit integers          | ON
 MPI                      | OFF
 Fortran compiler         | /opt/intel/2016update2/compilers_and_libraries_201
                          | 6.2.181/linux/bin/intel64/ifort
 Fortran compiler version | ifort (IFORT) 16.0.2 20160204
 C compiler               | /opt/intel/2016update2/compilers_and_libraries_201
                          | 6.2.181/linux/bin/intel64/icc
 C compiler version       | icc (ICC) 16.0.2 20160204
 C++ compiler             | /opt/intel/2016update2/compilers_and_libraries_201
                          | 6.2.181/linux/bin/intel64/icpc
 C++ compiler version     | icpc (ICC) 16.0.2 20160204
 Static linking           | OFF
 Last Git revision        | bb4d1599ca5680a9f3980451fc8bbefdba436d59
 Git branch               | mlcc
 Configuration time       | 2017-06-13 16:11:03.928841


   Content of the .dal input file
 ----------------------------------

**DALTON
.RUN WAVE FUNCTIONS
*QMMM
.QMMM
**INTEGRALS
.DIPLEN
**WAVE FUNCTIONS
.CC
*PRINT
!To check the origin of excit
.PRINTL
   0 11
*SCF INP
.THRESH
1.0D-7
!*ORBITAL INPUT
!.MOSTART
!NEWORB
*CC INP
!.RESTART
.CCSD
.THRLEQ
 1.0D-9
.THRENR
 1.0D-10
.FROIMP
4
0
.PRINT
 1
.MAX IT
 1200
.MAXRED
 1200
.MXLRV
1199
*CCSLV
.CCMM
.MXSLIT
200
.MXINIT
4 5
*CCEXCI
.NCCEXC
 1
.IONISATION
1
1
.CVSEPARA
1
1
*CCLRSD
.DIPOLE
**END OF DALTON INPUT


   Content of the .mol file
 ----------------------------

ATOMBASIS


Atomtypes=5 Charge=1 Nosymm Angstrom
   7.00000    1    Basis=6-311G**
N          0.000000        0.000000        0.000000
   1.00000    4    Basis=6-311G**
H         -0.191618        0.619984       -0.790999
H          1.012644        0.036851        0.115007
H         -0.242656       -0.959234       -0.274762
H         -0.608548        0.095891        0.887461
   8.00000    4    Basis=6-311G**
O         -0.972515        0.413690        2.825702
O         -0.132800        2.243274       -1.773312
O         -0.787115       -2.796785        0.200054
O          1.935134       -0.826847       -1.747140
   1.00000    8    Basis=6-311G**
H         -0.319726        1.215962        2.891031
H         -1.857086        0.769443        2.892240
H          0.252105        2.754324       -1.029825
H          0.657300        2.226338       -2.442516
H         -0.396423       -2.685761        1.077341
H         -1.672801       -3.161763        0.375265
H          2.342539       -1.561365       -1.228529
H          2.731751       -0.359247       -2.151245
   0.00000    1    Basis=diffs
X          0.000000        0.000000        0.000000


       *******************************************************************
       *********** Output from DALTON general input processing ***********
       *******************************************************************

 --------------------------------------------------------------------------------
   Overall default print level:    0
   Print level for DALTON.STAT:    1

    HERMIT 1- and 2-electron integral sections will be executed
    "Old" integral transformation used (limited to max 255 basis functions)
    Wave function sections will be executed (SIRIUS module)
 --------------------------------------------------------------------------------


 Changes of defaults for *QMMM  :
 --------------------------------

 +------------------+
 |  WORD: | CHANGE: |
 +------------------+
 |   QMMM |       T |
 +------------------+
 


   ****************************************************************************
   *************** Output of molecule and basis set information ***************
   ****************************************************************************


    The two title cards from your ".mol" input:
    ------------------------------------------------------------------------
 1:                                                                         
 2:                                                                         
    ------------------------------------------------------------------------

  Coordinates are entered in Angstrom and converted to atomic units.
          - Conversion factor : 1 bohr = 0.52917721 A

  Atomic type no.    1
  --------------------
  Nuclear charge:   7.00000
  Number of symmetry independent centers:    1
  Number of basis sets to read;    2
  The basis set is "6-311G**" from the basis set library.
  Basis set file used for this atomic type with Z =   7 :
     "/zhome/9a/4/124800/source/dalton/build-mlcc/basis/6-311G**"

  Info about the basis set file: your basis has no documentation.
  Basis set: 6-311G**                                                                        

  Atomic type no.    2
  --------------------
  Nuclear charge:   1.00000
  Number of symmetry independent centers:    4
  Number of basis sets to read;    2
  The basis set is "6-311G**" from the basis set library.
  Basis set file used for this atomic type with Z =   1 :
     "/zhome/9a/4/124800/source/dalton/build-mlcc/basis/6-311G**"

  Info about the basis set file: your basis has no documentation.
  Basis set: 6-311G**                                                                        

  Atomic type no.    3
  --------------------
  Nuclear charge:   8.00000
  Number of symmetry independent centers:    4
  Number of basis sets to read;    2
  The basis set is "6-311G**" from the basis set library.
  Basis set file used for this atomic type with Z =   8 :
     "/zhome/9a/4/124800/source/dalton/build-mlcc/basis/6-311G**"

  Info about the basis set file: your basis has no documentation.
  Basis set: 6-311G**                                                                        

  Atomic type no.    4
  --------------------
  Nuclear charge:   1.00000
  Number of symmetry independent centers:    8
  Number of basis sets to read;    2
  The basis set is "6-311G**" from the basis set library.
  Basis set file used for this atomic type with Z =   1 :
     "/zhome/9a/4/124800/source/dalton/build-mlcc/basis/6-311G**"

  Info about the basis set file: your basis has no documentation.
  Basis set: 6-311G**                                                                        

  Atomic type no.    5
  --------------------
  Nuclear charge:   0.00000
  Number of symmetry independent centers:    1
  Number of basis sets to read;    2
  The basis set is "diffs" from the basis set library.
  Basis set file used for this atomic type with Z =   0 :
     "/zhome/9a/4/124800/source/dalton/build-mlcc/basis/diffs"

  Info about the basis set file: your basis has no documentation.
  Basis set: diffs                                                                           


                         SYMGRP: Point group information
                         -------------------------------

@    Point group: C1 


                                 Isotopic Masses
                                 ---------------

                           N          14.003074
                           H           1.007825
                           H           1.007825
                           H           1.007825
                           H           1.007825
                           O          15.994915
                           O          15.994915
                           O          15.994915
                           O          15.994915
                           H           1.007825
                           H           1.007825
                           H           1.007825
                           H           1.007825
                           H           1.007825
                           H           1.007825
                           H           1.007825
                           H           1.007825

                       Total mass:    90.076634 amu
                       Natural abundance:  98.500 %

 Center-of-mass coordinates (a.u.):    0.050431   -0.345699   -0.159224


  Atoms and basis sets
  --------------------

  Number of atom types :    5
  Total number of atoms:   18

  label    atoms   charge   prim   cont     basis
  ----------------------------------------------------------------------
  N           1    7.0000    31    18      [11s5p1d|4s3p1d]                                   
  H           4    1.0000     8     6      [5s1p|3s1p]                                        
  O           4    8.0000    31    18      [11s5p1d|4s3p1d]                                   
  H           8    1.0000     8     6      [5s1p|3s1p]                                        
  X           1    0.0000     1     1      [1s|1s]                                            
  ----------------------------------------------------------------------
  total:     18   51.0000   252   163
  ----------------------------------------------------------------------
  Spherical harmonic basis used.

  Threshold for neglecting AO integrals:  1.00D-12


  Cartesian Coordinates (a.u.)
  ----------------------------

  Total number of coordinates:   54
  N       :     1  x   0.0000000000    2  y   0.0000000000    3  z   0.0000000000
  H       :     4  x  -0.3621055406    5  y   1.1715999619    6  z  -1.4947714751
  H       :     7  x   1.9136198221    8  y   0.0696382974    9  z   0.2173317325
  H       :    10  x  -0.4585533826   11  y  -1.8126895498   12  z  -0.5192249296
  H       :    13  x  -1.1499890539   14  y   0.1812077279   15  z   1.6770582366
  O       :    16  x  -1.8377870024   17  y   0.7817608006   18  z   5.3398028908
  O       :    19  x  -0.2509556294   20  y   4.2391734833   21  z  -3.3510740142
  O       :    22  x  -1.4874317789   23  y  -5.2851576805   24  z   0.3780472702
  O       :    25  x   3.6568732752   26  y  -1.5625143773   27  z  -3.3016161020
  H       :    28  x  -0.6041945750   29  y   2.2978351584   30  z   5.4632568089
  H       :    31  x  -3.5093839306   32  y   1.4540365388   33  z   5.4655414878
  H       :    34  x   0.4764094047   35  y   5.2049180195   36  z  -1.9460872067
  H       :    37  x   1.2421169820   38  y   4.2071690817   39  z  -4.6156862959
  H       :    40  x  -0.7491308996   41  y  -5.0753527272   42  z   2.0358794332
  H       :    43  x  -3.1611357516   44  y  -5.9748661421   45  z   0.7091480743
  H       :    46  x   4.4267571471   47  y  -2.9505522312   48  z  -2.3215833466
  H       :    49  x   5.1622612317   50  y  -0.6788784412   51  z  -4.0652638778
  X       :    52  x   0.0000000000   53  y   0.0000000000   54  z   0.0000000000

  Max    interatomic separation is    6.9114 Angstrom (   13.0607 Bohr)
  between atoms   17 and   11, "H     " and "H     ".

  Min HX interatomic separation is    0.9557 Angstrom (    1.8061 Bohr)

  Min YX interatomic separation is    2.7351 Angstrom (    5.1686 Bohr)


  Bond distances (Angstrom):
  --------------------------

                  atom 1     atom 2       distance
                  ------     ------       --------
  bond distance:  H          N            1.023121
  bond distance:  H          N            1.019820
  bond distance:  H          N            1.026891
  bond distance:  H          N            1.080330
  bond distance:  H          O            1.036360
  bond distance:  H          O            0.955748
  bond distance:  H          O            0.980865
  bond distance:  H          O            1.035557
  bond distance:  H          O            0.966747
  bond distance:  H          O            0.973831
  bond distance:  H          O            0.987144
  bond distance:  H          O            1.008241


  Bond angles (degrees):
  ----------------------

                  atom 1     atom 2     atom 3         angle
                  ------     ------     ------         -----
  bond angle:     H          N          H            104.552
  bond angle:     H          N          H            108.357
  bond angle:     H          N          H            118.412
  bond angle:     H          N          H            107.372
  bond angle:     H          N          H            117.612
  bond angle:     H          N          H             99.765
  bond angle:     H          O          H            106.884
  bond angle:     H          O          H            101.476
  bond angle:     H          O          H            104.319
  bond angle:     H          O          H            103.272




 Principal moments of inertia (u*A**2) and principal axes
 --------------------------------------------------------

   IA     284.504544         -0.419901   -0.371206    0.828184
   IB     378.232492         -0.243167    0.925181    0.291392
   IC     574.846518          0.874387    0.079032    0.478750


 Rotational constants
 --------------------

               A                   B                   C

           1776.3477           1336.1597            879.1547 MHz
            0.059253            0.044569            0.029325 cm-1


@  Nuclear repulsion energy :  200.053555942310 Hartree

  Number of floating/multiple basis set orbitals :    1


                     .---------------------------------------.
                     | Starting in Integral Section (HERMIT) |
                     `---------------------------------------'



 ***************************************************************************************
 ****************** Output from **INTEGRALS input processing (HERMIT) ******************
 ***************************************************************************************



    *************************************************************************
    ****************** Output from HERMIT input processing ******************
    *************************************************************************


 Default print level:        1

 * Nuclear model: Point charge

 Calculation of one- and two-electron Hamiltonian integrals.

 The following one-electron property integrals are calculated as requested:
          - overlap integrals
          - dipole length integrals

 Center of mass  (bohr):      0.050431409716     -0.345698571075     -0.159223846775
 Operator center (bohr):      0.000000000000      0.000000000000      0.000000000000
 Gauge origin    (bohr):      0.000000000000      0.000000000000      0.000000000000
 Dipole origin   (bohr):      0.000000000000      0.000000000000      0.000000000000
 
  *********************************** 
  QMMM electrostatic potential: 
  Multipole order                                    0
  Isotropic polarization  
  *********************************** 
 
  ---------------- 
  QMMM information 
  ---------------- 
 
  MM coordinates in au 
  -------------------- 
     1     -6.681612      4.272346     -0.989854
     2     -6.504679      2.462793     -1.571305
     3     -5.769786      5.210396     -2.425446
     4    -10.834021      5.689674     -4.217213
     5    -10.779181      7.426728     -3.681532
     6     -9.776999      4.979867     -2.878656
     7      2.612208      6.241272      0.402328
     8      2.218263      8.157347      0.019974
     9      4.368501      6.224393     -0.298877
    10     -9.545889     -0.131946      0.178298
    11    -10.479540     -1.556033      0.759878
    12     -8.122366     -0.280471      1.338068
    13      1.550775     11.136944     -0.172950
    14      0.870378     11.845176      1.441836
    15      1.963862     12.456016     -1.306791
    16      4.267827     -6.862622    -10.302415
    17      5.465734     -5.548750     -9.940154
    18      4.632465     -7.482879    -12.050508
    19      1.448762      4.398704      5.132504
    20      2.747153      4.826058      6.483170
    21      1.818825      5.206836      3.408728
    22      7.516388      5.847705     -1.499677
    23      8.927792      5.400964     -0.283582
    24      7.871643      7.434751     -2.287893
    25     -9.281292     -9.139755      8.205066
    26    -10.005907    -10.742008      7.723904
    27     -9.833420     -8.890967      9.944506
    28      3.235419      0.588132    -11.116049
    29      1.868272     -0.594546    -10.989169
    30      4.711873     -0.401247    -10.296626
    31      5.980454     -8.704249      8.636536
    32      7.404176     -8.132966      7.560318
    33      6.576273    -10.285381      9.429422
    34     -4.146430      6.164736     -5.289763
    35     -4.674143      5.398840     -6.834932
    36     -2.587989      5.352763     -4.747568
    37     11.275782      4.298265      1.676958
    38     10.208472      3.556920      2.983301
    39     12.303621      2.832690      1.133469
    40      2.209209    -10.536875     -7.448497
    41      3.185642     -9.362590     -8.515977
    42      2.020529     -9.421504     -5.872658
    43      0.433543     -3.633221     -7.873370
    44      1.570102     -4.726245     -8.605202
    45      1.372916     -2.876547     -6.446077
    46    -10.646175     -0.158843     -4.907974
    47     -9.491038      0.685222     -6.044168
    48    -10.137235      0.654643     -3.334618
    49      7.033253     -2.555463     -9.099627
    50      7.898755     -3.283530     -7.613219
    51      8.404547     -2.207056    -10.307237
    52      6.136211      9.653938      4.929375
    53      4.676955      9.361012      3.890349
    54      5.504944     11.161123      5.921440
    55      2.647501      8.451993    -10.143487
    56      2.966558      7.130186     -8.814767
    57      2.547483      9.813665     -8.968495
    58     -7.298243      6.426556      3.807728
    59     -5.569922      6.909610      4.411819
    60     -7.253801      5.326460      2.373766
    61      7.988931      1.536871      5.151015
    62      9.172158      0.282064      5.840214
    63      7.233522      2.226838      6.672073
    64     -3.946481     11.144339     -3.460047
    65     -2.370072     11.086934     -2.638199
    66     -4.272907      9.533113     -4.447289
    67     11.363222     -2.520921      6.832824
    68     10.949784     -4.331231      6.559795
    69     12.844894     -2.075176      5.795850
    70     -4.372586     -6.504702      5.210100
    71     -3.660052     -6.390969      6.929127
    72     -5.934364     -7.467633      5.469463
    73     -4.880777      4.224173    -10.275106
    74     -4.056552      2.490665    -10.012398
    75     -3.537821      5.452366    -10.901577
    76      9.321242     -5.331643     -5.121305
    77      9.317935     -7.107020     -5.862257
    78     11.063677     -5.154547     -4.577331
    79     -9.248305     11.214007     -5.637193
    80     -8.795443     10.917864     -3.908059
    81     -7.695530     11.562170     -6.521360
    82      4.862277     -1.891485      2.690036
    83      3.496513     -2.644581      3.705135
    84      5.921411     -0.755958      3.633904
    85     -9.706998     -7.944053    -10.002832
    86    -11.132048     -8.405867     -8.806768
    87     -8.165762     -8.495534     -9.037545
    88     -0.975157    -11.231816      3.906189
    89     -0.351578    -10.080285      5.270737
    90     -2.385768    -10.493541      2.868642
    91     -7.966184     -5.048035     -3.750967
    92     -8.552443     -3.482081     -4.444305
    93     -7.148671     -5.991197     -5.120581
    94     -1.539864    -10.283650    -10.532755
    95     -1.965476    -12.027782    -10.585165
    96     -0.090752    -10.196397     -9.274899
    97     -3.851082     -0.688737     -8.163229
    98     -5.314749     -1.552094     -8.923168
    99     -2.521651     -1.953586     -8.029089
   100     -3.543414     -2.692618      9.045064
   101     -5.193905     -2.797596      9.843328
   102     -3.264664     -0.938850      9.119346
   103     -6.887568      3.099731      7.914776
   104     -6.050780      3.912680      9.411350
   105     -7.325028      4.571372      6.750875
   106     10.252609     -7.177157      5.368816
   107     10.542191     -6.744835      3.701378
   108     11.791993     -7.921600      6.139560
   109     10.003698    -10.344374     -7.220099
   110      9.216646    -11.406427     -8.545721
   111     11.639180    -11.260695     -6.713296
   112      0.788101     -7.884591      8.185266
   113      2.642557     -8.288488      8.151018
   114      0.180529     -8.839215      9.764366
   115     10.073191      6.754951     10.561846
   116     11.230701      5.620922     11.652257
   117     11.132925      7.605112      9.184719
   118    -10.544615     -5.145747      1.184019
   119     -9.183689     -5.500278      2.374983
   120     -9.782385     -5.740266     -0.402523
   121      4.961750      3.742895      8.876083
   122      6.021140      4.821767     10.012718
   123      4.245005      2.459507     10.191348
   124      0.727868     -3.567540      5.318164
   125      0.425117     -4.707128      6.702159
   126     -0.221381     -1.988874      5.650323
   127     -2.121633      7.607712     11.165607
   128     -2.533597      7.896517      9.349089
   129     -0.230407      7.909379     11.585057
   130      7.414318      1.937977     -4.548937
   131      7.594467      3.528612     -3.580286
   132      9.152072      1.537470     -5.073214
   133    -10.480045      4.014387     -9.510158
   134     -8.730329      4.147238    -10.147939
   135    -10.574267      4.706457     -7.689779
   136     11.287527     -0.559854    -11.684470
   137     11.842292      1.066017    -11.082099
   138     11.458575     -0.728909    -13.506712
   139      3.026360      3.862322     -7.100242
   140      2.628467      2.673762     -8.462120
   141      4.632008      3.155155     -6.634059
   142     -3.102305      7.877845      5.928122
   143     -2.418808      9.527379      5.208055
   144     -1.507710      6.864814      5.481971
   145     -4.910576     -0.519559     -2.893328
   146     -4.603579     -0.898861     -4.741346
   147     -5.502695     -2.089257     -2.045213
   148     -7.130430     -1.141087      4.599724
   149     -6.108440     -2.588008      5.170992
   150     -7.337427      0.113204      6.028761
   151     -5.131689     -8.640366     -7.410888
   152     -4.517269     -9.355906     -5.770876
   153     -3.647532     -8.985697     -8.623404
   154     -7.771829     -3.079681    -10.318729
   155     -8.572540     -4.693961    -10.045595
   156     -9.212814     -1.940764    -10.453959
   157      7.387754     11.038104     11.727535
   158      8.582518      9.654975     11.442859
   159      5.948474     10.086504     12.389644
   160      1.990583     -7.851695     -3.076106
   161      0.530741     -6.837311     -2.850739
   162      3.366515     -6.925835     -2.224183
   163      6.102810     -5.678816     -0.439720
   164      7.453809     -5.203206     -1.631699
   165      5.873494     -4.320498      0.997450
   166    -10.371202      9.936518     -0.245373
   167    -10.044063      8.601149      1.032718
   168    -12.132371     10.414940      0.330294
   169     11.689016      9.330791      6.266022
   170     13.024168      8.552464      5.084057
   171     10.139635      9.763191      5.376220
   172      7.952417    -11.461219     -2.004270
   173      8.551022    -10.800325     -3.614347
   174      7.154125     -9.978344     -1.375186
   175     -5.910451     -9.981146      1.022599
   176     -7.278773    -11.082565      1.613155
   177     -5.430839    -10.752668     -0.739163
 
  MM charges 
  ---------- 
     1     -0.674440
     2      0.337220
     3      0.337220
     4     -0.674440
     5      0.337220
     6      0.337220
     7     -0.674440
     8      0.337220
     9      0.337220
    10     -0.674440
    11      0.337220
    12      0.337220
    13     -0.674440
    14      0.337220
    15      0.337220
    16     -0.674440
    17      0.337220
    18      0.337220
    19     -0.674440
    20      0.337220
    21      0.337220
    22     -0.674440
    23      0.337220
    24      0.337220
    25     -0.674440
    26      0.337220
    27      0.337220
    28     -0.674440
    29      0.337220
    30      0.337220
    31     -0.674440
    32      0.337220
    33      0.337220
    34     -0.674440
    35      0.337220
    36      0.337220
    37     -0.674440
    38      0.337220
    39      0.337220
    40     -0.674440
    41      0.337220
    42      0.337220
    43     -0.674440
    44      0.337220
    45      0.337220
    46     -0.674440
    47      0.337220
    48      0.337220
    49     -0.674440
    50      0.337220
    51      0.337220
    52     -0.674440
    53      0.337220
    54      0.337220
    55     -0.674440
    56      0.337220
    57      0.337220
    58     -0.674440
    59      0.337220
    60      0.337220
    61     -0.674440
    62      0.337220
    63      0.337220
    64     -0.674440
    65      0.337220
    66      0.337220
    67     -0.674440
    68      0.337220
    69      0.337220
    70     -0.674440
    71      0.337220
    72      0.337220
    73     -0.674440
    74      0.337220
    75      0.337220
    76     -0.674440
    77      0.337220
    78      0.337220
    79     -0.674440
    80      0.337220
    81      0.337220
    82     -0.674440
    83      0.337220
    84      0.337220
    85     -0.674440
    86      0.337220
    87      0.337220
    88     -0.674440
    89      0.337220
    90      0.337220
    91     -0.674440
    92      0.337220
    93      0.337220
    94     -0.674440
    95      0.337220
    96      0.337220
    97     -0.674440
    98      0.337220
    99      0.337220
   100     -0.674440
   101      0.337220
   102      0.337220
   103     -0.674440
   104      0.337220
   105      0.337220
   106     -0.674440
   107      0.337220
   108      0.337220
   109     -0.674440
   110      0.337220
   111      0.337220
   112     -0.674440
   113      0.337220
   114      0.337220
   115     -0.674440
   116      0.337220
   117      0.337220
   118     -0.674440
   119      0.337220
   120      0.337220
   121     -0.674440
   122      0.337220
   123      0.337220
   124     -0.674440
   125      0.337220
   126      0.337220
   127     -0.674440
   128      0.337220
   129      0.337220
   130     -0.674440
   131      0.337220
   132      0.337220
   133     -0.674440
   134      0.337220
   135      0.337220
   136     -0.674440
   137      0.337220
   138      0.337220
   139     -0.674440
   140      0.337220
   141      0.337220
   142     -0.674440
   143      0.337220
   144      0.337220
   145     -0.674440
   146      0.337220
   147      0.337220
   148     -0.674440
   149      0.337220
   150      0.337220
   151     -0.674440
   152      0.337220
   153      0.337220
   154     -0.674440
   155      0.337220
   156      0.337220
   157     -0.674440
   158      0.337220
   159      0.337220
   160     -0.674440
   161      0.337220
   162      0.337220
   163     -0.674440
   164      0.337220
   165      0.337220
   166     -0.674440
   167      0.337220
   168      0.337220
   169     -0.674440
   170      0.337220
   171      0.337220
   172     -0.674440
   173      0.337220
   174      0.337220
   175     -0.674440
   176      0.337220
   177      0.337220
 
  MM isotropic polarizabilities in au 
  ----------------------------------- 
     1      5.739350
     2      2.308390
     3      2.308390
     4      5.739350
     5      2.308390
     6      2.308390
     7      5.739350
     8      2.308390
     9      2.308390
    10      5.739350
    11      2.308390
    12      2.308390
    13      5.739350
    14      2.308390
    15      2.308390
    16      5.739350
    17      2.308390
    18      2.308390
    19      5.739350
    20      2.308390
    21      2.308390
    22      5.739350
    23      2.308390
    24      2.308390
    25      5.739350
    26      2.308390
    27      2.308390
    28      5.739350
    29      2.308390
    30      2.308390
    31      5.739350
    32      2.308390
    33      2.308390
    34      5.739350
    35      2.308390
    36      2.308390
    37      5.739350
    38      2.308390
    39      2.308390
    40      5.739350
    41      2.308390
    42      2.308390
    43      5.739350
    44      2.308390
    45      2.308390
    46      5.739350
    47      2.308390
    48      2.308390
    49      5.739350
    50      2.308390
    51      2.308390
    52      5.739350
    53      2.308390
    54      2.308390
    55      5.739350
    56      2.308390
    57      2.308390
    58      5.739350
    59      2.308390
    60      2.308390
    61      5.739350
    62      2.308390
    63      2.308390
    64      5.739350
    65      2.308390
    66      2.308390
    67      5.739350
    68      2.308390
    69      2.308390
    70      5.739350
    71      2.308390
    72      2.308390
    73      5.739350
    74      2.308390
    75      2.308390
    76      5.739350
    77      2.308390
    78      2.308390
    79      5.739350
    80      2.308390
    81      2.308390
    82      5.739350
    83      2.308390
    84      2.308390
    85      5.739350
    86      2.308390
    87      2.308390
    88      5.739350
    89      2.308390
    90      2.308390
    91      5.739350
    92      2.308390
    93      2.308390
    94      5.739350
    95      2.308390
    96      2.308390
    97      5.739350
    98      2.308390
    99      2.308390
   100      5.739350
   101      2.308390
   102      2.308390
   103      5.739350
   104      2.308390
   105      2.308390
   106      5.739350
   107      2.308390
   108      2.308390
   109      5.739350
   110      2.308390
   111      2.308390
   112      5.739350
   113      2.308390
   114      2.308390
   115      5.739350
   116      2.308390
   117      2.308390
   118      5.739350
   119      2.308390
   120      2.308390
   121      5.739350
   122      2.308390
   123      2.308390
   124      5.739350
   125      2.308390
   126      2.308390
   127      5.739350
   128      2.308390
   129      2.308390
   130      5.739350
   131      2.308390
   132      2.308390
   133      5.739350
   134      2.308390
   135      2.308390
   136      5.739350
   137      2.308390
   138      2.308390
   139      5.739350
   140      2.308390
   141      2.308390
   142      5.739350
   143      2.308390
   144      2.308390
   145      5.739350
   146      2.308390
   147      2.308390
   148      5.739350
   149      2.308390
   150      2.308390
   151      5.739350
   152      2.308390
   153      2.308390
   154      5.739350
   155      2.308390
   156      2.308390
   157      5.739350
   158      2.308390
   159      2.308390
   160      5.739350
   161      2.308390
   162      2.308390
   163      5.739350
   164      2.308390
   165      2.308390
   166      5.739350
   167      2.308390
   168      2.308390
   169      5.739350
   170      2.308390
   171      2.308390
   172      5.739350
   173      2.308390
   174      2.308390
   175      5.739350
   176      2.308390
   177      2.308390


     ************************************************************************
     ************************** Output from HERINT **************************
     ************************************************************************



                      Nuclear contribution to dipole moments
                      --------------------------------------

                 au               Debye          C m (/(10**-30)

      x      3.87226237         9.84230858        32.83040756
      y    -16.51983650       -41.98923342      -140.06100653
      z     -6.87312100       -17.46972992       -58.27274655



 Threshold for neglecting two-electron integrals:  1.00D-12
 HERMIT - Number of two-electron integrals written:    38265327 ( 42.8% )
 HERMIT - Megabytes written:                            438.158

  Time used in TWOINT     is       7.17 seconds
  Total CPU  time used in HERMIT:   7.38 seconds
  Total wall time used in HERMIT:  11.17 seconds


                        .----------------------------------.
                        | End of Integral Section (HERMIT) |
                        `----------------------------------'



                   .--------------------------------------------.
                   | Starting in Wave Function Section (SIRIUS) |
                   `--------------------------------------------'

NCCEXCI for singlet:    1
 CCSD_INPUT: core-val requested
 Requested number of virtual orbs per sym
                     1
 Indices of requested virtual orbs
                     1
 CCSD_INPUT: core-val requested
 Requested number of core orbs per sym
                     1
 Indices of requested core orbs
                     1

 *** Output from Huckel module :

     Using EWMO model:          T
     Using EHT  model:          F
     Number of Huckel orbitals each symmetry:   37

 EWMO - Energy Weighted Maximum Overlap - is a Huckel type method,
        which normally is better than Extended Huckel Theory.
 Reference: Linderberg and Ohrn, Propagators in Quantum Chemistry (Wiley, 1973)

 Huckel EWMO eigenvalues for symmetry :  1
          -20.684831     -20.684469     -20.684452     -20.684249     -15.675714
           -1.806968      -1.616389      -1.600252      -1.581691      -1.491294
           -0.821867      -0.800383      -0.786043      -0.777128      -0.761474
           -0.740489      -0.721344      -0.689121      -0.680261      -0.674838
           -0.661877      -0.613487      -0.588943      -0.566521      -0.560989
           -0.263547      -0.247021      -0.239436      -0.233454      -0.187258
           -0.182206      -0.180752      -0.176748      -0.172050      -0.151864
           -0.146541      -0.139849

 **********************************************************************
 *SIRIUS* a direct, restricted step, second order MCSCF program       *
 **********************************************************************

 
     Date and time (Linux)  : Wed Nov 28 16:57:22 2018
     Host name              : n-62-29-9                               

 Title lines from ".mol" input file:
                                                                             
                                                                             

 Print level on unit LUPRI =   2 is   0
 Print level on unit LUW4  =   2 is  11

@    (Integral direct) CC calculation.

@    This is a combination run starting with
@              a restricted, closed shell Hartree-Fock calculation


 Initial molecular orbitals are obtained according to
 ".MOSTART EWMO  " input option

@    QM part is embedded in an environment :

@         Model: QMMM

     Wave function specification
     ============================

     For the specification of the Coupled Cluster: see later.

@    Wave function type        --- CC ---
@    Number of closed shell electrons          50
@    Number of electrons in active shells       0
@    Total charge of the molecule               1

@    Spin multiplicity and 2 M_S                1         0
@    Total number of symmetries                 1 (point group: C1 )
@    Reference state symmetry                   1 (irrep name : A  )

     Orbital specifications
     ======================
@    Abelian symmetry species          All |    1
@                                          |  A  
                                       --- |  ---
@    Occupied SCF orbitals              25 |   25
@    Secondary orbitals                138 |  138
@    Total number of orbitals          163 |  163
@    Number of basis functions         163 |  163

     Optimization information
     ========================
@    Number of configurations                 1
@    Number of orbital rotations           3450
     ------------------------------------------
@    Total number of variables             3451

     Maximum number of Fock   iterations      0
     Maximum number of DIIS   iterations     60
     Maximum number of QC-SCF iterations     60
     Threshold for SCF convergence     1.00D-07


 Changes of defaults for CC:
 ---------------------------


 -Implicit frozen core calculation
 -Excitation energies calculated
 -One-photon absorption strengths will be calculated
 -Oscillator strengths calculated
  
* Read MO coefficients from SIRIUS.RST with label "NEWORB  " and header info: 28Nov18  REORTHO 


 ***********************************************
 ***** DIIS acceleration of SCF iterations *****
 ***********************************************

 C1-DIIS algorithm; max error vectors =    8
 -----------------------------------------------------------------------------

 *** DIIS iteration number    1
 RDSUPM called. NFMAT, ISYMDM(1:NFMAT)                     1
                     1

Calculating AOSUPINT
     (Precalculated two-electron integrals are transformed to P-supermatrix elements.
      Threshold for discarding integrals :  1.00D-12 )
  CPU  time used in FORMSUP    is   5.45 seconds
  WALL time used in FORMSUP    is  14.56 seconds

 ITDIIS, energy, error norm, change in energy, scr.thr., difden:
@ DIIS iter.   1    -360.216624292        4.04841D+00   -3.60D+02  -20    F

 (DIIS_RED) Control Parameters C2DIIS =         F NEVC =    1


 (DIIS_RED) B matrix:

               Column   1
       1      16.38960398
    ==== End of matrix output ====

 DIIS C vector; C2DIIS = F, LAMBDA = -1.64D+01
    1.000000
* Read MO coefficients from SIRIUS.RST with label "NEWORB  " and header info: 28Nov18  DIIS   1
      Virial theorem: -V/T =      2.003222
@      MULPOP N       0.18; H       0.17; H       0.16; H       0.16; H       0.15; O      -0.61; O      -0.61; O      -0.60; O      -0.60; H       0.33; 
@             H       0.33; H       0.33; H       0.32; H       0.33; H       0.31; H       0.32; H       0.31; 
   1  Level shift: doubly occupied orbital energies shifted by -2.00D-01

 DIIS Fock eigenvalues in symmetry 1
      -20.82930      -20.81051      -20.80438      -20.80214      -16.49603
       -1.73842       -1.64303       -1.63454       -1.63217       -1.62937
       -1.22801       -1.20436       -1.18677       -1.02028       -1.01224
       -1.01076       -0.99255       -0.89556       -0.88532       -0.88229
       -0.87457       -0.85374       -0.84473       -0.83913       -0.82951
       -0.00748       -0.00005        0.04862        0.06946        0.08567
        0.09014        0.12090        0.14840        0.15176        0.16917
        0.17629        0.19286        0.21643        0.27607        0.29805
        0.34088        0.41824        0.43117        0.45711        0.47640
        0.49182        0.49696        0.51070        0.52317        0.54770
        0.64966        0.67164        0.68807        0.83956        0.85992
        0.88836        0.89791        0.91470        0.94438        0.97761
        0.99054        1.00399        1.02172        1.02448        1.04753
        1.06353        1.08103        1.10485        1.22441        1.26724
        1.31089        1.32910        1.35306        1.36252        1.36725
        1.37022        1.38349        1.38784        1.39109        1.43522
        1.50432        1.52597        1.53667        1.57409        1.62044
        1.62678        1.65647        1.75451        1.76896        1.78600
        1.79400        1.81185        1.95454        1.99513        2.02067
        2.06449        2.07351        2.10181        2.12817        2.15117
        2.19252        2.20132        2.22016        2.22665        2.26108
        2.37123        2.45083        2.46958        2.50813        2.53835
        2.57552        2.62969        2.63183        2.65834        2.66835
        2.68669        2.71286        2.72739        2.79063        2.96409
        3.02562        3.06751        3.08924        3.29826        3.32141
        3.35208        3.37675        3.38086        3.38520        3.39199
        3.43356        3.51534        3.52969        3.54022        3.58669
        3.85749        3.87196        3.88228        3.89417        4.07365
        4.10519        4.12147        4.15078        4.60753        4.71988
        4.84074        5.26648        5.27660        5.30538        5.31717
        5.66709        5.69055        5.72128        5.76391        5.92172
        5.94962        5.98252        6.04222       36.33396       51.44278
       51.45630       51.45862       51.49157
 Time used in FCKEIG, thr_jaco:   5.70D-02  1.26D-01  1.72D-04
 CPU and wall times used in FCKEIG, THR_FCKEIG:   5.70D-02  1.26D-01  4.05D-02
 -----------------------------------------------------------------------------

 *** DIIS iteration number    2
 RDSUPM called. NFMAT, ISYMDM(1:NFMAT)                     1
                     1

 ITDIIS, energy, error norm, change in energy, scr.thr., difden:
@ DIIS iter.   2    -361.134593989        1.17187D+00   -9.18D-01  -20    F

 (DIIS_RED) Control Parameters C2DIIS =         F NEVC =    2


 (DIIS_RED) B matrix:

               Column   1     Column   2
       1      16.38960398
       2       0.54916316     1.37327510
    ==== End of matrix output ====

 DIIS C vector; C2DIIS = F, LAMBDA = -1.33D+00
    0.049453    0.950547
* Read MO coefficients from SIRIUS.RST with label "NEWORB  " and header info: 28Nov18  DIIS   2
      Virial theorem: -V/T =      2.002475
@      MULPOP N      -0.51; H       0.35; H       0.32; H       0.32; H       0.33; O      -0.61; O      -0.59; O      -0.54; O      -0.53; H       0.36; 
@             H       0.30; H       0.29; H       0.35; H       0.30; H       0.29; H       0.27; H       0.30; 
   2  Level shift: doubly occupied orbital energies shifted by -1.00D-01

 DIIS Fock eigenvalues in symmetry 1
      -20.77952      -20.77566      -20.77001      -20.75240      -15.63882
       -1.53225       -1.53168       -1.52633       -1.52466       -1.38581
       -0.90114       -0.89581       -0.89212       -0.88128       -0.87398
       -0.85513       -0.84275       -0.78655       -0.78453       -0.78015
       -0.76948       -0.72611       -0.71739       -0.71281       -0.70121
       -0.00005        0.05533        0.08810        0.10574        0.12699
        0.15373        0.17232        0.19300        0.19762        0.21432
        0.22235        0.24749        0.29796        0.36704        0.37564
        0.42366        0.45423        0.47163        0.49481        0.51744
        0.53313        0.53772        0.55432        0.56469        0.63846
        0.79563        0.80565        0.82632        0.86891        0.90440
        0.94000        0.95394        0.97072        0.98709        1.00367
        1.03156        1.03521        1.05593        1.06523        1.10468
        1.13551        1.17831        1.20528        1.27320        1.30327
        1.35861        1.38092        1.41051        1.41777        1.42331
        1.42666        1.43343        1.44895        1.45356        1.49491
        1.58725        1.60743        1.61924        1.66016        1.70764
        1.72411        1.76118        1.81554        1.83003        1.84889
        1.85934        1.92530        2.06074        2.09430        2.10321
        2.11482        2.15224        2.17709        2.18901        2.25789
        2.25851        2.27302        2.31466        2.32224        2.34366
        2.47781        2.53823        2.55927        2.58281        2.62902
        2.68263        2.71536        2.72283        2.72792        2.76836
        2.77057        2.83455        2.92224        3.00151        3.16235
        3.25453        3.32145        3.33211        3.36131        3.37502
        3.38736        3.39706        3.40851        3.41925        3.42749
        3.46729        3.54627        3.55031        3.55875        3.61111
        3.87322        3.88586        3.90937        3.91580        4.10140
        4.11931        4.13445        4.17112        5.01146        5.12438
        5.23619        5.25640        5.27864        5.30385        5.32349
        5.67532        5.68219        5.71643        5.76347        5.92819
        5.95200        6.00384        6.05921       37.07346       51.38594
       51.39350       51.40502       51.44377
 Time used in FCKEIG, thr_jaco:   4.10D-02  4.80D-02  4.99D-05
 CPU and wall times used in FCKEIG, THR_FCKEIG:   4.10D-02  4.80D-02  1.17D-02
 -----------------------------------------------------------------------------

 *** DIIS iteration number    3
 RDSUPM called. NFMAT, ISYMDM(1:NFMAT)                     1
                     1

 ITDIIS, energy, error norm, change in energy, scr.thr., difden:
@ DIIS iter.   3    -361.212243149        3.76576D-01   -7.76D-02  -20    F

 (DIIS_RED) Control Parameters C2DIIS =         F NEVC =    3


 (DIIS_RED) B matrix:

               Column   1     Column   2     Column   3
       1      16.38960398
       2       0.54916316     1.37327510
       3       0.82938863    -0.00733859     0.14180915
    ==== End of matrix output ====

 DIIS C vector; C2DIIS = F, LAMBDA = -9.66D-02
   -0.045406    0.093607    0.951799
* Read MO coefficients from SIRIUS.RST with label "NEWORB  " and header info: 28Nov18  DIIS   3
      Virial theorem: -V/T =      2.003288
@      MULPOP N      -0.29; H       0.31; H       0.27; H       0.27; H       0.29; O      -0.67; O      -0.66; O      -0.60; O      -0.59; H       0.39; 
@             H       0.32; H       0.32; H       0.38; H       0.32; H       0.32; H       0.29; H       0.32; 
   3  Level shift: doubly occupied orbital energies shifted by -5.00D-02

 DIIS Fock eigenvalues in symmetry 1
      -20.68640      -20.68515      -20.68008      -20.66304      -15.79855
       -1.46630       -1.46348       -1.45724       -1.45600       -1.38793
       -0.87803       -0.84623       -0.83689       -0.82383       -0.81853
       -0.81175       -0.80158       -0.71830       -0.71454       -0.71160
       -0.70061       -0.65056       -0.64276       -0.64210       -0.62648
       -0.00005        0.06054        0.09342        0.11161        0.13358
        0.15494        0.17617        0.19590        0.20240        0.21687
        0.22698        0.24814        0.29782        0.36668        0.37545
        0.42382        0.46566        0.48178        0.50454        0.52702
        0.54366        0.54745        0.56380        0.57565        0.63830
        0.78768        0.79771        0.80942        0.88298        0.91785
        0.94829        0.96344        0.97852        1.00096        1.01657
        1.04326        1.04883        1.06797        1.07577        1.11634
        1.13710        1.17896        1.20234        1.28228        1.31575
        1.36912        1.38886        1.42188        1.43078        1.43757
        1.44151        1.44831        1.46224        1.46847        1.50484
        1.59472        1.61723        1.62665        1.66611        1.71478
        1.72875        1.76453        1.82585        1.84261        1.85991
        1.87193        1.92240        2.06290        2.10009        2.11721
        2.13096        2.15985        2.18359        2.19466        2.27023
        2.27738        2.28601        2.31887        2.34003        2.34378
        2.48477        2.55027        2.56820        2.59481        2.63575
        2.68793        2.72656        2.73334        2.73755        2.77807
        2.77910        2.83577        2.89212        2.97165        3.15760
        3.21224        3.32006        3.32849        3.35961        3.36924
        3.40093        3.42139        3.42887        3.43794        3.44337
        3.48683        3.56973        3.57751        3.58581        3.63812
        3.89903        3.91162        3.93143        3.94172        4.12589
        4.14763        4.16243        4.19916        4.92939        5.04262
        5.16418        5.28708        5.30699        5.33420        5.34812
        5.70236        5.71180        5.74831        5.79401        5.96164
        5.98521        6.03151        6.09084       36.87006       51.43039
       51.43708       51.44092       51.48333
 Time used in FCKEIG, thr_jaco:   3.30D-02  5.10D-02  1.60D-05
 CPU and wall times used in FCKEIG, THR_FCKEIG:   3.30D-02  5.10D-02  3.77D-03
 -----------------------------------------------------------------------------

 *** DIIS iteration number    4
 RDSUPM called. NFMAT, ISYMDM(1:NFMAT)                     1
                     1

 ITDIIS, energy, error norm, change in energy, scr.thr., difden:
@ DIIS iter.   4    -361.222568677        9.17072D-02   -1.03D-02  -20    F

 (DIIS_RED) Control Parameters C2DIIS =         F NEVC =    4


 (DIIS_RED) B matrix:

               Column   1     Column   2     Column   3     Column   4
       1      16.38960398
       2       0.54916316     1.37327510
       3       0.82938863    -0.00733859     0.14180915
       4       0.05614980     0.07850647     0.00659031     0.00841022
    ==== End of matrix output ====

 DIIS C vector; C2DIIS = F, LAMBDA = -4.33D-03
   -0.000466   -0.058443   -0.019920    1.078828
* Read MO coefficients from SIRIUS.RST with label "NEWORB  " and header info: 28Nov18  DIIS   4
      Virial theorem: -V/T =      2.003217
@      MULPOP N      -0.36; H       0.33; H       0.29; H       0.29; H       0.31; O      -0.69; O      -0.68; O      -0.61; O      -0.60; H       0.40; 
@             H       0.33; H       0.32; H       0.39; H       0.33; H       0.32; H       0.29; H       0.33; 
   4  Level shift: doubly occupied orbital energies shifted by -1.25D-02

 DIIS Fock eigenvalues in symmetry 1
      -20.66110      -20.65974      -20.65838      -20.63792      -15.72988
       -1.43358       -1.43025       -1.42513       -1.42285       -1.33921
       -0.83071       -0.80023       -0.79755       -0.78575       -0.78365
       -0.77349       -0.76617       -0.68335       -0.68026       -0.67587
       -0.66451       -0.61364       -0.60600       -0.60475       -0.58898
       -0.00005        0.06071        0.09231        0.11060        0.13263
        0.15569        0.17643        0.19680        0.20317        0.21824
        0.22710        0.25227        0.30204        0.37148        0.37971
        0.42803        0.46524        0.48122        0.50430        0.52596
        0.54234        0.54650        0.56243        0.57437        0.64267
        0.79327        0.80361        0.81594        0.88256        0.91917
        0.95006        0.96464        0.97967        1.00051        1.01600
        1.04317        1.04755        1.06730        1.07532        1.11543
        1.13903        1.18074        1.20682        1.28312        1.31717
        1.36925        1.38925        1.42147        1.43006        1.43523
        1.43972        1.44698        1.46030        1.46710        1.50430
        1.59606        1.61745        1.62850        1.66823        1.71637
        1.73236        1.76897        1.82433        1.84146        1.85842
        1.87120        1.92811        2.06675        2.10266        2.11507
        2.12817        2.15977        2.18881        2.19219        2.26995
        2.27438        2.28495        2.32063        2.33842        2.34815
        2.48706        2.55008        2.57205        2.59525        2.63525
        2.69164        2.72410        2.73342        2.73839        2.77794
        2.77930        2.84126        2.90215        2.98209        3.16395
        3.22426        3.32686        3.33612        3.36203        3.36781
        3.39926        3.41873        3.42675        3.43590        3.44004
        3.48501        3.56636        3.57348        3.58313        3.63543
        3.89488        3.90841        3.92785        3.93851        4.12232
        4.14365        4.15935        4.19627        4.94635        5.05947
        5.18045        5.28155        5.30117        5.32712        5.34237
        5.69681        5.70644        5.74141        5.78834        5.95356
        5.97905        6.02495        6.08461       36.90087       51.41856
       51.42311       51.42765       51.47128
 Time used in FCKEIG, thr_jaco:   2.50D-02  2.80D-02  3.90D-06
 CPU and wall times used in FCKEIG, THR_FCKEIG:   2.50D-02  2.80D-02  9.17D-04
 -----------------------------------------------------------------------------

 *** DIIS iteration number    5
 RDSUPM called. NFMAT, ISYMDM(1:NFMAT)                     1
                     1

 ITDIIS, energy, error norm, change in energy, scr.thr., difden:
@ DIIS iter.   5    -361.223571328        2.88421D-02   -1.00D-03  -20    F

 (DIIS_RED) Control Parameters C2DIIS =         F NEVC =    5


 (DIIS_RED) B matrix:

               Column   1     Column   2     Column   3     Column   4     Column   5
       1      16.38960398
       2       0.54916316     1.37327510
       3       0.82938863    -0.00733859     0.14180915
       4       0.05614980     0.07850647     0.00659031     0.00841022
       5       0.02245367     0.00663408     0.00569459     0.00085369     0.00083187
    ==== End of matrix output ====

 DIIS C vector; C2DIIS = F, LAMBDA = -5.74D-04
    0.001046   -0.010421   -0.045583    0.097094    0.957864
* Read MO coefficients from SIRIUS.RST with label "NEWORB  " and header info: 28Nov18  DIIS   5
      Virial theorem: -V/T =      2.002880
@      MULPOP N      -0.35; H       0.33; H       0.28; H       0.28; H       0.30; O      -0.70; O      -0.69; O      -0.62; O      -0.61; H       0.41; 
@             H       0.34; H       0.33; H       0.40; H       0.33; H       0.33; H       0.29; H       0.34; 

 DIIS Fock eigenvalues in symmetry 1
      -20.64207      -20.64131      -20.63761      -20.61874      -15.71428
       -1.41882       -1.41560       -1.40978       -1.40795       -1.32541
       -0.81702       -0.78629       -0.78361       -0.77176       -0.76957
       -0.75925       -0.75187       -0.66907       -0.66555       -0.66175
       -0.65008       -0.59809       -0.59018       -0.58933       -0.57339
       -0.00005        0.06106        0.09248        0.11087        0.13290
        0.15600        0.17680        0.19720        0.20363        0.21873
        0.22753        0.25315        0.30296        0.37232        0.38051
        0.42879        0.46594        0.48178        0.50500        0.52641
        0.54280        0.54701        0.56297        0.57490        0.64354
        0.79448        0.80493        0.81714        0.88406        0.92091
        0.95168        0.96616        0.98106        1.00190        1.01738
        1.04464        1.04908        1.06863        1.07662        1.11677
        1.14019        1.18196        1.20801        1.28446        1.31873
        1.37026        1.39029        1.42249        1.43063        1.43553
        1.44018        1.44763        1.46085        1.46766        1.50506
        1.59669        1.61806        1.62920        1.66887        1.71706
        1.73320        1.76984        1.82438        1.84162        1.85852
        1.87147        1.92905        2.06771        2.10360        2.11585
        2.12892        2.16045        2.18984        2.19299        2.27094
        2.27521        2.28580        2.32155        2.33935        2.34902
        2.48769        2.55041        2.57280        2.59577        2.63555
        2.69238        2.72381        2.73357        2.73894        2.77798
        2.77955        2.84211        2.90332        2.98332        3.16516
        3.22574        3.32885        3.33807        3.36404        3.37042
        3.40168        3.42099        3.42920        3.43857        3.44239
        3.48738        3.56864        3.57640        3.58532        3.63785
        3.89773        3.91068        3.93014        3.94094        4.12483
        4.14668        4.16187        4.19891        4.94817        5.06125
        5.18235        5.28523        5.30530        5.33178        5.34636
        5.70035        5.70986        5.74571        5.79217        5.95785
        5.98217        6.02826        6.08804       36.90391       51.42446
       51.43073       51.43459       51.47788
 Time used in FCKEIG, thr_jaco:   2.70D-02  3.50D-02  1.23D-06
 CPU and wall times used in FCKEIG, THR_FCKEIG:   2.70D-02  3.50D-02  2.88D-04
 -----------------------------------------------------------------------------

 *** DIIS iteration number    6
 RDSUPM called. NFMAT, ISYMDM(1:NFMAT)                     1
                     1

 ITDIIS, energy, error norm, change in energy, scr.thr., difden:
@ DIIS iter.   6    -361.223654581        1.06208D-02   -8.33D-05  -20    F

 (DIIS_RED) Control Parameters C2DIIS =         F NEVC =    6


 (DIIS_RED) B matrix:

               Column   1     Column   2     Column   3     Column   4     Column   5     Column   6
       1      16.38960398
       2       0.54916316     1.37327510
       3       0.82938863    -0.00733859     0.14180915
       4       0.05614980     0.07850647     0.00659031     0.00841022
       5       0.02245367     0.00663408     0.00569459     0.00085369     0.00083187
       6      -0.00475516    -0.00025740     0.00074820     0.00051521     0.00002155     0.00011280
    ==== End of matrix output ====

 DIIS C vector; C2DIIS = F, LAMBDA = -3.56D-05
    0.000756    0.006780   -0.008381   -0.132428    0.135754    0.997518
* Read MO coefficients from SIRIUS.RST with label "NEWORB  " and header info: 28Nov18  DIIS   6
      Virial theorem: -V/T =      2.003126
@      MULPOP N      -0.34; H       0.33; H       0.28; H       0.28; H       0.30; O      -0.70; O      -0.69; O      -0.62; O      -0.61; H       0.41; 
@             H       0.34; H       0.33; H       0.40; H       0.33; H       0.33; H       0.30; H       0.34; 

 DIIS Fock eigenvalues in symmetry 1
      -20.64413      -20.64303      -20.64025      -20.62072      -15.71631
       -1.41939       -1.41606       -1.41053       -1.40850       -1.32597
       -0.81760       -0.78679       -0.78423       -0.77232       -0.77010
       -0.75989       -0.75255       -0.66985       -0.66655       -0.66252
       -0.65085       -0.59841       -0.59060       -0.58961       -0.57371
       -0.00005        0.06092        0.09231        0.11069        0.13272
        0.15591        0.17669        0.19705        0.20352        0.21859
        0.22737        0.25302        0.30275        0.37217        0.38037
        0.42865        0.46569        0.48152        0.50475        0.52616
        0.54252        0.54676        0.56265        0.57462        0.64335
        0.79408        0.80457        0.81679        0.88369        0.92064
        0.95139        0.96584        0.98067        1.00148        1.01699
        1.04425        1.04866        1.06824        1.07622        1.11640
        1.13984        1.18163        1.20773        1.28414        1.31837
        1.36990        1.38994        1.42207        1.43035        1.43516
        1.43985        1.44731        1.46045        1.46732        1.50471
        1.59642        1.61772        1.62895        1.66864        1.71685
        1.73297        1.76967        1.82406        1.84136        1.85819
        1.87118        1.92889        2.06745        2.10329        2.11535
        2.12841        2.15998        2.18956        2.19249        2.27050
        2.27481        2.28539        2.32120        2.33890        2.34882
        2.48740        2.55014        2.57265        2.59548        2.63513
        2.69222        2.72340        2.73326        2.73866        2.77758
        2.77929        2.84193        2.90283        2.98285        3.16489
        3.22508        3.32813        3.33728        3.36333        3.36960
        3.40101        3.42035        3.42853        3.43770        3.44164
        3.48666        3.56792        3.57547        3.58471        3.63715
        3.89682        3.91002        3.92937        3.94019        4.12404
        4.14576        4.16116        4.19814        4.94717        5.06028
        5.18137        5.28431        5.30418        5.33043        5.34525
        5.69924        5.70886        5.74435        5.79102        5.95639
        5.98120        6.02710        6.08692       36.90191       51.42274
       51.42834       51.43236       51.47592
 Time used in FCKEIG, thr_jaco:   2.80D-02  3.10D-02  4.52D-07
 CPU and wall times used in FCKEIG, THR_FCKEIG:   2.80D-02  3.10D-02  1.06D-04
 -----------------------------------------------------------------------------

 *** DIIS iteration number    7
 RDSUPM called. NFMAT, ISYMDM(1:NFMAT)                     1
                     1

 ITDIIS, energy, error norm, change in energy, scr.thr., difden:
@ DIIS iter.   7    -361.223666698        2.31899D-03   -1.21D-05  -20    F

 (DIIS_RED) Control Parameters C2DIIS =         F NEVC =    7


 (DIIS_RED) B matrix:

               Column   1     Column   2     Column   3     Column   4     Column   5     Column   6
       1      16.38960398
       2       0.54916316     1.37327510
       3       0.82938863    -0.00733859     0.14180915
       4       0.05614980     0.07850647     0.00659031     0.00841022
       5       0.02245367     0.00663408     0.00569459     0.00085369     0.00083187
       6      -0.00475516    -0.00025740     0.00074820     0.00051521     0.00002155     0.00011280
       7       0.00027356     0.00023430    -0.00000729     0.00001007     0.00004665     0.00000051

               Column   7
       7       0.00000538
    ==== End of matrix output ====

 DIIS C vector; C2DIIS = F, LAMBDA = -1.17D-06
   -0.000234   -0.001002    0.005450    0.025082   -0.112179   -0.136627    1.219510
* Read MO coefficients from SIRIUS.RST with label "NEWORB  " and header info: 28Nov18  DIIS   7
      Virial theorem: -V/T =      2.003063
@      MULPOP N      -0.34; H       0.33; H       0.28; H       0.28; H       0.30; O      -0.71; O      -0.70; O      -0.62; O      -0.61; H       0.41; 
@             H       0.34; H       0.33; H       0.40; H       0.33; H       0.33; H       0.30; H       0.34; 

 DIIS Fock eigenvalues in symmetry 1
      -20.64385      -20.64278      -20.63984      -20.62050      -15.71588
       -1.41925       -1.41591       -1.41035       -1.40838       -1.32576
       -0.81744       -0.78664       -0.78413       -0.77219       -0.77001
       -0.75976       -0.75241       -0.66983       -0.66649       -0.66249
       -0.65082       -0.59822       -0.59038       -0.58942       -0.57354
       -0.00005        0.06097        0.09234        0.11072        0.13275
        0.15595        0.17674        0.19709        0.20357        0.21865
        0.22741        0.25311        0.30285        0.37227        0.38047
        0.42875        0.46575        0.48157        0.50482        0.52620
        0.54255        0.54681        0.56269        0.57465        0.64347
        0.79422        0.80471        0.81694        0.88375        0.92076
        0.95151        0.96595        0.98078        1.00158        1.01709
        1.04436        1.04875        1.06832        1.07631        1.11647
        1.13995        1.18175        1.20786        1.28426        1.31850
        1.36998        1.39003        1.42216        1.43039        1.43517
        1.43987        1.44734        1.46048        1.46733        1.50477
        1.59648        1.61778        1.62902        1.66871        1.71692
        1.73308        1.76978        1.82407        1.84137        1.85820
        1.87120        1.92902        2.06756        2.10338        2.11540
        2.12846        2.16004        2.18969        2.19253        2.27058
        2.27484        2.28546        2.32129        2.33893        2.34893
        2.48748        2.55017        2.57274        2.59552        2.63517
        2.69232        2.72338        2.73327        2.73872        2.77759
        2.77933        2.84203        2.90301        2.98303        3.16504
        3.22530        3.32831        3.33748        3.36350        3.36978
        3.40116        3.42048        3.42866        3.43788        3.44177
        3.48678        3.56805        3.57565        3.58486        3.63727
        3.89699        3.91015        3.92949        3.94030        4.12419
        4.14595        4.16132        4.19827        4.94744        5.06055
        5.18164        5.28450        5.30437        5.33068        5.34543
        5.69941        5.70904        5.74458        5.79118        5.95663
        5.98136        6.02727        6.08706       36.90233       51.42299
       51.42869       51.43267       51.47614
 Time used in FCKEIG, thr_jaco:   2.90D-02  6.90D-02  9.87D-08
 CPU and wall times used in FCKEIG, THR_FCKEIG:   2.90D-02  6.90D-02  2.32D-05
 -----------------------------------------------------------------------------

 *** DIIS iteration number    8
 RDSUPM called. NFMAT, ISYMDM(1:NFMAT)                     1
                     1

 ITDIIS, energy, error norm, change in energy, scr.thr., difden:
@ DIIS iter.   8    -361.223667292        3.49707D-04   -5.94D-07  -20    F

 (DIIS_RED) Control Parameters C2DIIS =         F NEVC =    8


 (DIIS_RED) B matrix:

               Column   1     Column   2     Column   3     Column   4     Column   5     Column   6
       1      16.38960398
       2       0.54916316     1.37327510
       3       0.82938863    -0.00733859     0.14180915
       4       0.05614980     0.07850647     0.00659031     0.00841022
       5       0.02245367     0.00663408     0.00569459     0.00085369     0.00083187
       6      -0.00475516    -0.00025740     0.00074820     0.00051521     0.00002155     0.00011280
       7       0.00027356     0.00023430    -0.00000729     0.00001007     0.00004665     0.00000051
       8       0.00009832    -0.00004379     0.00000659     0.00000167     0.00000021     0.00000156

               Column   7     Column   8
       7       0.00000538
       8       0.00000033     0.00000012
    ==== End of matrix output ====

 DIIS C vector; C2DIIS = F, LAMBDA = -5.87D-08
    0.000015    0.000090   -0.000846   -0.002072    0.020104   -0.003236   -0.240103    1.226048
* Read MO coefficients from SIRIUS.RST with label "NEWORB  " and header info: 28Nov18  DIIS   8
      Virial theorem: -V/T =      2.003081
@      MULPOP N      -0.34; H       0.33; H       0.28; H       0.28; H       0.30; O      -0.71; O      -0.70; O      -0.62; O      -0.61; H       0.41; 
@             H       0.34; H       0.33; H       0.40; H       0.33; H       0.33; H       0.30; H       0.34; 

 DIIS Fock eigenvalues in symmetry 1
      -20.64386      -20.64279      -20.63990      -20.62045      -15.71591
       -1.41925       -1.41591       -1.41036       -1.40836       -1.32577
       -0.81744       -0.78664       -0.78413       -0.77219       -0.76999
       -0.75976       -0.75242       -0.66985       -0.66653       -0.66252
       -0.65083       -0.59821       -0.59038       -0.58942       -0.57353
       -0.00005        0.06097        0.09234        0.11072        0.13275
        0.15595        0.17674        0.19709        0.20356        0.21865
        0.22741        0.25310        0.30284        0.37227        0.38047
        0.42875        0.46575        0.48157        0.50482        0.52620
        0.54255        0.54681        0.56269        0.57465        0.64346
        0.79421        0.80471        0.81693        0.88375        0.92075
        0.95150        0.96595        0.98078        1.00157        1.01710
        1.04435        1.04875        1.06832        1.07631        1.11647
        1.13994        1.18174        1.20786        1.28426        1.31850
        1.36997        1.39003        1.42215        1.43038        1.43517
        1.43987        1.44734        1.46048        1.46734        1.50477
        1.59648        1.61777        1.62902        1.66870        1.71692
        1.73307        1.76978        1.82407        1.84137        1.85820
        1.87120        1.92901        2.06755        2.10338        2.11539
        2.12845        2.16003        2.18968        2.19253        2.27057
        2.27484        2.28545        2.32128        2.33893        2.34892
        2.48747        2.55017        2.57273        2.59552        2.63516
        2.69231        2.72337        2.73327        2.73871        2.77758
        2.77932        2.84203        2.90300        2.98302        3.16503
        3.22528        3.32830        3.33747        3.36349        3.36976
        3.40115        3.42048        3.42866        3.43786        3.44176
        3.48679        3.56805        3.57563        3.58485        3.63728
        3.89697        3.91014        3.92948        3.94031        4.12418
        4.14593        4.16131        4.19828        4.94742        5.06053
[...]
 | 1 1 1 1 |  12   1  13   1 |     1668        1 |      1390279 |   -0.078758  |
 | 1 1 1 1 |  27   1  13   1 |     1683        1 |      1415404 |   -0.091891  |
 | 1 1 1 1 |  26   1  20   1 |     2648        1 |      3504629 |   -0.065789  |
 +=============================================================================+


          Norm of Printed Amplitude Vector :             0.8381

          Printed all single excitations greater than 0.382128

          Printed all double excitations greater than 0.064491



+======================================================================+
| contributions of excitation levels to right eigenvectors as computed |
| from the (RE|RE) self overlap                                        |
+----------------------------------------------------------------------+
| sym | multi | state |    E / eV  | % singles | % doubles | % triples |
+======================================================================+
|    1|   1   |   1   |  411.60823 |  88.2649  |  11.7351  |   0.0000  |
+======================================================================+





+======================================================================+
| contributions of excitation levels to excited states as computed     |
| from the (LE|RE) overlap                                             |
+----------------------------------------------------------------------+
| sym | multi | state |    E / eV  | % singles | % doubles | % triples |
+======================================================================+
|    1|   1   |   1   |  411.60823 |  79.2533  |  20.7467  |   0.0000  |
+======================================================================+



 --------------------------
 Symmetry class Nr.:     1
 Multiplicity      :     3
 --------------------------

 Length of Excitation vectors in this class is:   8404200
 No Excitation Energies calculated in this symmetry class
     

   *******************************************************************
   *                                                                 *
   *--------   OUTPUT FROM PROPERTY AND SYMMETRY ANALYSIS   ---------*
   *                                                                 *
   *******************************************************************



                         +-------------------------------+
                         ! REQUESTED PROPERTY OPERATORS: !
                         +-------------------------------+

             Index   Oper. Label  Symmetry  Transp.  PDBS  Atom
             --------------------------------------------------
                1     HAM0            1        1      T      0
                2     XDIPLEN         1        1      F      0
                3     YDIPLEN         1        1      F      0
                4     ZDIPLEN         1        1      F      0
             --------------------------------------------------




                         +-------------------------------+
                         ! REQUESTED EXPECTATION VALUES: !
                         +-------------------------------+

                       Index   Oper. Label  Symmetry
                       -----------------------------
                       -----------------------------




                       +------------------------------------+
                       ! REQUESTED EFFECTIVE FOCK MATRICES: !
                       +------------------------------------+

                       Index   Oper. Label  Symmetry
                       -----------------------------
                       -----------------------------




                        +----------------------------------+
                        ! REQUESTED FIRST ORDER M-VECTORS: !
                        +----------------------------------+

               Index   State Symmetry  Frequency
               --------------------------------------------------
                  1             1    1     1.512632D+01
               --------------------------------------------------


      

    *******************************************************************
    *          SOLVING COUPLED CLUSTER RESPONSE EQUATIONS             *
    *******************************************************************



 
 +======================================================================+
 !                     RHS & ETA VECTORS TO COMPUTE:                    !
 +======================================================================+
 | TYPE | # VEC. |  NEEDED FOR:                                         |
 +----------------------------------------------------------------------+
 +======================================================================+



 +======================================================================+
 !                       LINEAR EQUATIONS TO SOLVE:                     !
 +======================================================================+
 | TYPE | # VEC. |  EQUATION:                                           |
 +----------------------------------------------------------------------+
 |  M1  |    1   |  first-order ground - excited state multipliers      |
 +======================================================================+



 +======================================================================+
 !                F MATRIX TRANSFORMATIONS TO COMPUTE:                  !
 +======================================================================+
 | TYPE | # VEC. |  TRANSFORMED:                                        |
 +----------------------------------------------------------------------+
 |  FR  |    1   |  right eigenvectors (RE)                             |
 +======================================================================+





 Testing R1 list: 

 List nr.  Label     Symmetry      Frequency      T1-norm        T2-norm


 Testing L1 list: 

 List nr.  Label     Symmetry      Frequency      T1-norm        T2-norm
  Solvent 1-order response equations converged in                     0 
  solvent iterations
 SONIAPRI                     0
 CCEQ_STR: CVSEPARATION =  T
 CCEQ_STR: IONIZATION =  T
 CCEQ_STR: REMOVE_CORE =  F
 could not find required file CCM1_1___1
 IOPTSV is    33 ... program continues nevertheless.
 Vector nr.  1 of type M1  and symmetry  1 was not found on file.
     M1  start vector nr.  1 of symmetry  1 generated from gradient
 CCEQ_STR: freeze VALENCE OR VIRT
 CCEQ_SOL: CVSEPARA=     T
 CCEQ_SOL: LIONISAT=     T
 CCEQ_SOL: REMOVE_CORE =  F



 ----- COUPLED CLUSTER RESPONSE SOLVER -----

    Iter  #Vectors  time (min)   residual
    --------------------------------------
 CCRED CVS/IONIS sigma_                     1 
 project out valence occupied or virtual
      1       1         1.39     0.17E+01
 CCRED CVS/IONIS sigma_                     2 
 project out valence occupied or virtual
      2       1         1.38     0.31E+00
 CCRED CVS/IONIS sigma_                     3 
 project out valence occupied or virtual
      3       1         1.38     0.41E-01
 CCRED CVS/IONIS sigma_                     4 
 project out valence occupied or virtual
                    -1  vectors with norm le:  1.000000000000000E-035  REMOVED

 CCORT,**WARNING**  number vectors added is zero after check for vector norm , NBADD :    0

 CCORT, number vectors added is zero , NBADD :    0

 CCORT, number vectors added is zero , NBADD :    0

 CCORT, number vectors added is zero , NBADD :    0

 CCORT, number vectors added is zero , NBADD :    0

 *** MICROITERATIONS STOPPED DUE TO LINEAR DEPENDENCE BETWEEN ALL NEW TRIAL VECTORS
                     0  trial vectors converged
  LINEAR DEPENDENCE BETWEEN                     1  NON CONVERGED TRIAL VECTORS
      4       1         1.38     0.42E-02

 ***  CCEQ_SOL -MICROITERATIONS STOPPED  
     LINEAR DEPENDENCE BETWEEN ALL NEW TRIAL VECTORS
    --------------------------------------
    converged in  4 iterations
    threshold:    0.10E-08


         Routine          Time (min)
         ---------------------------
         CC_TRDRV            5.53
         CCRED               0.04
         CCNEX               0.06
         ---------------------------
         Total time          5.63


  Total CPU  time used in CCEQ_SOLV:  5 minutes 38 seconds
  Total wall time used in CCEQ_SOLV:  9 minutes 23 seconds


 xxxxxxxxxxxxxxxxxxxxxxxxxxxxxxxxxxxxx

 
 Solution of CC response equations completed.
 

 *******************************************************************
 *                                                                 *
 *--------  OUTPUT FROM COUPLED CLUSTER LINEAR RESPONSE   ---------*
 *                                                                 *
 *--------      CALCULATION OF SECOND ORDER RESIDUES      ---------*
 *                                                                 *
 *******************************************************************



                  +---------------------------------------------+
                  ! CC_SOPR: Calculation of CCSD       Residues !
                  +---------------------------------------------+

 Doing the Mf*CsiA
 Doing the Mf*CsiA
 Doing the Mf*CsiA


 CCSD  Right transition moments in atomic units:
 -----------------------------------------------

  1      15.126325  <XDIPLEN |f> =      -0.00000003
  1      15.126325  <YDIPLEN |f> =      -0.00000000
  1      15.126325  <ZDIPLEN |f> =      -0.00000003


 CCSD  Left  transition moments in atomic units:
 -----------------------------------------------

  1      15.126325  <f|XDIPLEN > =      -0.00000001
  1      15.126325  <f|YDIPLEN > =      -0.00000000
  1      15.126325  <f|ZDIPLEN > =      -0.00000001


 CCSD  linear response residue property in atomic units:
 -------------------------------------------------------

 RES{<<XDIPLEN ,XDIPLEN >>(15.126325)} =     0.00000000 (   0.00000002)
 RES{<<XDIPLEN ,YDIPLEN >>(15.126325)} =     0.00000000 (   0.00000001)
 RES{<<XDIPLEN ,ZDIPLEN >>(15.126325)} =     0.00000000 (   0.00000002)
 RES{<<YDIPLEN ,XDIPLEN >>(15.126325)} =     0.00000000 (   0.00000001)
 RES{<<YDIPLEN ,YDIPLEN >>(15.126325)} =     0.00000000 (   0.00000000)
 RES{<<YDIPLEN ,ZDIPLEN >>(15.126325)} =     0.00000000 (   0.00000001)
 RES{<<ZDIPLEN ,XDIPLEN >>(15.126325)} =     0.00000000 (   0.00000002)
 RES{<<ZDIPLEN ,YDIPLEN >>(15.126325)} =     0.00000000 (   0.00000001)
 RES{<<ZDIPLEN ,ZDIPLEN >>(15.126325)} =     0.00000000 (   0.00000002)


 CCSD  Transition strength matrix for state nr.  1 of symmetry 1
 CCSD  excitation energy:15.12632450

 Gauge: length

               Column   1     Column   2     Column   3
       1     4.060408D-16   5.058804D-17   3.837196D-16
       2     5.058804D-17   6.297996D-18   4.779757D-17
       3     3.837196D-16   4.779757D-17   3.626061D-16
    ==== End of matrix output ====

 Principal values of diagonalized transition strength matrix:

             a.u.               
 1       0.00000000
 2       0.00000000
 3       0.00000000

 Principal axis of diagonalized transition strength matrix:


               Column   1     Column   2     Column   3
       1       1.00000000     0.00000000     0.00000000
       2       0.00000000     1.00000000     0.00000000
       3       0.00000000     0.00000000     1.00000000
    ==== End of matrix output ====


 CCSD   oscillator strength matrix for state nr.  1 of symmetry 1
 CCSD  excitation energy:15.12632450


               Column   1     Column   2     Column   3
       1     4.094604D-15   5.101407D-16   3.869511D-15
       2     5.101407D-16   6.351035D-17   4.820010D-16
       3     3.869511D-15   4.820010D-16   3.656599D-15
    ==== End of matrix output ====

 Principal values of diagonalized oscillator strength matrix:

             a.u.               
 1       0.00000000
 2       0.00000000
 3       0.00000000

 Principal axis of diagonalized oscillator strength matrix:


               Column   1     Column   2     Column   3
       1       1.00000000     0.00000000     0.00000000
       2       0.00000000     1.00000000     0.00000000
       3       0.00000000     0.00000000     1.00000000
    ==== End of matrix output ====

  Total time for      9 linear response residues:       3.24 seconds.
  

 *******************************************************************************
 *******************************************************************************
 *                                                                             *
 *                                                                             *
 *                   SUMMARY OF COUPLED CLUSTER CALCULATION                    *
 *                                                                             *
 *                                                                             *
 *******************************************************************************
 *******************************************************************************

                                                                                
                                                                                
            Total SCF   energy:                  -361.2236673092                
            Total MP2   energy:                  -362.3288388453                
            Total CCSD  energy:                  -362.3704345441                
                                                                                
                                                                                
            Total SCF   energy:                  -361.2236673092                
            Total RSTAR energy:                  -362.3704345441                
            Total CCSD  energy:                  -362.3705866296                
                                                                                
                                                                                
            Total SCF   energy:                  -361.2236673092                
            Total RSTAR energy:                  -362.3705866296                
            Total CCSD  energy:                  -362.3705894044                
                                                                                
                                                                                
            Total SCF   energy:                  -361.2236673092                
            Total RSTAR energy:                  -362.3705894044                
            Total CCSD  energy:                  -362.3705896061                
                                                                                
                                                                                
            Total SCF   energy:                  -361.2236673092                
            Total RSTAR energy:                  -362.3705896061                
            Total CCSD  energy:                  -362.3705896186                
                                                                                
                                                                                
            Total SCF   energy:                  -361.2236673092                
            Total RSTAR energy:                  -362.3705896186                
            Total CCSD  energy:                  -362.3705896193                
                                                                                
                                                                                
            Total SCF   energy:                  -361.2236673092                
            Total RSTAR energy:                  -362.3705896193                
            Total CCSD  energy:                  -362.3705896194                
            CCSD Total  energy:                  -362.8198697274                
            CCSD E(QM/MM)     :                    -0.4444328026                
                                                                                
                                                                                
                                                                                
 +=============================================================================+
 |  sym. | Exci.  |        CCSD       Excitation energies            | ||T1||  |
 |(spin, |        +------------------------------------------------------------+
 | spat) |        |     Hartree    |       eV.      |     cm-1       |    %    |
 +=============================================================================+
 | ^1A   |    1   |    15.1263245  |     411.60823  |   3319844.463  |  88.26  |
 +=============================================================================+
                                                                                
                                                                                
     Total energies in Hartree:                                                 
             1 ^1A       -347.2491124243                                        
                                                                                
                                                                                
 +=============================================================================+
 |  sym. | Exci.  |        CCSD       Length   Gauge Oscillator Strength       |
 |(spin, |        +------------------------------------------------------------+
 | spat) |        | Dipole Strength(a.u.) | Oscillator strength  | Direction   |
 +=============================================================================+
 | ^1A   |    1   |        0.0000000      |      0.0000000       |    -        |
 +=============================================================================+

  1 a.u. =        27.21138 eV.  
  1 a.u. =    219474.62934 cm-1.
  

 *******************************************************************************
 *******************************************************************************
 *                                                                             *
 *                                                                             *
 *                      END OF COUPLED CLUSTER CALCULATION                     *
 *                                                                             *
 *                                                                             *
 *******************************************************************************
 *******************************************************************************


 CPU and wall time for CC :    6693.248   10327.117

 
     Date and time (Linux)  : Wed Nov 28 19:52:35 2018
     Host name              : n-62-29-9                               


                      .-------------------------------------.
                      | End of Coupled Cluster Section (CC) |
                      `-------------------------------------'

  Total CPU  time used in DALTON:   1 hour  53 minutes 40 seconds
  Total wall time used in DALTON:   2 hours 55 minutes 26 seconds

 
     Date and time (Linux)  : Wed Nov 28 19:52:35 2018
     Host name              : n-62-29-9                               
  

 +---------------------------------------------------------+ 
 | List of selected calculated molecular properties (a.u.) | 
 +---------------------------------------------------------+ 

  Properties are read from unit number                      4

 CCSD       properties :
 #  1 1 CCSD/MM  Ground state Energy =    -362.8198697274
 #  2 1 E_QM/MM  Ground state Energy =      -0.4444328026
 #  3 1 Sy: 1 Sp: 1 Exc:  1 E_tot:   -347.2491124243 w:     15.1263245005 E_grs:   -362.3754369249
 #  4 1 Exctot   Excited state Energy =    -347.2491124243
 #  5 1 |<O|XDIPLEN |i(15.126325)>| =     0.00000002
 #  7 1 |<O|YDIPLEN |i(15.126325)>| =     0.00000000
 #  9 1 |<O|ZDIPLEN |i(15.126325)>| =     0.00000002

 THE_END   
