

     ************************************************************************
     *************** Dalton - An Electronic Structure Program ***************
     ************************************************************************

    This is output from DALTON release Dalton2017.alpha (2016)
         ( Web site: http://daltonprogram.org )

   ----------------------------------------------------------------------------

    NOTE:
     
    Dalton is an experimental code for the evaluation of molecular
    properties using (MC)SCF, DFT, CI, and CC wave functions.
    The authors accept no responsibility for the performance of
    the code or for the correctness of the results.
     
    The code (in whole or part) is provided under a licence and
    is not to be reproduced for further distribution without
    the written permission of the authors or their representatives.
     
    See the home page "http://daltonprogram.org" for further information.
     
    If results obtained with this code are published,
    the appropriate citations would be both of:
     
       K. Aidas, C. Angeli, K. L. Bak, V. Bakken, R. Bast,
       L. Boman, O. Christiansen, R. Cimiraglia, S. Coriani,
       P. Dahle, E. K. Dalskov, U. Ekstroem,
       T. Enevoldsen, J. J. Eriksen, P. Ettenhuber, B. Fernandez,
       L. Ferrighi, H. Fliegl, L. Frediani, K. Hald, A. Halkier,
       C. Haettig, H. Heiberg, T. Helgaker, A. C. Hennum,
       H. Hettema, E. Hjertenaes, S. Hoest, I.-M. Hoeyvik,
       M. F. Iozzi, B. Jansik, H. J. Aa. Jensen, D. Jonsson,
       P. Joergensen, J. Kauczor, S. Kirpekar,
       T. Kjaergaard, W. Klopper, S. Knecht, R. Kobayashi, H. Koch,
       J. Kongsted, A. Krapp, K. Kristensen, A. Ligabue,
       O. B. Lutnaes, J. I. Melo, K. V. Mikkelsen, R. H. Myhre,
       C. Neiss, C. B. Nielsen, P. Norman, J. Olsen,
       J. M. H. Olsen, A. Osted, M. J. Packer, F. Pawlowski,
       T. B. Pedersen, P. F. Provasi, S. Reine, Z. Rinkevicius,
       T. A. Ruden, K. Ruud, V. Rybkin, P. Salek, C. C. M. Samson,
       A. Sanchez de Meras, T. Saue, S. P. A. Sauer,
       B. Schimmelpfennig, K. Sneskov, A. H. Steindal,
       K. O. Sylvester-Hvid, P. R. Taylor, A. M. Teale,
       E. I. Tellgren, D. P. Tew, A. J. Thorvaldsen, L. Thoegersen,
       O. Vahtras, M. A. Watson, D. J. D. Wilson, M. Ziolkowski
       and H. Agren,
       "The Dalton quantum chemistry program system",
       WIREs Comput. Mol. Sci. 2014, 4:269–284 (doi: 10.1002/wcms.1172)
     
    and
     
       Dalton, a Molecular Electronic Structure Program,
       Release Dalton2017.alpha (2016), see http://daltonprogram.org
   ----------------------------------------------------------------------------

    Authors in alphabetical order (major contribution(s) in parenthesis):

  Kestutis Aidas,           Vilnius University,           Lithuania   (QM/MM)
  Celestino Angeli,         University of Ferrara,        Italy       (NEVPT2)
  Keld L. Bak,              UNI-C,                        Denmark     (AOSOPPA, non-adiabatic coupling, magnetic properties)
  Vebjoern Bakken,          University of Oslo,           Norway      (DALTON; geometry optimizer, symmetry detection)
  Radovan Bast,             UiT The Arctic U. of Norway,  Norway      (DALTON installation and execution frameworks)
  Pablo Baudin,             University of Valencia,       Spain       (Cholesky excitation energies)
  Linus Boman,              NTNU,                         Norway      (Cholesky decomposition and subsystems)
  Ove Christiansen,         Aarhus University,            Denmark     (CC module)
  Renzo Cimiraglia,         University of Ferrara,        Italy       (NEVPT2)
  Sonia Coriani,            University of Trieste,        Italy       (CC module, MCD in RESPONS)
  Janusz Cukras,            University of Trieste,        Italy       (MChD in RESPONS)
  Paal Dahle,               University of Oslo,           Norway      (Parallelization)
  Erik K. Dalskov,          UNI-C,                        Denmark     (SOPPA)
  Thomas Enevoldsen,        Univ. of Southern Denmark,    Denmark     (SOPPA)
  Janus J. Eriksen,         Aarhus University,            Denmark     (Polarizable embedding model, TDA)
  Rasmus Faber,             University of Copenhagen,     Denmark     (Vib.avg. NMR with SOPPA, parallel AO-SOPPA)
  Berta Fernandez,          U. of Santiago de Compostela, Spain       (doublet spin, ESR in RESPONS)
  Lara Ferrighi,            Aarhus University,            Denmark     (PCM Cubic response)
  Heike Fliegl,             University of Oslo,           Norway      (CCSD(R12))
  Luca Frediani,            UiT The Arctic U. of Norway,  Norway      (PCM)
  Bin Gao,                  UiT The Arctic U. of Norway,  Norway      (Gen1Int library)
  Christof Haettig,         Ruhr-University Bochum,       Germany     (CC module)
  Kasper Hald,              Aarhus University,            Denmark     (CC module)
  Asger Halkier,            Aarhus University,            Denmark     (CC module)
  Frederik Beyer Hansen,    University of Copenhagen,     Denmark     (Parallel AO-SOPPA)
  Erik D. Hedegaard,        Univ. of Southern Denmark,    Denmark     (Polarizable embedding model, QM/MM)
  Hanne Heiberg,            University of Oslo,           Norway      (geometry analysis, selected one-electron integrals)
  Trygve Helgaker,          University of Oslo,           Norway      (DALTON; ABACUS, ERI, DFT modules, London, and much more)
  Alf Christian Hennum,     University of Oslo,           Norway      (Parity violation)
  Hinne Hettema,            University of Auckland,       New Zealand (quadratic response in RESPONS; SIRIUS supersymmetry)
  Eirik Hjertenaes,         NTNU,                         Norway      (Cholesky decomposition)
  Pi A. B. Haase,           University of Copenhagen,     Denmark     (Triplet AO-SOPPA)
  Maria Francesca Iozzi,    University of Oslo,           Norway      (RPA)
  Brano Jansik              Technical Univ. of Ostrava    Czech Rep.  (DFT cubic response)
  Hans Joergen Aa. Jensen,  Univ. of Southern Denmark,    Denmark     (DALTON; SIRIUS, RESPONS, ABACUS modules, London, and much more)
  Dan Jonsson,              UiT The Arctic U. of Norway,  Norway      (cubic response in RESPONS module)
  Poul Joergensen,          Aarhus University,            Denmark     (RESPONS, ABACUS, and CC modules)
  Maciej Kaminski,          University of Warsaw,         Poland      (CPPh in RESPONS)
  Joanna Kauczor,           Linkoeping University,        Sweden      (Complex polarization propagator (CPP) module)
  Sheela Kirpekar,          Univ. of Southern Denmark,    Denmark     (Mass-velocity & Darwin integrals)
  Wim Klopper,              KIT Karlsruhe,                Germany     (R12 code in CC, SIRIUS, and ABACUS modules)
  Stefan Knecht,            ETH Zurich,                   Switzerland (Parallel CI and MCSCF)
  Rika Kobayashi,           Australian National Univ.,    Australia   (DIIS in CC, London in MCSCF)
  Henrik Koch,              NTNU,                         Norway      (CC module, Cholesky decomposition)
  Jacob Kongsted,           Univ. of Southern Denmark,    Denmark     (Polarizable embedding model, QM/MM)
  Andrea Ligabue,           University of Modena,         Italy       (CTOCD, AOSOPPA)
  Nanna H. List             Univ. of Southern Denmark,    Denmark     (Polarizable embedding model)
  Ola B. Lutnaes,           University of Oslo,           Norway      (DFT Hessian)
  Juan I. Melo,             University of Buenos Aires,   Argentina   (LRESC, Relativistic Effects on NMR Shieldings)
  Kurt V. Mikkelsen,        University of Copenhagen,     Denmark     (MC-SCRF and QM/MM)
  Rolf H. Myhre,            NTNU,                         Norway      (Cholesky, subsystems and ECC2)
  Christian Neiss,          Univ. Erlangen-Nuernberg,     Germany     (CCSD(R12))
  Christian B. Nielsen,     University of Copenhagen,     Denmark     (QM/MM)
  Patrick Norman,           Linkoeping University,        Sweden      (Cubic response and complex frequency response in RESPONS)
  Jeppe Olsen,              Aarhus University,            Denmark     (SIRIUS CI/density modules)
  Jogvan Magnus H. Olsen,   Univ. of Southern Denmark,    Denmark     (Polarizable embedding model, QM/MM)
  Anders Osted,             Copenhagen University,        Denmark     (QM/MM)
  Martin J. Packer,         University of Sheffield,      UK          (SOPPA)
  Filip Pawlowski,          Kazimierz Wielki University,  Poland      (CC3)
  Morten N. Pedersen,       Univ. of Southern Denmark,    Denmark     (Polarizable embedding model)
  Thomas B. Pedersen,       University of Oslo,           Norway      (Cholesky decomposition)
  Patricio F. Provasi,      University of Northeastern,   Argentina   (Analysis of coupling constants in localized orbitals)
  Zilvinas Rinkevicius,     KTH Stockholm,                Sweden      (open-shell DFT, ESR)
  Elias Rudberg,            KTH Stockholm,                Sweden      (DFT grid and basis info)
  Torgeir A. Ruden,         University of Oslo,           Norway      (Numerical derivatives in ABACUS)
  Kenneth Ruud,             UiT The Arctic U. of Norway,  Norway      (DALTON; ABACUS magnetic properties and much more)
  Pawel Salek,              KTH Stockholm,                Sweden      (DALTON; DFT code)
  Claire C. M. Samson       University of Karlsruhe       Germany     (Boys localization, r12 integrals in ERI)
  Alfredo Sanchez de Meras, University of Valencia,       Spain       (CC module, Cholesky decomposition)
  Trond Saue,               Paul Sabatier University,     France      (direct Fock matrix construction)
  Stephan P. A. Sauer,      University of Copenhagen,     Denmark     (SOPPA(CCSD), SOPPA prop., AOSOPPA, vibrational g-factors)
  Bernd Schimmelpfennig,    Forschungszentrum Karlsruhe,  Germany     (AMFI module)
  Kristian Sneskov,         Aarhus University,            Denmark     (Polarizable embedding model, QM/MM)
  Arnfinn H. Steindal,      UiT The Arctic U. of Norway,  Norway      (parallel QM/MM, Polarizable embedding model)
  Casper Steinmann,         Univ. of Southern Denmark,    Denmark     (QFIT, Polarizable embedding model)
  K. O. Sylvester-Hvid,     University of Copenhagen,     Denmark     (MC-SCRF)
  Peter R. Taylor,          VLSCI/Univ. of Melbourne,     Australia   (Symmetry handling ABACUS, integral transformation)
  Andrew M. Teale,          University of Nottingham,     England     (DFT-AC, DFT-D)
  David P. Tew,             University of Bristol,        England     (CCSD(R12))
  Olav Vahtras,             KTH Stockholm,                Sweden      (triplet response, spin-orbit, ESR, TDDFT, open-shell DFT)
  David J. Wilson,          La Trobe University,          Australia   (DFT Hessian and DFT magnetizabilities)
  Hans Agren,               KTH Stockholm,                Sweden      (SIRIUS module, RESPONS, MC-SCRF solvation model)
 --------------------------------------------------------------------------------

     Date and time (Linux)  : Mon Dec  3 12:52:11 2018
     Host name              : n-62-24-5                               

 * Work memory size             :  1280000000 =  9.537 gigabytes.

 * Directories for basis set searches:
   1) /zhome/d7/7/119775/My_Codes/dalton-private/build2016/basis/diffs
   2) /zhome/37/3/129401/NH3NH4/CCSD/AIMD_SAMPLING/nh4_4h2o_nd
   3) /zhome/9a/4/124800/source/dalton/build-mlcc/basis


Compilation information
-----------------------

 Who compiled             | rfaber
 Host                     | hpclogin1
 System                   | Linux-2.6.32-696.1.1.el6.x86_64
 CMake generator          | Unix Makefiles
 Processor                | x86_64
 64-bit integers          | ON
 MPI                      | OFF
 Fortran compiler         | /opt/intel/2016update2/compilers_and_libraries_201
                          | 6.2.181/linux/bin/intel64/ifort
 Fortran compiler version | ifort (IFORT) 16.0.2 20160204
 C compiler               | /opt/intel/2016update2/compilers_and_libraries_201
                          | 6.2.181/linux/bin/intel64/icc
 C compiler version       | icc (ICC) 16.0.2 20160204
 C++ compiler             | /opt/intel/2016update2/compilers_and_libraries_201
                          | 6.2.181/linux/bin/intel64/icpc
 C++ compiler version     | icpc (ICC) 16.0.2 20160204
 Static linking           | OFF
 Last Git revision        | bb4d1599ca5680a9f3980451fc8bbefdba436d59
 Git branch               | mlcc
 Configuration time       | 2017-06-13 16:11:03.928841


   Content of the .dal input file
 ----------------------------------

**DALTON
.RUN WAVE FUNCTIONS
*QMMM
.QMMM
**INTEGRALS
.DIPLEN
**WAVE FUNCTIONS
.CC
*PRINT
!To check the origin of excit
.PRINTL
   0 11
*SCF INP
.THRESH
1.0D-7
!*ORBITAL INPUT
!.MOSTART
!NEWORB
*CC INP
!.RESTART
.CCSD
.THRLEQ
 1.0D-9
.THRENR
 1.0D-10
.FROIMP
4
0
.PRINT
 1
.MAX IT
 1200
.MAXRED
 1200
.MXLRV
1199
*CCSLV
.CCMM
.MXSLIT
200
.MXINIT
4 5
*CCEXCI
.NCCEXC
 1
.IONISATION
1
1
.CVSEPARA
1
1
*CCLRSD
.DIPOLE
**END OF DALTON INPUT


   Content of the .mol file
 ----------------------------

ATOMBASIS


Atomtypes=5 Charge=1 Nosymm Angstrom
   7.00000    1    Basis=6-311G**
N          0.000000        0.000000        0.000000
   1.00000    4    Basis=6-311G**
H         -0.215480        0.838059       -0.547509
H          1.023202       -0.211461        0.023264
H         -0.536262       -0.729994       -0.531331
H         -0.467733        0.060804        0.949813
   8.00000    4    Basis=6-311G**
O         -2.202989       -1.462428       -1.093562
O         -0.298346        2.795464       -0.830611
O         -0.463519       -1.140725        2.531783
O          2.633775       -1.374157       -0.893580
   1.00000    8    Basis=6-311G**
H         -2.501220       -2.278677       -0.570903
H         -2.822027       -0.730043       -0.849102
H          0.271961        2.666794       -1.609526
H         -1.199883        2.872744       -1.239653
H          0.434588       -1.460715        2.540928
H         -0.474417       -0.408393        3.214806
H          2.166442       -2.238229       -0.622753
H          3.534031       -1.415383       -0.415816
   0.00000    1    Basis=diffs
X          0.000000        0.000000        0.000000


       *******************************************************************
       *********** Output from DALTON general input processing ***********
       *******************************************************************

 --------------------------------------------------------------------------------
   Overall default print level:    0
   Print level for DALTON.STAT:    1

    HERMIT 1- and 2-electron integral sections will be executed
    "Old" integral transformation used (limited to max 255 basis functions)
    Wave function sections will be executed (SIRIUS module)
 --------------------------------------------------------------------------------


 Changes of defaults for *QMMM  :
 --------------------------------

 +------------------+
 |  WORD: | CHANGE: |
 +------------------+
 |   QMMM |       T |
 +------------------+
 


   ****************************************************************************
   *************** Output of molecule and basis set information ***************
   ****************************************************************************


    The two title cards from your ".mol" input:
    ------------------------------------------------------------------------
 1:                                                                         
 2:                                                                         
    ------------------------------------------------------------------------

  Coordinates are entered in Angstrom and converted to atomic units.
          - Conversion factor : 1 bohr = 0.52917721 A

  Atomic type no.    1
  --------------------
  Nuclear charge:   7.00000
  Number of symmetry independent centers:    1
  Number of basis sets to read;    2
  The basis set is "6-311G**" from the basis set library.
  Basis set file used for this atomic type with Z =   7 :
     "/zhome/9a/4/124800/source/dalton/build-mlcc/basis/6-311G**"

  Info about the basis set file: your basis has no documentation.
  Basis set: 6-311G**                                                                        

  Atomic type no.    2
  --------------------
  Nuclear charge:   1.00000
  Number of symmetry independent centers:    4
  Number of basis sets to read;    2
  The basis set is "6-311G**" from the basis set library.
  Basis set file used for this atomic type with Z =   1 :
     "/zhome/9a/4/124800/source/dalton/build-mlcc/basis/6-311G**"

  Info about the basis set file: your basis has no documentation.
  Basis set: 6-311G**                                                                        

  Atomic type no.    3
  --------------------
  Nuclear charge:   8.00000
  Number of symmetry independent centers:    4
  Number of basis sets to read;    2
  The basis set is "6-311G**" from the basis set library.
  Basis set file used for this atomic type with Z =   8 :
     "/zhome/9a/4/124800/source/dalton/build-mlcc/basis/6-311G**"

  Info about the basis set file: your basis has no documentation.
  Basis set: 6-311G**                                                                        

  Atomic type no.    4
  --------------------
  Nuclear charge:   1.00000
  Number of symmetry independent centers:    8
  Number of basis sets to read;    2
  The basis set is "6-311G**" from the basis set library.
  Basis set file used for this atomic type with Z =   1 :
     "/zhome/9a/4/124800/source/dalton/build-mlcc/basis/6-311G**"

  Info about the basis set file: your basis has no documentation.
  Basis set: 6-311G**                                                                        

  Atomic type no.    5
  --------------------
  Nuclear charge:   0.00000
  Number of symmetry independent centers:    1
  Number of basis sets to read;    2
  The basis set is "diffs" from the basis set library.
  Basis set file used for this atomic type with Z =   0 :
     "/zhome/9a/4/124800/source/dalton/build-mlcc/basis/diffs"

  Info about the basis set file: your basis has no documentation.
  Basis set: diffs                                                                           


                         SYMGRP: Point group information
                         -------------------------------

@    Point group: C1 


                                 Isotopic Masses
                                 ---------------

                           N          14.003074
                           H           1.007825
                           H           1.007825
                           H           1.007825
                           H           1.007825
                           O          15.994915
                           O          15.994915
                           O          15.994915
                           O          15.994915
                           H           1.007825
                           H           1.007825
                           H           1.007825
                           H           1.007825
                           H           1.007825
                           H           1.007825
                           H           1.007825
                           H           1.007825

                       Total mass:    90.076634 amu
                       Natural abundance:  98.500 %

 Center-of-mass coordinates (a.u.):   -0.127732   -0.460738   -0.088724


  Atoms and basis sets
  --------------------

  Number of atom types :    5
  Total number of atoms:   18

  label    atoms   charge   prim   cont     basis
  ----------------------------------------------------------------------
  N           1    7.0000    31    18      [11s5p1d|4s3p1d]                                   
  H           4    1.0000     8     6      [5s1p|3s1p]                                        
  O           4    8.0000    31    18      [11s5p1d|4s3p1d]                                   
  H           8    1.0000     8     6      [5s1p|3s1p]                                        
  X           1    0.0000     1     1      [1s|1s]                                            
  ----------------------------------------------------------------------
  total:     18   51.0000   252   163
  ----------------------------------------------------------------------
  Spherical harmonic basis used.

  Threshold for neglecting AO integrals:  1.00D-12


  Cartesian Coordinates (a.u.)
  ----------------------------

  Total number of coordinates:   54
  N       :     1  x   0.0000000000    2  y   0.0000000000    3  z   0.0000000000
  H       :     4  x  -0.4071981854    5  y   1.5837019866    6  z  -1.0346420610
  H       :     7  x   1.9335715505    8  y  -0.3996033761    9  z   0.0439625886
  H       :    10  x  -1.0133883112   11  y  -1.3794887329   12  z  -1.0040700717
  H       :    13  x  -0.8838872696   14  y   0.1149029073   15  z   1.7948864400
  O       :    16  x  -4.1630458664   17  y  -2.7635883975   18  z  -2.0665326807
  O       :    19  x  -0.5637922305   20  y   5.2826613523   21  z  -1.5696273064
  O       :    22  x  -0.8759239637   23  y  -2.1556578339   24  z   4.7843764779
  O       :    25  x   4.9771134249   26  y  -2.5967803827   27  z  -1.6886214708
  H       :    28  x  -4.7266207784   29  y  -4.3060754573   30  z  -1.0788503139
  H       :    31  x  -5.3328581473   32  y  -1.3795813295   33  z  -1.6045702322
  H       :    34  x   0.5139318067   35  y   5.0395102918   36  z  -3.0415633311
  H       :    37  x  -2.2674502520   38  y   5.4286993872   39  z  -2.3426046600
  H       :    40  x   0.8212522972   41  y  -2.7603512967   42  z   4.8016580233
  H       :    43  x  -0.8965181990   44  y  -0.7717509214   45  z   6.0751028850
  H       :    46  x   4.0939820457   47  y  -4.2296398150   48  z  -1.1768326135
  H       :    49  x   6.6783507072   50  y  -2.6746862320   51  z  -0.7857783584
  X       :    52  x   0.0000000000   53  y   0.0000000000   54  z   0.0000000000

  Max    interatomic separation is    6.4402 Angstrom (   12.1703 Bohr)
  between atoms   17 and   13, "H     " and "H     ".

  Min HX interatomic separation is    0.9535 Angstrom (    1.8018 Bohr)

  Min YX interatomic separation is    2.8153 Angstrom (    5.3202 Bohr)


  Bond distances (Angstrom):
  --------------------------

                  atom 1     atom 2       distance
                  ------     ------       --------
  bond distance:  H          N            1.023983
  bond distance:  H          N            1.045083
  bond distance:  H          N            1.050134
  bond distance:  H          N            1.060479
  bond distance:  H          O            1.014089
  bond distance:  H          O            0.989624
  bond distance:  H          O            0.973917
  bond distance:  H          O            0.993004
  bond distance:  H          O            0.953453
  bond distance:  H          O            1.001474
  bond distance:  H          O            1.019003
  bond distance:  H          O            1.020009


  Bond angles (degrees):
  ----------------------

                  atom 1     atom 2     atom 3         angle
                  ------     ------     ------         -----
  bond angle:     H          N          H            112.553
  bond angle:     H          N          H            101.007
  bond angle:     H          N          H            109.825
  bond angle:     H          N          H            111.751
  bond angle:     H          N          H            115.055
  bond angle:     H          N          H            105.533
  bond angle:     H          O          H            106.523
  bond angle:     H          O          H            102.268
  bond angle:     H          O          H            104.426
  bond angle:     H          O          H            104.242




 Principal moments of inertia (u*A**2) and principal axes
 --------------------------------------------------------

   IA     369.469455         -0.289755    0.869315   -0.400418
   IB     405.002641          0.932018    0.161128   -0.324624
   IC     494.511646          0.217682    0.467258    0.856904


 Rotational constants
 --------------------

               A                   B                   C

           1367.8506           1247.8413           1021.9759 MHz
            0.045627            0.041624            0.034089 cm-1


@  Nuclear repulsion energy :  196.177470690689 Hartree

  Number of floating/multiple basis set orbitals :    1


                     .---------------------------------------.
                     | Starting in Integral Section (HERMIT) |
                     `---------------------------------------'



 ***************************************************************************************
 ****************** Output from **INTEGRALS input processing (HERMIT) ******************
 ***************************************************************************************



    *************************************************************************
    ****************** Output from HERMIT input processing ******************
    *************************************************************************


 Default print level:        1

 * Nuclear model: Point charge

 Calculation of one- and two-electron Hamiltonian integrals.

 The following one-electron property integrals are calculated as requested:
          - overlap integrals
          - dipole length integrals

 Center of mass  (bohr):     -0.127731948224     -0.460737925704     -0.088724152491
 Operator center (bohr):      0.000000000000      0.000000000000      0.000000000000
 Gauge origin    (bohr):      0.000000000000      0.000000000000      0.000000000000
 Dipole origin   (bohr):      0.000000000000      0.000000000000      0.000000000000
 
  *********************************** 
  QMMM electrostatic potential: 
  Multipole order                                    0
  Isotropic polarization  
  *********************************** 
 
  ---------------- 
  QMMM information 
  ---------------- 
 
  MM coordinates in au 
  -------------------- 
     1      2.249842      4.313606     -5.702222
     2      3.048909      2.665073     -5.888143
     3      3.688230      5.491692     -6.163644
     4     11.182500     10.967897     -9.931828
     5      9.829170     12.246349     -9.786019
     6     10.433269      9.442340    -10.573647
     7      6.360958      7.200397     -6.697110
     8      6.890881      8.015615     -5.119835
     9      7.791991      6.257754     -7.364471
    10      8.601298      9.494466     -2.654884
    11      9.134951      8.528164     -1.142462
    12     10.241136      9.556073     -3.587131
    13     -9.441646     -6.749569     -7.041926
    14     -8.198006     -7.838266     -8.066538
    15     -8.876030     -5.050386     -7.541398
    16      5.688985      2.572724      2.051717
    17      5.279073      4.317539      2.306520
    18      6.507304      2.356300      0.489324
    19    -10.043637     10.209735     -5.219699
    20    -10.412722     10.445781     -7.083521
    21     -9.443961     11.759272     -4.359853
    22     -0.924390     -9.231783      2.079500
    23     -0.774627    -10.692471      0.926546
    24     -1.476987    -10.013462      3.782291
    25      6.457827      0.774468    -10.767835
    26      5.205211     -0.122144     -9.548758
    27      7.783863     -0.759541    -11.100658
    28      8.169944      9.715900      4.794785
    29      9.459714     11.107820      4.469250
    30      8.029628      9.368875      6.663560
    31     -0.065728      6.744903    -10.475973
    32     -1.126840      6.487989    -11.855172
    33     -0.092922      5.173739     -9.618026
    34     -7.514241      2.170256     -1.233054
    35     -8.679629      2.270498      0.188302
    36     -7.251888      3.834685     -2.121293
    37      8.945693     -8.133132     -8.255866
    38     10.628810     -7.327207     -7.822385
    39      8.294308     -8.541222     -6.558245
    40      3.748204     -0.651287     -6.780061
    41      1.850614     -1.005385     -6.525020
    42      4.682732     -1.266305     -5.293340
    43    -11.122429      0.613834     -4.761416
    44    -10.453007     -0.230352     -6.253828
    45     -9.620594      0.975530     -3.562068
    46     10.170083     -7.697180     -0.510115
    47      8.834398     -8.139198     -1.746400
    48     10.360040     -5.733030     -0.592837
    49     10.898357      6.647291      1.301392
    50     12.715791      7.271328      1.381256
    51     10.293510      7.470582      2.832786
    52      5.272850     -9.864735      9.568031
    53      4.722739    -11.310445      8.401671
    54      4.528833    -10.364966     11.189499
    55    -11.233488      1.742830      2.428398
    56    -11.211964      1.119727      4.129649
    57    -12.431068      3.110134      2.441849
    58      0.698207    -10.174747     -6.021663
    59      2.046868    -11.102693     -6.949211
    60     -0.684238    -11.352084     -6.369927
    61     -5.327231      1.434393     11.087008
    62     -3.486964      1.547860     11.610232
    63     -5.193876     -0.341999     10.219817
    64     -5.215259     -3.330824      8.629584
    65     -4.271541     -2.837220      7.161200
    66     -4.389403     -4.795586      9.506502
    67     -8.469342     -9.194466     -2.684299
    68     -8.609951     -7.989411     -4.267313
    69    -10.254990     -8.934748     -1.940790
    70     -3.027114      9.373557     -6.380033
    71     -3.652616      8.159692     -4.984185
    72     -2.239664      8.085938     -7.494094
    73     10.132615     -2.610439     11.505233
    74     10.771679     -1.671342      9.930414
    75      9.631932     -4.270456     11.014792
    76     -2.924610     -7.609636     11.259557
    77     -3.824125     -8.537344     12.757326
    78     -1.479593     -6.698805     12.129351
    79      4.185195      7.426686      2.821270
    80      5.707026      8.376056      3.772910
    81      3.594922      8.658704      1.622101
    82     -1.393289     -1.683905     -7.113419
    83     -0.823223     -3.365075     -7.736333
    84     -2.896202     -1.859651     -6.054667
    85      6.873550     -0.676101      5.757933
    86      6.310009      0.404502      4.250818
    87      5.605665     -0.854557      7.150155
    88      5.434095     -5.339672    -10.847024
    89      5.657075     -6.653575    -12.133276
    90      6.741728     -5.923543     -9.655083
    91      2.683111     -2.303172      9.133774
    92      2.385855     -3.760697      8.082045
    93      3.557944     -2.827013     10.697290
    94      4.168683      4.534744      9.390786
    95      2.900578      5.744909      9.946027
    96      4.617353      3.169554     10.824030
    97     -6.107829      9.321127      6.221111
    98     -7.095277      9.906415      7.657465
    99     -5.124518      7.916386      6.922197
   100     -7.470703     -7.195450      5.683784
   101     -6.691231     -7.070189      3.977369
   102     -7.355235     -5.514578      6.497292
   103     -5.815848    -10.426959     -9.038023
   104     -6.806453    -10.476394    -10.558009
   105     -5.012761    -12.082525     -8.897161
   106     10.009040     -7.787620      9.132574
   107      8.417116     -8.643114      9.232624
   108     10.027766     -7.080214      7.472109
   109     -8.445358    -10.865551      9.707005
   110     -9.941637    -11.367585     10.659614
   111     -8.737606     -9.183311      8.908133
   112     -5.581055     -6.936094      0.863242
   113     -3.883312     -7.697119      1.087932
   114     -6.656175     -8.057766     -0.347899
   115     11.369645      0.595266      7.449693
   116     11.551556      1.948512      8.621446
   117      9.562199      0.379863      6.773563
   118      7.476556     -5.853963      4.582455
   119      8.828071     -6.110575      3.384390
   120      7.285059     -4.035958      4.985128
   121      2.578170      9.562364      7.406834
   122      2.264213      8.693521      5.791744
   123      1.146837     10.847572      7.744674
   124     10.103075     -2.003849     -0.554347
   125     11.060062     -1.356440      0.976208
   126     10.724564     -1.042441     -2.219848
   127     -3.315685      5.588793      8.302935
   128     -1.860685      4.720553      7.466812
   129     -4.592199      4.260824      8.861088
   130    -10.738777      4.565788     10.547811
   131    -11.438240      4.258118     12.157816
   132     -9.115572      3.799366     10.380659
   133      9.827581      3.710970     -8.501899
   134      8.487155      2.671738     -9.318175
   135     10.544704      2.818578     -6.970962
   136      0.202839      3.180343      5.821577
   137      0.899948      3.990510      4.314281
   138      1.700224      2.962072      7.011545
   139     -0.407897      1.315852    -11.522722
   140      0.307800      0.176761    -12.777997
   141     -0.704110      0.510007     -9.887843
   142      2.221366     -6.379657      6.379647
   143      3.554471     -7.506695      6.832688
   144      0.789726     -7.545542      6.202903
   145      0.402268     -5.878218     -8.640157
   146      0.438426     -7.482594     -7.456954
   147      2.185714     -5.340238     -8.841590
   148     -8.814027     -1.693680     -9.225099
   149    -10.504859     -1.614333    -10.118274
   150     -7.526501     -0.623714    -10.004146
   151      3.809189     10.965274     -9.611487
   152      2.559560      9.833282    -10.283805
   153      5.150864      9.684230     -9.069578
   154      8.436919      7.913984      9.680870
   155      7.120197      6.607843      9.596749
   156      9.981416      6.924253      9.355201
   157      6.327929     -9.044656     -3.791352
   158      4.914985     -8.761628     -2.569674
   159      6.894250    -10.797682     -3.499510
   160      3.641735     -7.360995      0.126538
   161      4.547127     -7.180901      1.732004
   162      1.933768     -8.054410      0.542678
   163    -11.400786    -10.505483      3.461504
   164    -12.247546     -9.521718      2.221224
   165    -10.140852     -9.426158      4.312714
   166     -6.127407      6.895537     -3.129694
   167     -7.518559      7.866176     -3.918795
   168     -6.108415      7.683203     -1.286766
   169     -1.880542    -10.998457      6.861153
   170     -3.452411    -12.131915      6.853555
   171     -2.169283     -9.712788      8.160950
   172     -7.393497      8.851613      1.498451
   173     -7.939193     10.646016      1.381503
   174     -6.928154      8.839613      3.458206
   175      0.690232     10.296027     -1.143498
   176     -0.355108      8.816519     -0.879696
   177      0.600073     10.984077     -2.856896
 
  MM charges 
  ---------- 
     1     -0.674440
     2      0.337220
     3      0.337220
     4     -0.674440
     5      0.337220
     6      0.337220
     7     -0.674440
     8      0.337220
     9      0.337220
    10     -0.674440
    11      0.337220
    12      0.337220
    13     -0.674440
    14      0.337220
    15      0.337220
    16     -0.674440
    17      0.337220
    18      0.337220
    19     -0.674440
    20      0.337220
    21      0.337220
    22     -0.674440
    23      0.337220
    24      0.337220
    25     -0.674440
    26      0.337220
    27      0.337220
    28     -0.674440
    29      0.337220
    30      0.337220
    31     -0.674440
    32      0.337220
    33      0.337220
    34     -0.674440
    35      0.337220
    36      0.337220
    37     -0.674440
    38      0.337220
    39      0.337220
    40     -0.674440
    41      0.337220
    42      0.337220
    43     -0.674440
    44      0.337220
    45      0.337220
    46     -0.674440
    47      0.337220
    48      0.337220
    49     -0.674440
    50      0.337220
    51      0.337220
    52     -0.674440
    53      0.337220
    54      0.337220
    55     -0.674440
    56      0.337220
    57      0.337220
    58     -0.674440
    59      0.337220
    60      0.337220
    61     -0.674440
    62      0.337220
    63      0.337220
    64     -0.674440
    65      0.337220
    66      0.337220
    67     -0.674440
    68      0.337220
    69      0.337220
    70     -0.674440
    71      0.337220
    72      0.337220
    73     -0.674440
    74      0.337220
    75      0.337220
    76     -0.674440
    77      0.337220
    78      0.337220
    79     -0.674440
    80      0.337220
    81      0.337220
    82     -0.674440
    83      0.337220
    84      0.337220
    85     -0.674440
    86      0.337220
    87      0.337220
    88     -0.674440
    89      0.337220
    90      0.337220
    91     -0.674440
    92      0.337220
    93      0.337220
    94     -0.674440
    95      0.337220
    96      0.337220
    97     -0.674440
    98      0.337220
    99      0.337220
   100     -0.674440
   101      0.337220
   102      0.337220
   103     -0.674440
   104      0.337220
   105      0.337220
   106     -0.674440
   107      0.337220
   108      0.337220
   109     -0.674440
   110      0.337220
   111      0.337220
   112     -0.674440
   113      0.337220
   114      0.337220
   115     -0.674440
   116      0.337220
   117      0.337220
   118     -0.674440
   119      0.337220
   120      0.337220
   121     -0.674440
   122      0.337220
   123      0.337220
   124     -0.674440
   125      0.337220
   126      0.337220
   127     -0.674440
   128      0.337220
   129      0.337220
   130     -0.674440
   131      0.337220
   132      0.337220
   133     -0.674440
   134      0.337220
   135      0.337220
   136     -0.674440
   137      0.337220
   138      0.337220
   139     -0.674440
   140      0.337220
   141      0.337220
   142     -0.674440
   143      0.337220
   144      0.337220
   145     -0.674440
   146      0.337220
   147      0.337220
   148     -0.674440
   149      0.337220
   150      0.337220
   151     -0.674440
   152      0.337220
   153      0.337220
   154     -0.674440
   155      0.337220
   156      0.337220
   157     -0.674440
   158      0.337220
   159      0.337220
   160     -0.674440
   161      0.337220
   162      0.337220
   163     -0.674440
   164      0.337220
   165      0.337220
   166     -0.674440
   167      0.337220
   168      0.337220
   169     -0.674440
   170      0.337220
   171      0.337220
   172     -0.674440
   173      0.337220
   174      0.337220
   175     -0.674440
   176      0.337220
   177      0.337220
 
  MM isotropic polarizabilities in au 
  ----------------------------------- 
     1      5.739350
     2      2.308390
     3      2.308390
     4      5.739350
     5      2.308390
     6      2.308390
     7      5.739350
     8      2.308390
     9      2.308390
    10      5.739350
    11      2.308390
    12      2.308390
    13      5.739350
    14      2.308390
    15      2.308390
    16      5.739350
    17      2.308390
    18      2.308390
    19      5.739350
    20      2.308390
    21      2.308390
    22      5.739350
    23      2.308390
    24      2.308390
    25      5.739350
    26      2.308390
    27      2.308390
    28      5.739350
    29      2.308390
    30      2.308390
    31      5.739350
    32      2.308390
    33      2.308390
    34      5.739350
    35      2.308390
    36      2.308390
    37      5.739350
    38      2.308390
    39      2.308390
    40      5.739350
    41      2.308390
    42      2.308390
    43      5.739350
    44      2.308390
    45      2.308390
    46      5.739350
    47      2.308390
    48      2.308390
    49      5.739350
    50      2.308390
    51      2.308390
    52      5.739350
    53      2.308390
    54      2.308390
    55      5.739350
    56      2.308390
    57      2.308390
    58      5.739350
    59      2.308390
    60      2.308390
    61      5.739350
    62      2.308390
    63      2.308390
    64      5.739350
    65      2.308390
    66      2.308390
    67      5.739350
    68      2.308390
    69      2.308390
    70      5.739350
    71      2.308390
    72      2.308390
    73      5.739350
    74      2.308390
    75      2.308390
    76      5.739350
    77      2.308390
    78      2.308390
    79      5.739350
    80      2.308390
    81      2.308390
    82      5.739350
    83      2.308390
    84      2.308390
    85      5.739350
    86      2.308390
    87      2.308390
    88      5.739350
    89      2.308390
    90      2.308390
    91      5.739350
    92      2.308390
    93      2.308390
    94      5.739350
    95      2.308390
    96      2.308390
    97      5.739350
    98      2.308390
    99      2.308390
   100      5.739350
   101      2.308390
   102      2.308390
   103      5.739350
   104      2.308390
   105      2.308390
   106      5.739350
   107      2.308390
   108      2.308390
   109      5.739350
   110      2.308390
   111      2.308390
   112      5.739350
   113      2.308390
   114      2.308390
   115      5.739350
   116      2.308390
   117      2.308390
   118      5.739350
   119      2.308390
   120      2.308390
   121      5.739350
   122      2.308390
   123      2.308390
   124      5.739350
   125      2.308390
   126      2.308390
   127      5.739350
   128      2.308390
   129      2.308390
   130      5.739350
   131      2.308390
   132      2.308390
   133      5.739350
   134      2.308390
   135      2.308390
   136      5.739350
   137      2.308390
   138      2.308390
   139      5.739350
   140      2.308390
   141      2.308390
   142      5.739350
   143      2.308390
   144      2.308390
   145      5.739350
   146      2.308390
   147      2.308390
   148      5.739350
   149      2.308390
   150      2.308390
   151      5.739350
   152      2.308390
   153      2.308390
   154      5.739350
   155      2.308390
   156      2.308390
   157      5.739350
   158      2.308390
   159      2.308390
   160      5.739350
   161      2.308390
   162      2.308390
   163      5.739350
   164      2.308390
   165      2.308390
   166      5.739350
   167      2.308390
   168      2.308390
   169      5.739350
   170      2.308390
   171      2.308390
   172      5.739350
   173      2.308390
   174      2.308390
   175      5.739350
   176      2.308390
   177      2.308390


     ************************************************************************
     ************************** Output from HERINT **************************
     ************************************************************************



                      Nuclear contribution to dipole moments
                      --------------------------------------

                 au               Debye          C m (/(10**-30)

      x     -6.49202182       -16.50107249       -55.04165316
      y    -23.60128468       -59.98847820      -200.10002453
      z     -3.67654154        -9.34483590       -31.17101731



 Threshold for neglecting two-electron integrals:  1.00D-12
 HERMIT - Number of two-electron integrals written:    36476905 ( 40.8% )
 HERMIT - Megabytes written:                            417.678

  Time used in TWOINT     is       7.18 seconds
  Total CPU  time used in HERMIT:   7.36 seconds
  Total wall time used in HERMIT:   9.00 seconds


                        .----------------------------------.
                        | End of Integral Section (HERMIT) |
                        `----------------------------------'



                   .--------------------------------------------.
                   | Starting in Wave Function Section (SIRIUS) |
                   `--------------------------------------------'

NCCEXCI for singlet:    1
 CCSD_INPUT: core-val requested
 Requested number of virtual orbs per sym
                     1
 Indices of requested virtual orbs
                     1
 CCSD_INPUT: core-val requested
 Requested number of core orbs per sym
                     1
 Indices of requested core orbs
                     1

 *** Output from Huckel module :

     Using EWMO model:          T
     Using EHT  model:          F
     Number of Huckel orbitals each symmetry:   37

 EWMO - Energy Weighted Maximum Overlap - is a Huckel type method,
        which normally is better than Extended Huckel Theory.
 Reference: Linderberg and Ohrn, Propagators in Quantum Chemistry (Wiley, 1973)

 Huckel EWMO eigenvalues for symmetry :  1
          -20.684732     -20.684619     -20.684367     -20.684098     -15.675411
           -1.795588      -1.616196      -1.595952      -1.581350      -1.486700
           -0.811169      -0.788682      -0.786540      -0.773807      -0.756550
           -0.752718      -0.731365      -0.693025      -0.691232      -0.677979
           -0.666746      -0.612426      -0.581476      -0.569300      -0.556657
           -0.262208      -0.248057      -0.239832      -0.237097      -0.188316
           -0.185793      -0.181132      -0.176414      -0.173056      -0.152327
           -0.149207      -0.143676

 **********************************************************************
 *SIRIUS* a direct, restricted step, second order MCSCF program       *
 **********************************************************************

 
     Date and time (Linux)  : Mon Dec  3 12:52:21 2018
     Host name              : n-62-24-5                               

 Title lines from ".mol" input file:
                                                                             
                                                                             

 Print level on unit LUPRI =   2 is   0
 Print level on unit LUW4  =   2 is  11

@    (Integral direct) CC calculation.

@    This is a combination run starting with
@              a restricted, closed shell Hartree-Fock calculation


 Initial molecular orbitals are obtained according to
 ".MOSTART EWMO  " input option

@    QM part is embedded in an environment :

@         Model: QMMM

     Wave function specification
     ============================

     For the specification of the Coupled Cluster: see later.

@    Wave function type        --- CC ---
@    Number of closed shell electrons          50
@    Number of electrons in active shells       0
@    Total charge of the molecule               1

@    Spin multiplicity and 2 M_S                1         0
@    Total number of symmetries                 1 (point group: C1 )
@    Reference state symmetry                   1 (irrep name : A  )

     Orbital specifications
     ======================
@    Abelian symmetry species          All |    1
@                                          |  A  
                                       --- |  ---
@    Occupied SCF orbitals              25 |   25
@    Secondary orbitals                138 |  138
@    Total number of orbitals          163 |  163
@    Number of basis functions         163 |  163

     Optimization information
     ========================
@    Number of configurations                 1
@    Number of orbital rotations           3450
     ------------------------------------------
@    Total number of variables             3451

     Maximum number of Fock   iterations      0
     Maximum number of DIIS   iterations     60
     Maximum number of QC-SCF iterations     60
     Threshold for SCF convergence     1.00D-07


 Changes of defaults for CC:
 ---------------------------


 -Implicit frozen core calculation
 -Excitation energies calculated
 -One-photon absorption strengths will be calculated
 -Oscillator strengths calculated
  
* Read MO coefficients from SIRIUS.RST with label "NEWORB  " and header info:  3Dec18  REORTHO 


 ***********************************************
 ***** DIIS acceleration of SCF iterations *****
 ***********************************************

 C1-DIIS algorithm; max error vectors =    8
 -----------------------------------------------------------------------------

 *** DIIS iteration number    1
 RDSUPM called. NFMAT, ISYMDM(1:NFMAT)                     1
                     1

Calculating AOSUPINT
     (Precalculated two-electron integrals are transformed to P-supermatrix elements.
      Threshold for discarding integrals :  1.00D-12 )
  CPU  time used in FORMSUP    is   2.94 seconds
  WALL time used in FORMSUP    is  17.33 seconds

 ITDIIS, energy, error norm, change in energy, scr.thr., difden:
@ DIIS iter.   1    -360.209216584        4.02927D+00   -3.60D+02  -20    F

 (DIIS_RED) Control Parameters C2DIIS =         F NEVC =    1


 (DIIS_RED) B matrix:

               Column   1
       1      16.23498941
    ==== End of matrix output ====

 DIIS C vector; C2DIIS = F, LAMBDA = -1.62D+01
    1.000000
* Read MO coefficients from SIRIUS.RST with label "NEWORB  " and header info:  3Dec18  DIIS   1
      Virial theorem: -V/T =      2.003363
@      MULPOP N       0.17; H       0.16; H       0.15; H       0.17; H       0.16; O      -0.60; O      -0.62; O      -0.62; O      -0.62; H       0.32; 
@             H       0.33; H       0.34; H       0.33; H       0.34; H       0.33; H       0.33; H       0.32; 
   1  Level shift: doubly occupied orbital energies shifted by -2.00D-01

 DIIS Fock eigenvalues in symmetry 1
      -20.84365      -20.81695      -20.80890      -20.79044      -16.53057
       -1.76931       -1.67882       -1.63131       -1.62571       -1.61873
       -1.25010       -1.23994       -1.22686       -1.05901       -1.00973
       -1.00635       -0.98830       -0.91307       -0.88998       -0.87679
       -0.87538       -0.85950       -0.84723       -0.83819       -0.82621
       -0.04073       -0.00005        0.03196        0.03876        0.06342
        0.08059        0.09841        0.11335        0.12614        0.15493
        0.16255        0.18047        0.22035        0.23305        0.27834
        0.28296        0.40675        0.41727        0.44354        0.45689
        0.47229        0.47915        0.49023        0.49869        0.54762
        0.63556        0.64619        0.67875        0.83161        0.84419
        0.86434        0.88651        0.90533        0.93046        0.95544
        0.97463        0.98553        1.00647        1.01086        1.02660
        1.04597        1.05189        1.09356        1.18084        1.22084
        1.25869        1.29842        1.32463        1.33807        1.35596
        1.36630        1.37630        1.39179        1.40241        1.41155
        1.48568        1.50769        1.51727        1.53576        1.57954
        1.60998        1.71634        1.72414        1.73878        1.77096
        1.77809        1.80774        1.83190        1.93273        2.03741
        2.05049        2.06078        2.08726        2.09054        2.11352
        2.16488        2.16993        2.19218        2.21209        2.25536
        2.33476        2.44353        2.47453        2.50399        2.51303
        2.52927        2.59622        2.61744        2.62393        2.65595
        2.66944        2.68060        2.70727        2.72005        2.93121
        2.97471        3.01477        3.06963        3.30380        3.31670
        3.32631        3.35047        3.37550        3.38440        3.38791
        3.42255        3.49202        3.52533        3.53159        3.58304
        3.83920        3.86130        3.88068        3.91915        4.06321
        4.08454        4.08912        4.14559        4.59386        4.66938
        4.73016        5.27080        5.28507        5.29751        5.37890
        5.62875        5.67910        5.70093        5.74722        5.88951
        5.96325        5.98081        6.00094       36.27735       51.42479
       51.43923       51.45796       51.48733
 Time used in FCKEIG, thr_jaco:   4.60D-02  5.40D-02  1.71D-04
 CPU and wall times used in FCKEIG, THR_FCKEIG:   4.60D-02  5.40D-02  4.03D-02
 -----------------------------------------------------------------------------

 *** DIIS iteration number    2
 RDSUPM called. NFMAT, ISYMDM(1:NFMAT)                     1
                     1

 ITDIIS, energy, error norm, change in energy, scr.thr., difden:
@ DIIS iter.   2    -361.115137396        1.16764D+00   -9.06D-01  -20    F

 (DIIS_RED) Control Parameters C2DIIS =         F NEVC =    2


 (DIIS_RED) B matrix:

               Column   1     Column   2
       1      16.23498941
       2       0.48741429     1.36337274
    ==== End of matrix output ====

 DIIS C vector; C2DIIS = F, LAMBDA = -1.32D+00
    0.052694    0.947306
* Read MO coefficients from SIRIUS.RST with label "NEWORB  " and header info:  3Dec18  DIIS   2
      Virial theorem: -V/T =      2.002913
@      MULPOP N      -0.53; H       0.32; H       0.33; H       0.34; H       0.34; O      -0.56; O      -0.57; O      -0.52; O      -0.57; H       0.32; 
@             H       0.30; H       0.34; H       0.29; H       0.28; H       0.29; H       0.30; H       0.31; 
   2  Level shift: doubly occupied orbital energies shifted by -1.00D-01

 DIIS Fock eigenvalues in symmetry 1
      -20.80474      -20.79713      -20.77477      -20.74827      -15.67352
       -1.57087       -1.53488       -1.52496       -1.51283       -1.41344
       -0.93486       -0.90898       -0.89861       -0.89275       -0.88609
       -0.87775       -0.86463       -0.81174       -0.79527       -0.77375
       -0.76048       -0.74631       -0.73382       -0.71415       -0.69627
       -0.00005        0.02741        0.07570        0.08718        0.11706
        0.13331        0.15137        0.16033        0.17784        0.20667
        0.22002        0.24035        0.27057        0.33430        0.34633
        0.37145        0.44904        0.45563        0.48661        0.49205
        0.50846        0.51859        0.53254        0.57348        0.59957
        0.78128        0.79263        0.83557        0.85999        0.88156
        0.91613        0.92660        0.95478        0.97872        0.98911
        1.00577        1.01549        1.03689        1.05337        1.07361
        1.13126        1.13656        1.17784        1.22723        1.26443
        1.30912        1.35601        1.38548        1.40215        1.40741
        1.41791        1.42762        1.44808        1.45919        1.48000
        1.55838        1.58616        1.61215        1.62401        1.66217
        1.72251        1.77908        1.79130        1.79727        1.85362
        1.87558        1.89131        1.93275        2.04228        2.07771
        2.09930        2.12947        2.15901        2.20122        2.21791
        2.23839        2.25732        2.25906        2.32011        2.32413
        2.44168        2.55276        2.56542        2.59952        2.60851
        2.63576        2.68033        2.71240        2.71566        2.73163
        2.74203        2.76837        2.90440        2.95252        3.11512
        3.24871        3.27951        3.31533        3.33141        3.35125
        3.35519        3.36264        3.39732        3.40689        3.41325
        3.46474        3.50546        3.54486        3.55332        3.60532
        3.84782        3.88219        3.89547        3.94351        4.07121
        4.09880        4.10813        4.16238        5.00505        5.07804
        5.12550        5.26347        5.27607        5.28872        5.37901
        5.61306        5.67480        5.69224        5.74681        5.88593
        5.96878        5.99339        6.01284       37.01699       51.34775
       51.38051       51.39467       51.43209
 Time used in FCKEIG, thr_jaco:   3.10D-02  3.70D-02  4.97D-05
 CPU and wall times used in FCKEIG, THR_FCKEIG:   3.10D-02  3.70D-02  1.17D-02
 -----------------------------------------------------------------------------

 *** DIIS iteration number    3
 RDSUPM called. NFMAT, ISYMDM(1:NFMAT)                     1
                     1

 ITDIIS, energy, error norm, change in energy, scr.thr., difden:
@ DIIS iter.   3    -361.191243935        3.75295D-01   -7.61D-02  -20    F

 (DIIS_RED) Control Parameters C2DIIS =         F NEVC =    3


 (DIIS_RED) B matrix:

               Column   1     Column   2     Column   3
       1      16.23498941
       2       0.48741429     1.36337274
       3       0.82235185    -0.01657289     0.14084652
    ==== End of matrix output ====

 DIIS C vector; C2DIIS = F, LAMBDA = -9.48D-02
   -0.045092    0.097189    0.947903
* Read MO coefficients from SIRIUS.RST with label "NEWORB  " and header info:  3Dec18  DIIS   3
      Virial theorem: -V/T =      2.003439
@      MULPOP N      -0.32; H       0.28; H       0.28; H       0.29; H       0.29; O      -0.63; O      -0.63; O      -0.57; O      -0.63; H       0.35; 
@             H       0.33; H       0.37; H       0.31; H       0.30; H       0.31; H       0.33; H       0.34; 
   3  Level shift: doubly occupied orbital energies shifted by -5.00D-02

 DIIS Fock eigenvalues in symmetry 1
      -20.71128      -20.70114      -20.67669      -20.65671      -15.83082
       -1.50209       -1.46558       -1.45415       -1.44482       -1.41395
       -0.89293       -0.88115       -0.86523       -0.85981       -0.82251
       -0.81575       -0.79560       -0.74108       -0.72425       -0.70169
       -0.69012       -0.67264       -0.65678       -0.63670       -0.62191
       -0.00005        0.03226        0.08174        0.09306        0.12208
        0.13892        0.15602        0.16249        0.18067        0.21077
        0.22215        0.24384        0.27178        0.33234        0.34830
        0.37206        0.45887        0.46641        0.49728        0.50316
        0.52002        0.52928        0.54311        0.57830        0.60652
        0.77017        0.78038        0.81842        0.87682        0.89395
        0.92937        0.93922        0.96224        0.99069        1.00399
        1.02048        1.02999        1.05214        1.06756        1.08786
        1.12842        1.13569        1.17626        1.23865        1.27486
        1.32169        1.36569        1.39857        1.41678        1.42231
        1.43234        1.44303        1.46255        1.47416        1.49030
        1.56986        1.59734        1.61962        1.62773        1.67161
        1.72415        1.79061        1.80374        1.81078        1.86081
        1.88806        1.89141        1.93432        2.04586        2.09429
        2.11780        2.14788        2.17686        2.20140        2.22481
        2.24279        2.27245        2.27491        2.32400        2.33837
        2.44964        2.56373        2.57304        2.60778        2.61606
        2.64073        2.69398        2.72098        2.72803        2.74247
        2.74925        2.77998        2.87452        2.92113        3.10734
        3.20745        3.24801        3.30679        3.34317        3.36908
        3.37612        3.38850        3.42354        3.43459        3.43557
        3.47766        3.53327        3.57427        3.58113        3.63216
        3.87412        3.90793        3.92420        3.96732        4.09976
        4.12983        4.13630        4.19005        4.92296        4.99700
        5.05184        5.29110        5.31037        5.32317        5.40752
        5.64561        5.70650        5.72743        5.77691        5.91989
        6.00492        6.02661        6.04502       36.81588       51.39377
       51.42412       51.44275       51.47384
 Time used in FCKEIG, thr_jaco:   2.80D-02  4.80D-02  1.60D-05
 CPU and wall times used in FCKEIG, THR_FCKEIG:   2.80D-02  4.80D-02  3.75D-03
 -----------------------------------------------------------------------------

 *** DIIS iteration number    4
 RDSUPM called. NFMAT, ISYMDM(1:NFMAT)                     1
                     1

 ITDIIS, energy, error norm, change in energy, scr.thr., difden:
@ DIIS iter.   4    -361.201300001        9.11847D-02   -1.01D-02  -20    F

 (DIIS_RED) Control Parameters C2DIIS =         F NEVC =    4


 (DIIS_RED) B matrix:

               Column   1     Column   2     Column   3     Column   4
       1      16.23498941
       2       0.48741429     1.36337274
       3       0.82235185    -0.01657289     0.14084652
       4       0.04995450     0.07774578     0.00490845     0.00831466
    ==== End of matrix output ====

 DIIS C vector; C2DIIS = F, LAMBDA = -4.32D-03
   -0.000880   -0.057430   -0.008128    1.066438
* Read MO coefficients from SIRIUS.RST with label "NEWORB  " and header info:  3Dec18  DIIS   4
      Virial theorem: -V/T =      2.003471
@      MULPOP N      -0.39; H       0.29; H       0.30; H       0.31; H       0.31; O      -0.64; O      -0.64; O      -0.57; O      -0.64; H       0.36; 
@             H       0.34; H       0.38; H       0.32; H       0.30; H       0.31; H       0.34; H       0.34; 
   4  Level shift: doubly occupied orbital energies shifted by -1.25D-02

 DIIS Fock eigenvalues in symmetry 1
      -20.68699      -20.67729      -20.65530      -20.63277      -15.76306
       -1.46925       -1.43284       -1.42171       -1.41207       -1.36588
       -0.84514       -0.83321       -0.82911       -0.81359       -0.78824
       -0.78242       -0.76204       -0.70555       -0.68922       -0.66686
       -0.65517       -0.63545       -0.61992       -0.60031       -0.58446
       -0.00005        0.03286        0.08109        0.09267        0.12239
        0.13839        0.15661        0.16358        0.18225        0.21163
        0.22437        0.24541        0.27467        0.33812        0.35213
        0.37643        0.45876        0.46632        0.49665        0.50218
        0.51937        0.52811        0.54203        0.58029        0.60673
        0.77639        0.78666        0.82535        0.87672        0.89484
        0.92996        0.94003        0.96423        0.99073        1.00302
        1.01951        1.03000        1.05067        1.06724        1.08739
        1.13368        1.13838        1.17815        1.23912        1.27535
        1.32190        1.36686        1.39823        1.41548        1.42031
        1.43095        1.44125        1.46114        1.47264        1.49032
        1.57032        1.59791        1.62057        1.63299        1.67123
        1.72929        1.78952        1.80333        1.80969        1.86369
        1.88690        1.89586        1.93892        2.05045        2.09143
        2.11536        2.14478        2.17384        2.20691        2.22674
        2.24511        2.27048        2.27305        2.32836        2.33582
        2.45190        2.56363        2.57719        2.60887        2.61900
        2.64395        2.69294        2.72210        2.72638        2.74395
        2.75229        2.77882        2.88450        2.93163        3.11492
        3.21967        3.25871        3.31559        3.34045        3.36705
        3.37325        3.38523        3.42044        3.43067        3.43281
        3.47606        3.53001        3.57051        3.57785        3.62882
        3.87055        3.90455        3.91979        3.96389        4.09639
        4.12554        4.13302        4.18652        4.93985        5.01371
        5.06754        5.28540        5.30346        5.31606        5.40159
        5.63953        5.70071        5.72001        5.77094        5.91289
        5.99673        6.01997        6.03795       36.84581       51.38046
       51.41124       51.42705       51.46061
 Time used in FCKEIG, thr_jaco:   2.40D-02  4.00D-02  3.88D-06
 CPU and wall times used in FCKEIG, THR_FCKEIG:   2.40D-02  4.00D-02  9.12D-04
 -----------------------------------------------------------------------------

 *** DIIS iteration number    5
 RDSUPM called. NFMAT, ISYMDM(1:NFMAT)                     1
                     1

 ITDIIS, energy, error norm, change in energy, scr.thr., difden:
@ DIIS iter.   5    -361.202251476        2.89831D-02   -9.51D-04  -20    F

 (DIIS_RED) Control Parameters C2DIIS =         F NEVC =    5


 (DIIS_RED) B matrix:

               Column   1     Column   2     Column   3     Column   4     Column   5
       1      16.23498941
       2       0.48741429     1.36337274
       3       0.82235185    -0.01657289     0.14084652
       4       0.04995450     0.07774578     0.00490845     0.00831466
       5       0.02219101     0.00688718     0.00546134     0.00072602     0.00084002
    ==== End of matrix output ====

 DIIS C vector; C2DIIS = F, LAMBDA = -5.74D-04
    0.000939   -0.011955   -0.043221    0.119091    0.935145
* Read MO coefficients from SIRIUS.RST with label "NEWORB  " and header info:  3Dec18  DIIS   5
      Virial theorem: -V/T =      2.003086
@      MULPOP N      -0.38; H       0.29; H       0.29; H       0.30; H       0.30; O      -0.65; O      -0.65; O      -0.58; O      -0.66; H       0.36; 
@             H       0.34; H       0.38; H       0.32; H       0.31; H       0.32; H       0.34; H       0.35; 

 DIIS Fock eigenvalues in symmetry 1
      -20.66790      -20.65811      -20.63446      -20.61372      -15.74641
       -1.45439       -1.41795       -1.40626       -1.39726       -1.35162
       -0.83101       -0.81899       -0.81490       -0.79928       -0.77407
       -0.76782       -0.74794       -0.69111       -0.67485       -0.65188
       -0.64087       -0.61994       -0.60424       -0.58415       -0.56876
       -0.00005        0.03333        0.08140        0.09307        0.12285
        0.13870        0.15705        0.16412        0.18282        0.21221
        0.22512        0.24606        0.27555        0.33929        0.35305
        0.37749        0.45946        0.46700        0.49728        0.50283
        0.52004        0.52868        0.54267        0.58106        0.60751
        0.77784        0.78805        0.82666        0.87848        0.89644
        0.93156        0.94181        0.96592        0.99227        1.00444
        1.02111        1.03162        1.05212        1.06895        1.08902
        1.13510        1.13983        1.17952        1.24059        1.27688
        1.32328        1.36825        1.39908        1.41608        1.42072
        1.43160        1.44190        1.46190        1.47333        1.49122
        1.57104        1.59875        1.62129        1.63406        1.67185
        1.73047        1.78969        1.80373        1.81000        1.86466
        1.88708        1.89703        1.94002        2.05169        2.09214
        2.11618        2.14576        2.17461        2.20819        2.22782
        2.24623        2.27153        2.27424        2.32943        2.33670
        2.45271        2.56396        2.57819        2.60947        2.61988
        2.64479        2.69307        2.72275        2.72637        2.74425
        2.75329        2.77894        2.88607        2.93328        3.11632
        3.22158        3.26073        3.31775        3.34304        3.36954
        3.37631        3.38781        3.42294        3.43374        3.43521
        3.47837        3.53252        3.57342        3.58044        3.63118
        3.87303        3.90700        3.92283        3.96626        4.09907
        4.12885        4.13566        4.18910        4.94227        5.01615
        5.07002        5.28943        5.30794        5.32064        5.40551
        5.64331        5.70439        5.72467        5.77451        5.91643
        6.00112        6.02341        6.04131       36.84988       51.38706
       51.41774       51.43527       51.46708
 Time used in FCKEIG, thr_jaco:   2.40D-02  3.60D-02  1.23D-06
 CPU and wall times used in FCKEIG, THR_FCKEIG:   2.40D-02  3.60D-02  2.90D-04
 -----------------------------------------------------------------------------

 *** DIIS iteration number    6
 RDSUPM called. NFMAT, ISYMDM(1:NFMAT)                     1
                     1

 ITDIIS, energy, error norm, change in energy, scr.thr., difden:
@ DIIS iter.   6    -361.202334004        1.07049D-02   -8.25D-05  -20    F

 (DIIS_RED) Control Parameters C2DIIS =         F NEVC =    6


 (DIIS_RED) B matrix:

               Column   1     Column   2     Column   3     Column   4     Column   5     Column   6
       1      16.23498941
       2       0.48741429     1.36337274
       3       0.82235185    -0.01657289     0.14084652
       4       0.04995450     0.07774578     0.00490845     0.00831466
       5       0.02219101     0.00688718     0.00546134     0.00072602     0.00084002
       6      -0.00465934    -0.00010582     0.00073800     0.00053470     0.00002034     0.00011460
    ==== End of matrix output ====

 DIIS C vector; C2DIIS = F, LAMBDA = -3.66D-05
    0.000785    0.006823   -0.008621   -0.134695    0.114612    1.021096
* Read MO coefficients from SIRIUS.RST with label "NEWORB  " and header info:  3Dec18  DIIS   6
      Virial theorem: -V/T =      2.003338
@      MULPOP N      -0.37; H       0.29; H       0.29; H       0.30; H       0.30; O      -0.65; O      -0.65; O      -0.58; O      -0.66; H       0.36; 
@             H       0.34; H       0.38; H       0.32; H       0.31; H       0.32; H       0.34; H       0.35; 

 DIIS Fock eigenvalues in symmetry 1
      -20.66964      -20.66003      -20.63688      -20.61559      -15.74836
       -1.45482       -1.41846       -1.40694       -1.39777       -1.35208
       -0.83142       -0.81937       -0.81537       -0.79967       -0.77463
       -0.76854       -0.74855       -0.69181       -0.67564       -0.65277
       -0.64170       -0.62015       -0.60443       -0.58454       -0.56890
       -0.00005        0.03323        0.08126        0.09293        0.12274
        0.13856        0.15696        0.16400        0.18276        0.21211
        0.22503        0.24593        0.27545        0.33921        0.35300
        0.37739        0.45925        0.46683        0.49706        0.50258
        0.51983        0.52842        0.54241        0.58091        0.60729
        0.77756        0.78777        0.82637        0.87819        0.89615
        0.93121        0.94146        0.96566        0.99195        1.00411
        1.02073        1.03136        1.05175        1.06860        1.08874
        1.13491        1.13958        1.17923        1.24035        1.27660
        1.32300        1.36797        1.39885        1.41581        1.42039
        1.43128        1.44154        1.46157        1.47299        1.49094
        1.57084        1.59848        1.62103        1.63404        1.67154
        1.73039        1.78940        1.80350        1.80974        1.86452
        1.88679        1.89692        1.93994        2.05161        2.09165
        2.11578        2.14519        2.17412        2.20801        2.22752
        2.24600        2.27116        2.27380        2.32926        2.33627
        2.45251        2.56365        2.57818        2.60917        2.61976
        2.64462        2.69283        2.72246        2.72602        2.74398
        2.75325        2.77861        2.88565        2.93285        3.11623
        3.22104        3.26015        3.31714        3.34241        3.36896
        3.37553        3.38711        3.42233        3.43288        3.43454
        3.47771        3.53187        3.57266        3.57980        3.63050
        3.87234        3.90637        3.92195        3.96556        4.09838
        4.12794        4.13502        4.18837        4.94139        5.01527
        5.06914        5.28844        5.30686        5.31951        5.40451
        5.64227        5.70346        5.72336        5.77348        5.91535
        5.99977        6.02245        6.04024       36.84797       51.38516
       51.41603       51.43288       51.46523
 Time used in FCKEIG, thr_jaco:   2.40D-02  4.00D-02  4.56D-07
 CPU and wall times used in FCKEIG, THR_FCKEIG:   2.40D-02  4.20D-02  1.07D-04
 -----------------------------------------------------------------------------

 *** DIIS iteration number    7
 RDSUPM called. NFMAT, ISYMDM(1:NFMAT)                     1
                     1

 ITDIIS, energy, error norm, change in energy, scr.thr., difden:
@ DIIS iter.   7    -361.202347080        2.35894D-03   -1.31D-05  -20    F

 (DIIS_RED) Control Parameters C2DIIS =         F NEVC =    7


 (DIIS_RED) B matrix:

               Column   1     Column   2     Column   3     Column   4     Column   5     Column   6
       1      16.23498941
       2       0.48741429     1.36337274
       3       0.82235185    -0.01657289     0.14084652
       4       0.04995450     0.07774578     0.00490845     0.00831466
       5       0.02219101     0.00688718     0.00546134     0.00072602     0.00084002
       6      -0.00465934    -0.00010582     0.00073800     0.00053470     0.00002034     0.00011460
       7       0.00022113     0.00023961    -0.00000753     0.00001018     0.00004795     0.00000212

               Column   7
       7       0.00000556
    ==== End of matrix output ====

 DIIS C vector; C2DIIS = F, LAMBDA = -1.22D-06
   -0.000249   -0.001051    0.005600    0.026888   -0.110025   -0.165450    1.244286
* Read MO coefficients from SIRIUS.RST with label "NEWORB  " and header info:  3Dec18  DIIS   7
      Virial theorem: -V/T =      2.003278
@      MULPOP N      -0.37; H       0.29; H       0.29; H       0.30; H       0.30; O      -0.65; O      -0.65; O      -0.59; O      -0.66; H       0.36; 
@             H       0.34; H       0.39; H       0.32; H       0.31; H       0.32; H       0.35; H       0.35; 

 DIIS Fock eigenvalues in symmetry 1
      -20.66944      -20.65970      -20.63650      -20.61539      -15.74789
       -1.45469       -1.41829       -1.40676       -1.39766       -1.35184
       -0.83122       -0.81916       -0.81527       -0.79947       -0.77452
       -0.76842       -0.74850       -0.69179       -0.67560       -0.65270
       -0.64171       -0.61999       -0.60420       -0.58431       -0.56869
       -0.00005        0.03329        0.08130        0.09298        0.12279
        0.13860        0.15701        0.16406        0.18282        0.21217
        0.22512        0.24599        0.27554        0.33936        0.35312
        0.37752        0.45932        0.46690        0.49712        0.50263
        0.51988        0.52846        0.54246        0.58099        0.60736
        0.77773        0.78794        0.82654        0.87829        0.89623
        0.93129        0.94156        0.96579        0.99206        1.00422
        1.02084        1.03146        1.05183        1.06871        1.08884
        1.13507        1.13972        1.17936        1.24048        1.27673
        1.32311        1.36808        1.39891        1.41584        1.42040
        1.43132        1.44157        1.46161        1.47302        1.49100
        1.57091        1.59856        1.62110        1.63419        1.67158
        1.73053        1.78942        1.80354        1.80977        1.86463
        1.88680        1.89706        1.94008        2.05175        2.09169
        2.11582        2.14524        2.17413        2.20815        2.22762
        2.24612        2.27123        2.27387        2.32938        2.33630
        2.45259        2.56368        2.57830        2.60922        2.61986
        2.64472        2.69285        2.72252        2.72601        2.74401
        2.75338        2.77860        2.88587        2.93307        3.11641
        3.22129        3.26039        3.31736        3.34257        3.36909
        3.37571        3.38728        3.42245        3.43305        3.43465
        3.47783        3.53204        3.57282        3.57993        3.63061
        3.87250        3.90648        3.92211        3.96566        4.09856
        4.12813        4.13515        4.18849        4.94170        5.01558
        5.06944        5.28867        5.30706        5.31972        5.40466
        5.64248        5.70360        5.72359        5.77362        5.91555
        5.99999        6.02259        6.04036       36.84843       51.38549
       51.41622       51.43325       51.46543
 Time used in FCKEIG, thr_jaco:   2.40D-02  3.90D-02  1.00D-07
 CPU and wall times used in FCKEIG, THR_FCKEIG:   2.40D-02  3.90D-02  2.36D-05
 -----------------------------------------------------------------------------

 *** DIIS iteration number    8
 RDSUPM called. NFMAT, ISYMDM(1:NFMAT)                     1
                     1

 ITDIIS, energy, error norm, change in energy, scr.thr., difden:
@ DIIS iter.   8    -361.202347753        3.69768D-04   -6.73D-07  -20    F

 (DIIS_RED) Control Parameters C2DIIS =         F NEVC =    8


 (DIIS_RED) B matrix:

               Column   1     Column   2     Column   3     Column   4     Column   5     Column   6
       1      16.23498941
       2       0.48741429     1.36337274
       3       0.82235185    -0.01657289     0.14084652
       4       0.04995450     0.07774578     0.00490845     0.00831466
       5       0.02219101     0.00688718     0.00546134     0.00072602     0.00084002
       6      -0.00465934    -0.00010582     0.00073800     0.00053470     0.00002034     0.00011460
       7       0.00022113     0.00023961    -0.00000753     0.00001018     0.00004795     0.00000212
       8       0.00011783    -0.00004528     0.00000630     0.00000233     0.00000010     0.00000168

               Column   7     Column   8
       7       0.00000556
       8       0.00000036     0.00000014
    ==== End of matrix output ====

 DIIS C vector; C2DIIS = F, LAMBDA = -7.24D-08
    0.000011    0.000091   -0.000756   -0.002055    0.018504   -0.001233   -0.225376    1.210815
* Read MO coefficients from SIRIUS.RST with label "NEWORB  " and header info:  3Dec18  DIIS   8
      Virial theorem: -V/T =      2.003295
@      MULPOP N      -0.37; H       0.29; H       0.29; H       0.30; H       0.30; O      -0.65; O      -0.65; O      -0.59; O      -0.66; H       0.36; 
@             H       0.34; H       0.39; H       0.32; H       0.31; H       0.32; H       0.35; H       0.35; 

 DIIS Fock eigenvalues in symmetry 1
      -20.66937      -20.65977      -20.63655      -20.61536      -15.74791
       -1.45466       -1.41831       -1.40677       -1.39765       -1.35184
       -0.83122       -0.81916       -0.81524       -0.79948       -0.77453
       -0.76843       -0.74848       -0.69178       -0.67565       -0.65274
       -0.64173       -0.61996       -0.60421       -0.58432       -0.56868
       -0.00005        0.03329        0.08130        0.09298        0.12279
        0.13860        0.15701        0.16405        0.18282        0.21217
        0.22511        0.24598        0.27553        0.33935        0.35312
        0.37752        0.45932        0.46691        0.49712        0.50263
        0.51988        0.52846        0.54246        0.58099        0.60736
        0.77772        0.78793        0.82653        0.87827        0.89624
        0.93128        0.94155        0.96579        0.99207        1.00423
        1.02083        1.03147        1.05183        1.06871        1.08884
        1.13506        1.13972        1.17936        1.24048        1.27672
        1.32311        1.36808        1.39892        1.41584        1.42040
        1.43132        1.44157        1.46160        1.47302        1.49100
        1.57091        1.59855        1.62109        1.63418        1.67158
        1.73053        1.78942        1.80354        1.80977        1.86463
        1.88680        1.89705        1.94008        2.05175        2.09168
        2.11583        2.14523        2.17413        2.20815        2.22761
        2.24611        2.27123        2.27387        2.32938        2.33630
        2.45259        2.56367        2.57829        2.60922        2.61986
        2.64471        2.69285        2.72252        2.72601        2.74400
        2.75338        2.77860        2.88586        2.93306        3.11641
        3.22128        3.26038        3.31736        3.34255        3.36910
        3.37569        3.38725        3.42247        3.43303        3.43465
        3.47783        3.53201        3.57281        3.57995        3.63062
        3.87247        3.90651        3.92209        3.96566        4.09853
        4.12811        4.13518        4.18850        4.94168        5.01557
[...]
 | 1 1 1 1 |  12   1  10   1 |     1254        1 |       785632 |   -0.087724  |
 | 1 1 1 1 |  13   1  10   1 |     1255        1 |       786886 |   -0.086568  |
 | 1 1 1 1 |  26   1  10   1 |     1268        1 |       803279 |   -0.094122  |
 | 1 1 1 1 |  27   1  10   1 |     1269        1 |       804547 |    0.071726  |
 | 1 1 1 1 |  28   1  10   1 |     1270        1 |       805816 |   -0.125288  |
 | 1 1 1 1 | 119   1  10   1 |     1361        1 |       925481 |   -0.067535  |
 +=============================================================================+


          Norm of Printed Amplitude Vector :             0.8636

          Printed all single excitations greater than 0.381314

          Printed all double excitations greater than 0.064684



+======================================================================+
| contributions of excitation levels to right eigenvectors as computed |
| from the (RE|RE) self overlap                                        |
+----------------------------------------------------------------------+
| sym | multi | state |    E / eV  | % singles | % doubles | % triples |
+======================================================================+
|    1|   1   |   1   |  412.40004 |  88.1426  |  11.8574  |   0.0000  |
+======================================================================+





+======================================================================+
| contributions of excitation levels to excited states as computed     |
| from the (LE|RE) overlap                                             |
+----------------------------------------------------------------------+
| sym | multi | state |    E / eV  | % singles | % doubles | % triples |
+======================================================================+
|    1|   1   |   1   |  412.40004 |  79.0723  |  20.9277  |   0.0000  |
+======================================================================+



 --------------------------
 Symmetry class Nr.:     1
 Multiplicity      :     3
 --------------------------

 Length of Excitation vectors in this class is:   8404200
 No Excitation Energies calculated in this symmetry class
     

   *******************************************************************
   *                                                                 *
   *--------   OUTPUT FROM PROPERTY AND SYMMETRY ANALYSIS   ---------*
   *                                                                 *
   *******************************************************************



                         +-------------------------------+
                         ! REQUESTED PROPERTY OPERATORS: !
                         +-------------------------------+

             Index   Oper. Label  Symmetry  Transp.  PDBS  Atom
             --------------------------------------------------
                1     HAM0            1        1      T      0
                2     XDIPLEN         1        1      F      0
                3     YDIPLEN         1        1      F      0
                4     ZDIPLEN         1        1      F      0
             --------------------------------------------------




                         +-------------------------------+
                         ! REQUESTED EXPECTATION VALUES: !
                         +-------------------------------+

                       Index   Oper. Label  Symmetry
                       -----------------------------
                       -----------------------------




                       +------------------------------------+
                       ! REQUESTED EFFECTIVE FOCK MATRICES: !
                       +------------------------------------+

                       Index   Oper. Label  Symmetry
                       -----------------------------
                       -----------------------------




                        +----------------------------------+
                        ! REQUESTED FIRST ORDER M-VECTORS: !
                        +----------------------------------+

               Index   State Symmetry  Frequency
               --------------------------------------------------
                  1             1    1     1.515542D+01
               --------------------------------------------------


      

    *******************************************************************
    *          SOLVING COUPLED CLUSTER RESPONSE EQUATIONS             *
    *******************************************************************



 
 +======================================================================+
 !                     RHS & ETA VECTORS TO COMPUTE:                    !
 +======================================================================+
 | TYPE | # VEC. |  NEEDED FOR:                                         |
 +----------------------------------------------------------------------+
 +======================================================================+



 +======================================================================+
 !                       LINEAR EQUATIONS TO SOLVE:                     !
 +======================================================================+
 | TYPE | # VEC. |  EQUATION:                                           |
 +----------------------------------------------------------------------+
 |  M1  |    1   |  first-order ground - excited state multipliers      |
 +======================================================================+



 +======================================================================+
 !                F MATRIX TRANSFORMATIONS TO COMPUTE:                  !
 +======================================================================+
 | TYPE | # VEC. |  TRANSFORMED:                                        |
 +----------------------------------------------------------------------+
 |  FR  |    1   |  right eigenvectors (RE)                             |
 +======================================================================+





 Testing R1 list: 

 List nr.  Label     Symmetry      Frequency      T1-norm        T2-norm


 Testing L1 list: 

 List nr.  Label     Symmetry      Frequency      T1-norm        T2-norm
  Solvent 1-order response equations converged in                     0 
  solvent iterations
 SONIAPRI                     0
 CCEQ_STR: CVSEPARATION =  T
 CCEQ_STR: IONIZATION =  T
 CCEQ_STR: REMOVE_CORE =  F
 could not find required file CCM1_1___1
 IOPTSV is    33 ... program continues nevertheless.
 Vector nr.  1 of type M1  and symmetry  1 was not found on file.
     M1  start vector nr.  1 of symmetry  1 generated from gradient
 CCEQ_STR: freeze VALENCE OR VIRT
 CCEQ_SOL: CVSEPARA=     T
 CCEQ_SOL: LIONISAT=     T
 CCEQ_SOL: REMOVE_CORE =  F



 ----- COUPLED CLUSTER RESPONSE SOLVER -----

    Iter  #Vectors  time (min)   residual
    --------------------------------------
 CCRED CVS/IONIS sigma_                     1 
 project out valence occupied or virtual
      1       1         1.48     0.22E+01
 CCRED CVS/IONIS sigma_                     2 
 project out valence occupied or virtual
      2       1         1.49     0.41E+00
 CCRED CVS/IONIS sigma_                     3 
 project out valence occupied or virtual
      3       1         1.49     0.50E-01
 CCRED CVS/IONIS sigma_                     4 
 project out valence occupied or virtual
      4       1         1.48     0.49E-02
 CCRED CVS/IONIS sigma_                     5 
 project out valence occupied or virtual
                    -1  vectors with norm le:  1.000000000000000E-035  REMOVED

 CCORT,**WARNING**  number vectors added is zero after check for vector norm , NBADD :    0

 CCORT, number vectors added is zero , NBADD :    0

 CCORT, number vectors added is zero , NBADD :    0

 CCORT, number vectors added is zero , NBADD :    0

 CCORT, number vectors added is zero , NBADD :    0

 CCORT, number vectors added is zero , NBADD :    0

 *** MICROITERATIONS STOPPED DUE TO LINEAR DEPENDENCE BETWEEN ALL NEW TRIAL VECTORS
                     0  trial vectors converged
  LINEAR DEPENDENCE BETWEEN                     1  NON CONVERGED TRIAL VECTORS
      5       1         1.47     0.72E-03

 ***  CCEQ_SOL -MICROITERATIONS STOPPED  
     LINEAR DEPENDENCE BETWEEN ALL NEW TRIAL VECTORS
    --------------------------------------
    converged in  5 iterations
    threshold:    0.10E-08


         Routine          Time (min)
         ---------------------------
         CC_TRDRV            7.41
         CCRED               0.04
         CCNEX               0.06
         ---------------------------
         Total time          7.51


  Total CPU  time used in CCEQ_SOLV:  7 minutes 30 seconds
  Total wall time used in CCEQ_SOLV:  8 minutes 39 seconds


 xxxxxxxxxxxxxxxxxxxxxxxxxxxxxxxxxxxxx

 
 Solution of CC response equations completed.
 

 *******************************************************************
 *                                                                 *
 *--------  OUTPUT FROM COUPLED CLUSTER LINEAR RESPONSE   ---------*
 *                                                                 *
 *--------      CALCULATION OF SECOND ORDER RESIDUES      ---------*
 *                                                                 *
 *******************************************************************



                  +---------------------------------------------+
                  ! CC_SOPR: Calculation of CCSD       Residues !
                  +---------------------------------------------+

 Doing the Mf*CsiA
 Doing the Mf*CsiA
 Doing the Mf*CsiA


 CCSD  Right transition moments in atomic units:
 -----------------------------------------------

  1      15.155423  <XDIPLEN |f> =      -0.00000007
  1      15.155423  <YDIPLEN |f> =       0.00000006
  1      15.155423  <ZDIPLEN |f> =      -0.00000005


 CCSD  Left  transition moments in atomic units:
 -----------------------------------------------

  1      15.155423  <f|XDIPLEN > =      -0.00000003
  1      15.155423  <f|YDIPLEN > =       0.00000003
  1      15.155423  <f|ZDIPLEN > =      -0.00000002


 CCSD  linear response residue property in atomic units:
 -------------------------------------------------------

 RES{<<XDIPLEN ,XDIPLEN >>(15.155423)} =     0.00000000 (   0.00000004)
 RES{<<XDIPLEN ,YDIPLEN >>(15.155423)} =    -0.00000000 (  -0.00000004)
 RES{<<XDIPLEN ,ZDIPLEN >>(15.155423)} =     0.00000000 (   0.00000004)
 RES{<<YDIPLEN ,XDIPLEN >>(15.155423)} =    -0.00000000 (  -0.00000004)
 RES{<<YDIPLEN ,YDIPLEN >>(15.155423)} =     0.00000000 (   0.00000004)
 RES{<<YDIPLEN ,ZDIPLEN >>(15.155423)} =    -0.00000000 (  -0.00000004)
 RES{<<ZDIPLEN ,XDIPLEN >>(15.155423)} =     0.00000000 (   0.00000004)
 RES{<<ZDIPLEN ,YDIPLEN >>(15.155423)} =    -0.00000000 (  -0.00000004)
 RES{<<ZDIPLEN ,ZDIPLEN >>(15.155423)} =     0.00000000 (   0.00000003)


 CCSD  Transition strength matrix for state nr.  1 of symmetry 1
 CCSD  excitation energy:15.15542310

 Gauge: length

               Column   1     Column   2     Column   3
       1     1.944095D-15  -1.716996D-15   1.520949D-15
       2    -1.716996D-15   1.516420D-15  -1.343286D-15
       3     1.520949D-15  -1.343286D-15   1.189896D-15
    ==== End of matrix output ====

 Principal values of diagonalized transition strength matrix:

             a.u.               
 1       0.00000000
 2       0.00000000
 3       0.00000000

 Principal axis of diagonalized transition strength matrix:


               Column   1     Column   2     Column   3
       1       1.00000000     0.00000000     0.00000000
       2       0.00000000     1.00000000     0.00000000
       3       0.00000000     0.00000000     1.00000000
    ==== End of matrix output ====


 CCSD   oscillator strength matrix for state nr.  1 of symmetry 1
 CCSD  excitation energy:15.15542310


               Column   1     Column   2     Column   3
       1     1.964239D-14  -1.734787D-14   1.536708D-14
       2    -1.734787D-14   1.532132D-14  -1.357205D-14
       3     1.536708D-14  -1.357205D-14   1.202226D-14
    ==== End of matrix output ====

 Principal values of diagonalized oscillator strength matrix:

             a.u.               
 1       0.00000000
 2       0.00000000
 3       0.00000000

 Principal axis of diagonalized oscillator strength matrix:


               Column   1     Column   2     Column   3
       1       1.00000000     0.00000000     0.00000000
       2       0.00000000     1.00000000     0.00000000
       3       0.00000000     0.00000000     1.00000000
    ==== End of matrix output ====

  Total time for      9 linear response residues:       2.88 seconds.
  

 *******************************************************************************
 *******************************************************************************
 *                                                                             *
 *                                                                             *
 *                   SUMMARY OF COUPLED CLUSTER CALCULATION                    *
 *                                                                             *
 *                                                                             *
 *******************************************************************************
 *******************************************************************************

                                                                                
                                                                                
            Total SCF   energy:                  -361.2023477713                
            Total MP2   energy:                  -362.3101871737                
            Total CCSD  energy:                  -362.3517296436                
                                                                                
                                                                                
            Total SCF   energy:                  -361.2023477713                
            Total RSTAR energy:                  -362.3517296436                
            Total CCSD  energy:                  -362.3518487164                
                                                                                
                                                                                
            Total SCF   energy:                  -361.2023477713                
            Total RSTAR energy:                  -362.3518487164                
            Total CCSD  energy:                  -362.3518482935                
                                                                                
                                                                                
            Total SCF   energy:                  -361.2023477713                
            Total RSTAR energy:                  -362.3518482935                
            Total CCSD  energy:                  -362.3518483811                
                                                                                
                                                                                
            Total SCF   energy:                  -361.2023477713                
            Total RSTAR energy:                  -362.3518483811                
            Total CCSD  energy:                  -362.3518483812                
                                                                                
                                                                                
            Total SCF   energy:                  -361.2023477713                
            Total RSTAR energy:                  -362.3518483812                
            Total CCSD  energy:                  -362.3518483806                
            CCSD Total  energy:                  -362.7743652109                
            CCSD E(QM/MM)     :                    -0.4187080811                
                                                                                
                                                                                
                                                                                
 +=============================================================================+
 |  sym. | Exci.  |        CCSD       Excitation energies            | ||T1||  |
 |(spin, |        +------------------------------------------------------------+
 | spat) |        |     Hartree    |       eV.      |     cm-1       |    %    |
 +=============================================================================+
 | ^1A   |    1   |    15.1554231  |     412.40004  |   3326230.868  |  88.14  |
 +=============================================================================+
                                                                                
                                                                                
     Total energies in Hartree:                                                 
             1 ^1A       -347.2002340276                                        
                                                                                
                                                                                
 +=============================================================================+
 |  sym. | Exci.  |        CCSD       Length   Gauge Oscillator Strength       |
 |(spin, |        +------------------------------------------------------------+
 | spat) |        | Dipole Strength(a.u.) | Oscillator strength  | Direction   |
 +=============================================================================+
 | ^1A   |    1   |        0.0000000      |      0.0000000       |    -        |
 +=============================================================================+

  1 a.u. =        27.21138 eV.  
  1 a.u. =    219474.62934 cm-1.
  

 *******************************************************************************
 *******************************************************************************
 *                                                                             *
 *                                                                             *
 *                      END OF COUPLED CLUSTER CALCULATION                     *
 *                                                                             *
 *                                                                             *
 *******************************************************************************
 *******************************************************************************


 CPU and wall time for CC :    7222.149    9199.469

 
     Date and time (Linux)  : Mon Dec  3 15:29:51 2018
     Host name              : n-62-24-5                               


                      .-------------------------------------.
                      | End of Coupled Cluster Section (CC) |
                      `-------------------------------------'

  Total CPU  time used in DALTON:   2 hours  2 minutes 37 seconds
  Total wall time used in DALTON:   2 hours 37 minutes 39 seconds

 
     Date and time (Linux)  : Mon Dec  3 15:29:51 2018
     Host name              : n-62-24-5                               
  

 +---------------------------------------------------------+ 
 | List of selected calculated molecular properties (a.u.) | 
 +---------------------------------------------------------+ 

  Properties are read from unit number                      4

 CCSD       properties :
 #  1 1 CCSD/MM  Ground state Energy =    -362.7743652109
 #  2 1 E_QM/MM  Ground state Energy =      -0.4187080811
 #  3 1 Sy: 1 Sp: 1 Exc:  1 E_tot:   -347.2002340276 w:     15.1554231022 E_grs:   -362.3556571298
 #  4 1 Exctot   Excited state Energy =    -347.2002340276
 #  5 1 |<O|XDIPLEN |i(15.155423)>| =     0.00000004
 #  7 1 |<O|YDIPLEN |i(15.155423)>| =     0.00000004
 #  9 1 |<O|ZDIPLEN |i(15.155423)>| =     0.00000003

 THE_END   
