

     ************************************************************************
     *************** Dalton - An Electronic Structure Program ***************
     ************************************************************************

    This is output from DALTON release Dalton2017.alpha (2016)
         ( Web site: http://daltonprogram.org )

   ----------------------------------------------------------------------------

    NOTE:
     
    Dalton is an experimental code for the evaluation of molecular
    properties using (MC)SCF, DFT, CI, and CC wave functions.
    The authors accept no responsibility for the performance of
    the code or for the correctness of the results.
     
    The code (in whole or part) is provided under a licence and
    is not to be reproduced for further distribution without
    the written permission of the authors or their representatives.
     
    See the home page "http://daltonprogram.org" for further information.
     
    If results obtained with this code are published,
    the appropriate citations would be both of:
     
       K. Aidas, C. Angeli, K. L. Bak, V. Bakken, R. Bast,
       L. Boman, O. Christiansen, R. Cimiraglia, S. Coriani,
       P. Dahle, E. K. Dalskov, U. Ekstroem,
       T. Enevoldsen, J. J. Eriksen, P. Ettenhuber, B. Fernandez,
       L. Ferrighi, H. Fliegl, L. Frediani, K. Hald, A. Halkier,
       C. Haettig, H. Heiberg, T. Helgaker, A. C. Hennum,
       H. Hettema, E. Hjertenaes, S. Hoest, I.-M. Hoeyvik,
       M. F. Iozzi, B. Jansik, H. J. Aa. Jensen, D. Jonsson,
       P. Joergensen, J. Kauczor, S. Kirpekar,
       T. Kjaergaard, W. Klopper, S. Knecht, R. Kobayashi, H. Koch,
       J. Kongsted, A. Krapp, K. Kristensen, A. Ligabue,
       O. B. Lutnaes, J. I. Melo, K. V. Mikkelsen, R. H. Myhre,
       C. Neiss, C. B. Nielsen, P. Norman, J. Olsen,
       J. M. H. Olsen, A. Osted, M. J. Packer, F. Pawlowski,
       T. B. Pedersen, P. F. Provasi, S. Reine, Z. Rinkevicius,
       T. A. Ruden, K. Ruud, V. Rybkin, P. Salek, C. C. M. Samson,
       A. Sanchez de Meras, T. Saue, S. P. A. Sauer,
       B. Schimmelpfennig, K. Sneskov, A. H. Steindal,
       K. O. Sylvester-Hvid, P. R. Taylor, A. M. Teale,
       E. I. Tellgren, D. P. Tew, A. J. Thorvaldsen, L. Thoegersen,
       O. Vahtras, M. A. Watson, D. J. D. Wilson, M. Ziolkowski
       and H. Agren,
       "The Dalton quantum chemistry program system",
       WIREs Comput. Mol. Sci. 2014, 4:269–284 (doi: 10.1002/wcms.1172)
     
    and
     
       Dalton, a Molecular Electronic Structure Program,
       Release Dalton2017.alpha (2016), see http://daltonprogram.org
   ----------------------------------------------------------------------------

    Authors in alphabetical order (major contribution(s) in parenthesis):

  Kestutis Aidas,           Vilnius University,           Lithuania   (QM/MM)
  Celestino Angeli,         University of Ferrara,        Italy       (NEVPT2)
  Keld L. Bak,              UNI-C,                        Denmark     (AOSOPPA, non-adiabatic coupling, magnetic properties)
  Vebjoern Bakken,          University of Oslo,           Norway      (DALTON; geometry optimizer, symmetry detection)
  Radovan Bast,             UiT The Arctic U. of Norway,  Norway      (DALTON installation and execution frameworks)
  Pablo Baudin,             University of Valencia,       Spain       (Cholesky excitation energies)
  Linus Boman,              NTNU,                         Norway      (Cholesky decomposition and subsystems)
  Ove Christiansen,         Aarhus University,            Denmark     (CC module)
  Renzo Cimiraglia,         University of Ferrara,        Italy       (NEVPT2)
  Sonia Coriani,            University of Trieste,        Italy       (CC module, MCD in RESPONS)
  Janusz Cukras,            University of Trieste,        Italy       (MChD in RESPONS)
  Paal Dahle,               University of Oslo,           Norway      (Parallelization)
  Erik K. Dalskov,          UNI-C,                        Denmark     (SOPPA)
  Thomas Enevoldsen,        Univ. of Southern Denmark,    Denmark     (SOPPA)
  Janus J. Eriksen,         Aarhus University,            Denmark     (Polarizable embedding model, TDA)
  Rasmus Faber,             University of Copenhagen,     Denmark     (Vib.avg. NMR with SOPPA, parallel AO-SOPPA)
  Berta Fernandez,          U. of Santiago de Compostela, Spain       (doublet spin, ESR in RESPONS)
  Lara Ferrighi,            Aarhus University,            Denmark     (PCM Cubic response)
  Heike Fliegl,             University of Oslo,           Norway      (CCSD(R12))
  Luca Frediani,            UiT The Arctic U. of Norway,  Norway      (PCM)
  Bin Gao,                  UiT The Arctic U. of Norway,  Norway      (Gen1Int library)
  Christof Haettig,         Ruhr-University Bochum,       Germany     (CC module)
  Kasper Hald,              Aarhus University,            Denmark     (CC module)
  Asger Halkier,            Aarhus University,            Denmark     (CC module)
  Frederik Beyer Hansen,    University of Copenhagen,     Denmark     (Parallel AO-SOPPA)
  Erik D. Hedegaard,        Univ. of Southern Denmark,    Denmark     (Polarizable embedding model, QM/MM)
  Hanne Heiberg,            University of Oslo,           Norway      (geometry analysis, selected one-electron integrals)
  Trygve Helgaker,          University of Oslo,           Norway      (DALTON; ABACUS, ERI, DFT modules, London, and much more)
  Alf Christian Hennum,     University of Oslo,           Norway      (Parity violation)
  Hinne Hettema,            University of Auckland,       New Zealand (quadratic response in RESPONS; SIRIUS supersymmetry)
  Eirik Hjertenaes,         NTNU,                         Norway      (Cholesky decomposition)
  Pi A. B. Haase,           University of Copenhagen,     Denmark     (Triplet AO-SOPPA)
  Maria Francesca Iozzi,    University of Oslo,           Norway      (RPA)
  Brano Jansik              Technical Univ. of Ostrava    Czech Rep.  (DFT cubic response)
  Hans Joergen Aa. Jensen,  Univ. of Southern Denmark,    Denmark     (DALTON; SIRIUS, RESPONS, ABACUS modules, London, and much more)
  Dan Jonsson,              UiT The Arctic U. of Norway,  Norway      (cubic response in RESPONS module)
  Poul Joergensen,          Aarhus University,            Denmark     (RESPONS, ABACUS, and CC modules)
  Maciej Kaminski,          University of Warsaw,         Poland      (CPPh in RESPONS)
  Joanna Kauczor,           Linkoeping University,        Sweden      (Complex polarization propagator (CPP) module)
  Sheela Kirpekar,          Univ. of Southern Denmark,    Denmark     (Mass-velocity & Darwin integrals)
  Wim Klopper,              KIT Karlsruhe,                Germany     (R12 code in CC, SIRIUS, and ABACUS modules)
  Stefan Knecht,            ETH Zurich,                   Switzerland (Parallel CI and MCSCF)
  Rika Kobayashi,           Australian National Univ.,    Australia   (DIIS in CC, London in MCSCF)
  Henrik Koch,              NTNU,                         Norway      (CC module, Cholesky decomposition)
  Jacob Kongsted,           Univ. of Southern Denmark,    Denmark     (Polarizable embedding model, QM/MM)
  Andrea Ligabue,           University of Modena,         Italy       (CTOCD, AOSOPPA)
  Nanna H. List             Univ. of Southern Denmark,    Denmark     (Polarizable embedding model)
  Ola B. Lutnaes,           University of Oslo,           Norway      (DFT Hessian)
  Juan I. Melo,             University of Buenos Aires,   Argentina   (LRESC, Relativistic Effects on NMR Shieldings)
  Kurt V. Mikkelsen,        University of Copenhagen,     Denmark     (MC-SCRF and QM/MM)
  Rolf H. Myhre,            NTNU,                         Norway      (Cholesky, subsystems and ECC2)
  Christian Neiss,          Univ. Erlangen-Nuernberg,     Germany     (CCSD(R12))
  Christian B. Nielsen,     University of Copenhagen,     Denmark     (QM/MM)
  Patrick Norman,           Linkoeping University,        Sweden      (Cubic response and complex frequency response in RESPONS)
  Jeppe Olsen,              Aarhus University,            Denmark     (SIRIUS CI/density modules)
  Jogvan Magnus H. Olsen,   Univ. of Southern Denmark,    Denmark     (Polarizable embedding model, QM/MM)
  Anders Osted,             Copenhagen University,        Denmark     (QM/MM)
  Martin J. Packer,         University of Sheffield,      UK          (SOPPA)
  Filip Pawlowski,          Kazimierz Wielki University,  Poland      (CC3)
  Morten N. Pedersen,       Univ. of Southern Denmark,    Denmark     (Polarizable embedding model)
  Thomas B. Pedersen,       University of Oslo,           Norway      (Cholesky decomposition)
  Patricio F. Provasi,      University of Northeastern,   Argentina   (Analysis of coupling constants in localized orbitals)
  Zilvinas Rinkevicius,     KTH Stockholm,                Sweden      (open-shell DFT, ESR)
  Elias Rudberg,            KTH Stockholm,                Sweden      (DFT grid and basis info)
  Torgeir A. Ruden,         University of Oslo,           Norway      (Numerical derivatives in ABACUS)
  Kenneth Ruud,             UiT The Arctic U. of Norway,  Norway      (DALTON; ABACUS magnetic properties and much more)
  Pawel Salek,              KTH Stockholm,                Sweden      (DALTON; DFT code)
  Claire C. M. Samson       University of Karlsruhe       Germany     (Boys localization, r12 integrals in ERI)
  Alfredo Sanchez de Meras, University of Valencia,       Spain       (CC module, Cholesky decomposition)
  Trond Saue,               Paul Sabatier University,     France      (direct Fock matrix construction)
  Stephan P. A. Sauer,      University of Copenhagen,     Denmark     (SOPPA(CCSD), SOPPA prop., AOSOPPA, vibrational g-factors)
  Bernd Schimmelpfennig,    Forschungszentrum Karlsruhe,  Germany     (AMFI module)
  Kristian Sneskov,         Aarhus University,            Denmark     (Polarizable embedding model, QM/MM)
  Arnfinn H. Steindal,      UiT The Arctic U. of Norway,  Norway      (parallel QM/MM, Polarizable embedding model)
  Casper Steinmann,         Univ. of Southern Denmark,    Denmark     (QFIT, Polarizable embedding model)
  K. O. Sylvester-Hvid,     University of Copenhagen,     Denmark     (MC-SCRF)
  Peter R. Taylor,          VLSCI/Univ. of Melbourne,     Australia   (Symmetry handling ABACUS, integral transformation)
  Andrew M. Teale,          University of Nottingham,     England     (DFT-AC, DFT-D)
  David P. Tew,             University of Bristol,        England     (CCSD(R12))
  Olav Vahtras,             KTH Stockholm,                Sweden      (triplet response, spin-orbit, ESR, TDDFT, open-shell DFT)
  David J. Wilson,          La Trobe University,          Australia   (DFT Hessian and DFT magnetizabilities)
  Hans Agren,               KTH Stockholm,                Sweden      (SIRIUS module, RESPONS, MC-SCRF solvation model)
 --------------------------------------------------------------------------------

     Date and time (Linux)  : Fri Dec  7 22:50:12 2018
     Host name              : n-62-24-6                               

 * Work memory size             :  1280000000 =  9.537 gigabytes.

 * Directories for basis set searches:
   1) /zhome/d7/7/119775/My_Codes/dalton-private/build2016/basis/diffs
   2) /zhome/37/3/129401/NH3NH4/CCSD/AIMD_SAMPLING/nh4_4h2o_nd
   3) /zhome/9a/4/124800/source/dalton/build-mlcc/basis


Compilation information
-----------------------

 Who compiled             | rfaber
 Host                     | hpclogin1
 System                   | Linux-2.6.32-696.1.1.el6.x86_64
 CMake generator          | Unix Makefiles
 Processor                | x86_64
 64-bit integers          | ON
 MPI                      | OFF
 Fortran compiler         | /opt/intel/2016update2/compilers_and_libraries_201
                          | 6.2.181/linux/bin/intel64/ifort
 Fortran compiler version | ifort (IFORT) 16.0.2 20160204
 C compiler               | /opt/intel/2016update2/compilers_and_libraries_201
                          | 6.2.181/linux/bin/intel64/icc
 C compiler version       | icc (ICC) 16.0.2 20160204
 C++ compiler             | /opt/intel/2016update2/compilers_and_libraries_201
                          | 6.2.181/linux/bin/intel64/icpc
 C++ compiler version     | icpc (ICC) 16.0.2 20160204
 Static linking           | OFF
 Last Git revision        | bb4d1599ca5680a9f3980451fc8bbefdba436d59
 Git branch               | mlcc
 Configuration time       | 2017-06-13 16:11:03.928841


   Content of the .dal input file
 ----------------------------------

**DALTON
.RUN WAVE FUNCTIONS
*QMMM
.QMMM
**INTEGRALS
.DIPLEN
**WAVE FUNCTIONS
.CC
*PRINT
!To check the origin of excit
.PRINTL
   0 11
*SCF INP
.THRESH
1.0D-7
!*ORBITAL INPUT
!.MOSTART
!NEWORB
*CC INP
!.RESTART
.CCSD
.THRLEQ
 1.0D-9
.THRENR
 1.0D-10
.FROIMP
4
0
.PRINT
 1
.MAX IT
 1200
.MAXRED
 1200
.MXLRV
1199
*CCSLV
.CCMM
.MXSLIT
200
.MXINIT
4 5
*CCEXCI
.NCCEXC
 1
.IONISATION
1
1
.CVSEPARA
1
1
*CCLRSD
.DIPOLE
**END OF DALTON INPUT


   Content of the .mol file
 ----------------------------

ATOMBASIS


Atomtypes=5 Charge=1 Nosymm Angstrom
   7.00000    1    Basis=6-311G**
N          0.000000        0.000000        0.000000
   1.00000    4    Basis=6-311G**
H          0.051876        1.056798       -0.216108
H          0.879474       -0.404966       -0.426899
H         -0.845461       -0.498263       -0.428152
H          0.162133       -0.175773        1.049426
   8.00000    4    Basis=6-311G**
O         -1.953285       -1.473937       -1.445177
O         -0.162506        2.661249       -1.330504
O          0.715398       -0.690688        2.542491
O          2.136692       -1.435329       -0.962941
   1.00000    8    Basis=6-311G**
H         -2.287146       -2.453779       -1.260332
H         -2.676491       -0.830745       -1.163646
H          0.201429        2.119724       -2.083982
H         -1.111108        2.847073       -1.606362
H          0.897020       -1.585619        2.824910
H          1.220144       -0.029309        3.171968
H          1.778205       -2.348354       -0.763063
H          3.076711       -1.429452       -0.845692
   0.00000    1    Basis=diffs
X          0.000000        0.000000        0.000000


       *******************************************************************
       *********** Output from DALTON general input processing ***********
       *******************************************************************

 --------------------------------------------------------------------------------
   Overall default print level:    0
   Print level for DALTON.STAT:    1

    HERMIT 1- and 2-electron integral sections will be executed
    "Old" integral transformation used (limited to max 255 basis functions)
    Wave function sections will be executed (SIRIUS module)
 --------------------------------------------------------------------------------


 Changes of defaults for *QMMM  :
 --------------------------------

 +------------------+
 |  WORD: | CHANGE: |
 +------------------+
 |   QMMM |       T |
 +------------------+
 


   ****************************************************************************
   *************** Output of molecule and basis set information ***************
   ****************************************************************************


    The two title cards from your ".mol" input:
    ------------------------------------------------------------------------
 1:                                                                         
 2:                                                                         
    ------------------------------------------------------------------------

  Coordinates are entered in Angstrom and converted to atomic units.
          - Conversion factor : 1 bohr = 0.52917721 A

  Atomic type no.    1
  --------------------
  Nuclear charge:   7.00000
  Number of symmetry independent centers:    1
  Number of basis sets to read;    2
  The basis set is "6-311G**" from the basis set library.
  Basis set file used for this atomic type with Z =   7 :
     "/zhome/9a/4/124800/source/dalton/build-mlcc/basis/6-311G**"

  Info about the basis set file: your basis has no documentation.
  Basis set: 6-311G**                                                                        

  Atomic type no.    2
  --------------------
  Nuclear charge:   1.00000
  Number of symmetry independent centers:    4
  Number of basis sets to read;    2
  The basis set is "6-311G**" from the basis set library.
  Basis set file used for this atomic type with Z =   1 :
     "/zhome/9a/4/124800/source/dalton/build-mlcc/basis/6-311G**"

  Info about the basis set file: your basis has no documentation.
  Basis set: 6-311G**                                                                        

  Atomic type no.    3
  --------------------
  Nuclear charge:   8.00000
  Number of symmetry independent centers:    4
  Number of basis sets to read;    2
  The basis set is "6-311G**" from the basis set library.
  Basis set file used for this atomic type with Z =   8 :
     "/zhome/9a/4/124800/source/dalton/build-mlcc/basis/6-311G**"

  Info about the basis set file: your basis has no documentation.
  Basis set: 6-311G**                                                                        

  Atomic type no.    4
  --------------------
  Nuclear charge:   1.00000
  Number of symmetry independent centers:    8
  Number of basis sets to read;    2
  The basis set is "6-311G**" from the basis set library.
  Basis set file used for this atomic type with Z =   1 :
     "/zhome/9a/4/124800/source/dalton/build-mlcc/basis/6-311G**"

  Info about the basis set file: your basis has no documentation.
  Basis set: 6-311G**                                                                        

  Atomic type no.    5
  --------------------
  Nuclear charge:   0.00000
  Number of symmetry independent centers:    1
  Number of basis sets to read;    2
  The basis set is "diffs" from the basis set library.
  Basis set file used for this atomic type with Z =   0 :
     "/zhome/9a/4/124800/source/dalton/build-mlcc/basis/diffs"

  Info about the basis set file: your basis has no documentation.
  Basis set: diffs                                                                           


                         SYMGRP: Point group information
                         -------------------------------

@    Point group: C1 


                                 Isotopic Masses
                                 ---------------

                           N          14.003074
                           H           1.007825
                           H           1.007825
                           H           1.007825
                           H           1.007825
                           O          15.994915
                           O          15.994915
                           O          15.994915
                           O          15.994915
                           H           1.007825
                           H           1.007825
                           H           1.007825
                           H           1.007825
                           H           1.007825
                           H           1.007825
                           H           1.007825
                           H           1.007825

                       Total mass:    90.076634 amu
                       Natural abundance:  98.500 %

 Center-of-mass coordinates (a.u.):    0.275547   -0.393911   -0.438329


  Atoms and basis sets
  --------------------

  Number of atom types :    5
  Total number of atoms:   18

  label    atoms   charge   prim   cont     basis
  ----------------------------------------------------------------------
  N           1    7.0000    31    18      [11s5p1d|4s3p1d]                                   
  H           4    1.0000     8     6      [5s1p|3s1p]                                        
  O           4    8.0000    31    18      [11s5p1d|4s3p1d]                                   
  H           8    1.0000     8     6      [5s1p|3s1p]                                        
  X           1    0.0000     1     1      [1s|1s]                                            
  ----------------------------------------------------------------------
  total:     18   51.0000   252   163
  ----------------------------------------------------------------------
  Spherical harmonic basis used.

  Threshold for neglecting AO integrals:  1.00D-12


  Cartesian Coordinates (a.u.)
  ----------------------------

  Total number of coordinates:   54
  N       :     1  x   0.0000000000    2  y   0.0000000000    3  z   0.0000000000
  H       :     4  x   0.0980314325    5  y   1.9970587894    6  z  -0.4083849334
  H       :     7  x   1.6619649941    8  y  -0.7652748299    9  z  -0.8067221930
  H       :    10  x  -1.5976897394   11  y  -0.9415806082   12  z  -0.8090900199
  H       :    13  x   0.3063869658   14  y  -0.3321628302   15  z   1.9831277284
  O       :    16  x  -3.6911736941   17  y  -2.7853372555   18  z  -2.7309887321
  O       :    19  x  -0.3070918337   20  y   5.0290317604   21  z  -2.5142881682
  O       :    22  x   1.3519062904   23  y  -1.3052111578   24  z   4.8046116653
  O       :    25  x   4.0377626935   26  y  -2.7123787093   27  z  -1.8196947645
  H       :    28  x  -4.3220795479   29  y  -4.6369702813   30  z  -2.3816823066
  H       :    31  x  -5.0578349660   32  y  -1.5698805297   33  z  -2.1989722464
  H       :    34  x   0.3806456436   35  y   4.0056978206   36  z  -3.9381552294
  H       :    37  x  -2.0996898153   38  y   5.3801882279   39  z  -3.0355842376
  H       :    40  x   1.6951221286   41  y  -2.9963856486   42  z   5.3383062278
  H       :    43  x   2.3057379931   44  y  -0.0553859830   45  z   5.9941507972
  H       :    46  x   3.3603204441   47  y  -4.4377459045   48  z  -1.4419800861
  H       :    49  x   5.8141411558   50  y  -2.7012727888   51  z  -1.5981262661
  X       :    52  x   0.0000000000   53  y   0.0000000000   54  z   0.0000000000

  Max    interatomic separation is    6.5816 Angstrom (   12.4374 Bohr)
  between atoms   14 and   13, "H     " and "H     ".

  Min HX interatomic separation is    0.9473 Angstrom (    1.7902 Bohr)

  Min YX interatomic separation is    2.7300 Angstrom (    5.1590 Bohr)


  Bond distances (Angstrom):
  --------------------------

                  atom 1     atom 2       distance
                  ------     ------       --------
  bond distance:  H          N            1.079915
  bond distance:  H          N            1.058166
  bond distance:  H          N            1.070693
  bond distance:  H          N            1.076326
  bond distance:  H          O            1.051533
  bond distance:  H          O            1.007960
  bond distance:  H          O            0.996708
  bond distance:  H          O            1.005223
  bond distance:  H          O            0.955850
  bond distance:  H          O            1.043279
  bond distance:  H          O            1.001039
  bond distance:  H          O            0.947321


  Bond angles (degrees):
  ----------------------

                  atom 1     atom 2     atom 3         angle
                  ------     ------     ------         -----
  bond angle:     H          N          H            104.706
  bond angle:     H          N          H            114.413
  bond angle:     H          N          H            110.346
  bond angle:     H          N          H            108.474
  bond angle:     H          N          H            101.868
  bond angle:     H          N          H            115.648
  bond angle:     H          O          H            108.524
  bond angle:     H          O          H            103.742
  bond angle:     H          O          H            108.865
  bond angle:     H          O          H            109.652




 Principal moments of inertia (u*A**2) and principal axes
 --------------------------------------------------------

   IA     313.809361          0.467210   -0.569073    0.676662
   IB     406.567346          0.423225    0.815896    0.393947
   IC     465.683517          0.776270   -0.102325   -0.622041


 Rotational constants
 --------------------

               A                   B                   C

           1610.4650           1243.0388           1085.2413 MHz
            0.053719            0.041463            0.036200 cm-1


@  Nuclear repulsion energy :  200.808684594182 Hartree

  Number of floating/multiple basis set orbitals :    1


                     .---------------------------------------.
                     | Starting in Integral Section (HERMIT) |
                     `---------------------------------------'



 ***************************************************************************************
 ****************** Output from **INTEGRALS input processing (HERMIT) ******************
 ***************************************************************************************



    *************************************************************************
    ****************** Output from HERMIT input processing ******************
    *************************************************************************


 Default print level:        1

 * Nuclear model: Point charge

 Calculation of one- and two-electron Hamiltonian integrals.

 The following one-electron property integrals are calculated as requested:
          - overlap integrals
          - dipole length integrals

 Center of mass  (bohr):      0.275547061058     -0.393911426791     -0.438329275112
 Operator center (bohr):      0.000000000000      0.000000000000      0.000000000000
 Gauge origin    (bohr):      0.000000000000      0.000000000000      0.000000000000
 Dipole origin   (bohr):      0.000000000000      0.000000000000      0.000000000000
 
  *********************************** 
  QMMM electrostatic potential: 
  Multipole order                                    0
  Isotropic polarization  
  *********************************** 
 
  ---------------- 
  QMMM information 
  ---------------- 
 
  MM coordinates in au 
  -------------------- 
     1      1.787354      3.000692     -6.916774
     2      1.816790      1.223174     -7.410141
     3      3.691909      3.367666     -6.785009
     4     11.081832      8.725914    -10.454759
     5     10.054152     10.347279    -10.033278
     6      9.756834      7.817389    -11.453934
     7      6.457931      5.044420     -7.079233
     8      7.096615      6.117707     -5.767735
     9      8.072967      4.210397     -7.601699
    10      8.599133      8.874636     -4.469881
    11      9.511288      8.565511     -2.800610
    12      9.900268      9.274583     -5.752725
    13     -9.274362     -8.795948     -8.634703
    14     -7.831135     -9.126030     -9.808266
    15     -9.042423     -6.939016     -8.365644
    16      5.466012      1.673961      1.848681
    17      5.820976      2.628069      3.416655
    18      6.590233      2.322145      0.476300
    19     -8.545833      8.651847     -6.371775
    20     -9.741744      8.278592     -7.873731
    21     -8.954297     10.320507     -5.878093
    22     -1.689967    -10.470829      0.655391
    23     -0.465581    -11.714807      0.113100
    24     -1.890752    -10.789371      2.518597
    25      7.407664     -0.106265    -10.714861
    26      6.754424     -1.004607     -9.241023
    27      8.772054     -1.278356    -11.529166
    28      9.908732     11.509483      4.097361
    29     11.113768     12.967480      4.576335
    30     10.024111     10.181228      5.325120
    31     -1.199547      6.049731    -10.735623
    32     -1.767132      6.295350    -12.500508
    33     -1.413835      4.270902    -10.406064
    34     -7.376758      0.999047     -1.981365
    35     -8.691312      1.545259     -0.659531
    36     -6.613166      2.685660     -2.534569
    37      9.173829    -10.152782     -8.451477
    38     10.671195     -9.024128     -8.264447
    39      8.034416    -10.034100     -7.008696
    40      3.929253     -1.924085     -7.239981
    41      3.453945     -3.452312     -8.178005
    42      3.949140     -2.347359     -5.449847
    43    -10.731558     -0.766208     -5.673311
    44     -9.869790     -2.153377     -6.583898
    45     -9.459026     -0.248353     -4.407278
    46     11.267290     -7.038967     -0.963025
    47      9.662056     -8.007142     -1.171995
    48     11.105425     -5.346415     -1.748987
    49     11.717198      8.620511     -0.415137
    50     13.391459      8.991032     -1.232258
    51     11.512801      9.524291      1.185833
    52      6.378725    -11.320794      9.761146
    53      4.710791    -11.209619      8.898590
    54      6.140493    -11.589494     11.687629
    55    -11.131046      2.345755      1.338986
    56    -10.908482      1.768615      3.128735
    57    -11.051946      4.242074      1.390867
    58      1.142392    -11.634099     -6.291463
    59      2.012957    -12.568019     -7.628573
    60     -0.758326    -11.970497     -6.472382
    61     -5.586792      1.537496      9.438279
    62     -4.616295      1.044985     10.885756
    63     -5.050410      0.383010      8.054247
    64     -3.598275     -2.778644      6.778604
    65     -2.214814     -1.814247      5.951008
    66     -2.582468     -3.554101      8.189920
    67     -8.637394    -10.316877     -3.844640
    68     -8.714542     -9.379442     -5.470528
    69    -10.172046     -9.646893     -2.978172
    70     -3.843338     10.109309     -8.758837
    71     -5.447583      9.538548     -7.889775
    72     -2.696484      8.577476     -9.011274
    73     11.592383     -2.986750     11.031414
    74     12.219139     -2.193277      9.470474
    75     11.032833     -4.691591     10.524004
    76     -1.199834     -6.787926      9.555580
    77     -2.624786     -7.965199      9.388628
    78     -0.689149     -6.702781     11.382308
    79      4.402605      9.832232      2.903553
    80      6.169336     10.109356      3.143009
    81      3.924666     10.032762      1.133811
    82     -3.110635     -2.901244     -7.867128
    83     -1.616440     -4.039135     -7.837352
    84     -3.516113     -2.669061     -5.977746
    85      7.745530     -2.253139      4.727673
    86      7.080352     -0.999353      3.430529
    87      6.226226     -2.779995      5.764305
    88      5.722539     -6.295995    -10.986758
    89      6.028085     -6.729606    -12.722458
    90      6.916592     -7.410465    -10.071811
    91      3.130991     -0.188404     10.023092
    92      2.953190     -2.091647      9.795998
    93      4.816494     -0.092052     10.589447
    94      7.026771      6.084909     10.275771
    95      5.958771      6.939590     11.652758
    96      7.147919      4.372626     10.981818
    97     -6.395383      8.790575      5.020558
    98     -7.649292      8.973230      6.346037
    99     -4.997010      7.847379      5.866094
   100     -6.027754     -6.403409      3.836148
   101     -5.854239     -6.446192      1.962273
   102     -5.270446     -4.985283      4.685232
   103     -5.378026     -9.814988     11.662354
   104     -6.425452    -10.531689     10.369084
   105     -4.775895    -11.184372     12.797841
   106     10.311357     -7.835596      9.118711
   107      8.857545     -9.113926      9.052559
   108     10.659958     -7.357513      7.303729
   109     -9.300425     10.869019      9.027592
   110    -10.069047      9.749454     10.265684
   111    -10.378312     12.330918      8.951927
   112     -5.352024     -7.339609     -1.324917
   113     -3.940030     -8.480875     -0.844781
   114     -6.433898     -8.396431     -2.550407
   115    -11.233044      0.034903      6.553659
   116    -11.095034      1.540100      7.595560
   117    -12.947451     -0.413948      6.208234
   118      6.324976     -7.842906      3.668537
   119      7.133648     -9.429815      4.271357
   120      7.713161     -6.713987      4.000817
   121      1.665134     11.662341      7.268756
   122      1.574595     10.741387      5.626138
   123     -0.221208     12.235068      7.635964
   124      9.213902     -1.628281     -1.940581
   125      9.800598     -0.489518     -0.711232
   126     10.100898     -1.079459     -3.556121
   127     -2.554424      5.666414      7.552899
   128     -0.929649      5.099787      6.771818
   129     -3.579391      4.226890      8.116047
   130     -9.845978      4.212604     10.126889
   131    -10.356848      3.685191     11.912970
   132     -8.220551      3.142800      9.754016
   133     11.170564      3.011405     -8.918768
   134      9.718323      1.979358     -9.596770
   135     12.116537      1.749355     -7.974527
   136      2.999681      5.015596      6.099053
   137      3.362601      6.744219      5.618088
   138      3.926819      5.012916      7.699164
   139     -1.875334      0.943540    -10.743624
   140     -0.233334      0.555544    -11.476120
   141     -2.408050     -0.265756     -9.446507
   142      3.160300     -5.893727      7.452689
   143      3.811659     -7.096861      6.156471
   144      1.468576     -6.525470      8.123016
   145      1.226355     -6.649290     -9.093109
   146      0.730961     -8.139908     -8.154522
   147      2.899312     -6.921022     -9.994576
   148     -8.493438     -3.582471     -8.918867
   149     -9.447871     -3.204915    -10.528772
   150     -6.592404     -3.623862     -8.932352
   151      3.576089      8.393878     -9.914182
   152      2.012660      7.566254    -10.216785
   153      4.275481      7.430509     -8.622123
   154     10.275887      6.581822      6.135689
   155      8.689021      6.443730      7.305893
   156     11.618648      6.366249      7.304746
   157      7.323772    -10.025163     -3.029671
   158      5.431923     -9.748139     -2.635180
   159      7.682761    -11.773674     -3.347871
   160      3.053265     -7.627566     -0.517233
   161      4.193242     -7.908141      0.918445
   162      1.354960     -8.196421     -0.239776
   163    -11.025996     -7.745475      4.179324
   164    -11.111803     -7.773449      2.250558
   165     -9.276972     -7.106083      4.408888
   166     -5.426267      5.867821     -3.291102
   167     -6.133957      6.798537     -4.692388
   168     -5.517437      6.907886     -1.829344
   169     -3.371944    -10.449583      5.532247
   170     -4.618375    -11.797955      5.430733
   171     -4.548081     -8.999186      5.017754
   172     -6.942022      9.785333      0.104309
   173     -6.046264     11.360181      0.136245
   174     -7.051793      9.198401      1.889307
   175      1.833437      9.828715     -1.751009
   176      1.329349      7.946642     -1.896763
   177      1.751941     10.302031     -3.526218
 
  MM charges 
  ---------- 
     1     -0.674440
     2      0.337220
     3      0.337220
     4     -0.674440
     5      0.337220
     6      0.337220
     7     -0.674440
     8      0.337220
     9      0.337220
    10     -0.674440
    11      0.337220
    12      0.337220
    13     -0.674440
    14      0.337220
    15      0.337220
    16     -0.674440
    17      0.337220
    18      0.337220
    19     -0.674440
    20      0.337220
    21      0.337220
    22     -0.674440
    23      0.337220
    24      0.337220
    25     -0.674440
    26      0.337220
    27      0.337220
    28     -0.674440
    29      0.337220
    30      0.337220
    31     -0.674440
    32      0.337220
    33      0.337220
    34     -0.674440
    35      0.337220
    36      0.337220
    37     -0.674440
    38      0.337220
    39      0.337220
    40     -0.674440
    41      0.337220
    42      0.337220
    43     -0.674440
    44      0.337220
    45      0.337220
    46     -0.674440
    47      0.337220
    48      0.337220
    49     -0.674440
    50      0.337220
    51      0.337220
    52     -0.674440
    53      0.337220
    54      0.337220
    55     -0.674440
    56      0.337220
    57      0.337220
    58     -0.674440
    59      0.337220
    60      0.337220
    61     -0.674440
    62      0.337220
    63      0.337220
    64     -0.674440
    65      0.337220
    66      0.337220
    67     -0.674440
    68      0.337220
    69      0.337220
    70     -0.674440
    71      0.337220
    72      0.337220
    73     -0.674440
    74      0.337220
    75      0.337220
    76     -0.674440
    77      0.337220
    78      0.337220
    79     -0.674440
    80      0.337220
    81      0.337220
    82     -0.674440
    83      0.337220
    84      0.337220
    85     -0.674440
    86      0.337220
    87      0.337220
    88     -0.674440
    89      0.337220
    90      0.337220
    91     -0.674440
    92      0.337220
    93      0.337220
    94     -0.674440
    95      0.337220
    96      0.337220
    97     -0.674440
    98      0.337220
    99      0.337220
   100     -0.674440
   101      0.337220
   102      0.337220
   103     -0.674440
   104      0.337220
   105      0.337220
   106     -0.674440
   107      0.337220
   108      0.337220
   109     -0.674440
   110      0.337220
   111      0.337220
   112     -0.674440
   113      0.337220
   114      0.337220
   115     -0.674440
   116      0.337220
   117      0.337220
   118     -0.674440
   119      0.337220
   120      0.337220
   121     -0.674440
   122      0.337220
   123      0.337220
   124     -0.674440
   125      0.337220
   126      0.337220
   127     -0.674440
   128      0.337220
   129      0.337220
   130     -0.674440
   131      0.337220
   132      0.337220
   133     -0.674440
   134      0.337220
   135      0.337220
   136     -0.674440
   137      0.337220
   138      0.337220
   139     -0.674440
   140      0.337220
   141      0.337220
   142     -0.674440
   143      0.337220
   144      0.337220
   145     -0.674440
   146      0.337220
   147      0.337220
   148     -0.674440
   149      0.337220
   150      0.337220
   151     -0.674440
   152      0.337220
   153      0.337220
   154     -0.674440
   155      0.337220
   156      0.337220
   157     -0.674440
   158      0.337220
   159      0.337220
   160     -0.674440
   161      0.337220
   162      0.337220
   163     -0.674440
   164      0.337220
   165      0.337220
   166     -0.674440
   167      0.337220
   168      0.337220
   169     -0.674440
   170      0.337220
   171      0.337220
   172     -0.674440
   173      0.337220
   174      0.337220
   175     -0.674440
   176      0.337220
   177      0.337220
 
  MM isotropic polarizabilities in au 
  ----------------------------------- 
     1      5.739350
     2      2.308390
     3      2.308390
     4      5.739350
     5      2.308390
     6      2.308390
     7      5.739350
     8      2.308390
     9      2.308390
    10      5.739350
    11      2.308390
    12      2.308390
    13      5.739350
    14      2.308390
    15      2.308390
    16      5.739350
    17      2.308390
    18      2.308390
    19      5.739350
    20      2.308390
    21      2.308390
    22      5.739350
    23      2.308390
    24      2.308390
    25      5.739350
    26      2.308390
    27      2.308390
    28      5.739350
    29      2.308390
    30      2.308390
    31      5.739350
    32      2.308390
    33      2.308390
    34      5.739350
    35      2.308390
    36      2.308390
    37      5.739350
    38      2.308390
    39      2.308390
    40      5.739350
    41      2.308390
    42      2.308390
    43      5.739350
    44      2.308390
    45      2.308390
    46      5.739350
    47      2.308390
    48      2.308390
    49      5.739350
    50      2.308390
    51      2.308390
    52      5.739350
    53      2.308390
    54      2.308390
    55      5.739350
    56      2.308390
    57      2.308390
    58      5.739350
    59      2.308390
    60      2.308390
    61      5.739350
    62      2.308390
    63      2.308390
    64      5.739350
    65      2.308390
    66      2.308390
    67      5.739350
    68      2.308390
    69      2.308390
    70      5.739350
    71      2.308390
    72      2.308390
    73      5.739350
    74      2.308390
    75      2.308390
    76      5.739350
    77      2.308390
    78      2.308390
    79      5.739350
    80      2.308390
    81      2.308390
    82      5.739350
    83      2.308390
    84      2.308390
    85      5.739350
    86      2.308390
    87      2.308390
    88      5.739350
    89      2.308390
    90      2.308390
    91      5.739350
    92      2.308390
    93      2.308390
    94      5.739350
    95      2.308390
    96      2.308390
    97      5.739350
    98      2.308390
    99      2.308390
   100      5.739350
   101      2.308390
   102      2.308390
   103      5.739350
   104      2.308390
   105      2.308390
   106      5.739350
   107      2.308390
   108      2.308390
   109      5.739350
   110      2.308390
   111      2.308390
   112      5.739350
   113      2.308390
   114      2.308390
   115      5.739350
   116      2.308390
   117      2.308390
   118      5.739350
   119      2.308390
   120      2.308390
   121      5.739350
   122      2.308390
   123      2.308390
   124      5.739350
   125      2.308390
   126      2.308390
   127      5.739350
   128      2.308390
   129      2.308390
   130      5.739350
   131      2.308390
   132      2.308390
   133      5.739350
   134      2.308390
   135      2.308390
   136      5.739350
   137      2.308390
   138      2.308390
   139      5.739350
   140      2.308390
   141      2.308390
   142      5.739350
   143      2.308390
   144      2.308390
   145      5.739350
   146      2.308390
   147      2.308390
   148      5.739350
   149      2.308390
   150      2.308390
   151      5.739350
   152      2.308390
   153      2.308390
   154      5.739350
   155      2.308390
   156      2.308390
   157      5.739350
   158      2.308390
   159      2.308390
   160      5.739350
   161      2.308390
   162      2.308390
   163      5.739350
   164      2.308390
   165      2.308390
   166      5.739350
   167      2.308390
   168      2.308390
   169      5.739350
   170      2.308390
   171      2.308390
   172      5.739350
   173      2.308390
   174      2.308390
   175      5.739350
   176      2.308390
   177      2.308390


     ************************************************************************
     ************************** Output from HERINT **************************
     ************************************************************************



                      Nuclear contribution to dipole moments
                      --------------------------------------

                 au               Debye          C m (/(10**-30)

      x     13.67628434        34.76164522       115.95236735
      y    -21.24487746       -53.99908885      -180.12157214
      z    -21.38599276       -54.35776814      -181.31799746



 Threshold for neglecting two-electron integrals:  1.00D-12
 HERMIT - Number of two-electron integrals written:    38369865 ( 43.0% )
 HERMIT - Megabytes written:                            439.354

  Time used in TWOINT     is       7.42 seconds
  Total CPU  time used in HERMIT:   7.60 seconds
  Total wall time used in HERMIT:  27.48 seconds


                        .----------------------------------.
                        | End of Integral Section (HERMIT) |
                        `----------------------------------'



                   .--------------------------------------------.
                   | Starting in Wave Function Section (SIRIUS) |
                   `--------------------------------------------'

NCCEXCI for singlet:    1
 CCSD_INPUT: core-val requested
 Requested number of virtual orbs per sym
                     1
 Indices of requested virtual orbs
                     1
 CCSD_INPUT: core-val requested
 Requested number of core orbs per sym
                     1
 Indices of requested core orbs
                     1

 *** Output from Huckel module :

     Using EWMO model:          T
     Using EHT  model:          F
     Number of Huckel orbitals each symmetry:   37

 EWMO - Energy Weighted Maximum Overlap - is a Huckel type method,
        which normally is better than Extended Huckel Theory.
 Reference: Linderberg and Ohrn, Propagators in Quantum Chemistry (Wiley, 1973)

 Huckel EWMO eigenvalues for symmetry :  1
          -20.684870     -20.684516     -20.684371     -20.684049     -15.674522
           -1.803770      -1.610685      -1.603431      -1.587102      -1.459886
           -0.832367      -0.818319      -0.809569      -0.782526      -0.764048
           -0.753030      -0.741248      -0.688865      -0.674410      -0.654784
           -0.618610      -0.613281      -0.569253      -0.567583      -0.557352
           -0.269788      -0.251772      -0.245240      -0.239292      -0.190296
           -0.184501      -0.181277      -0.176730      -0.171767      -0.152293
           -0.146600      -0.143796

 **********************************************************************
 *SIRIUS* a direct, restricted step, second order MCSCF program       *
 **********************************************************************

 
     Date and time (Linux)  : Fri Dec  7 22:50:49 2018
     Host name              : n-62-24-6                               

 Title lines from ".mol" input file:
                                                                             
                                                                             

 Print level on unit LUPRI =   2 is   0
 Print level on unit LUW4  =   2 is  11

@    (Integral direct) CC calculation.

@    This is a combination run starting with
@              a restricted, closed shell Hartree-Fock calculation


 Initial molecular orbitals are obtained according to
 ".MOSTART EWMO  " input option

@    QM part is embedded in an environment :

@         Model: QMMM

     Wave function specification
     ============================

     For the specification of the Coupled Cluster: see later.

@    Wave function type        --- CC ---
@    Number of closed shell electrons          50
@    Number of electrons in active shells       0
@    Total charge of the molecule               1

@    Spin multiplicity and 2 M_S                1         0
@    Total number of symmetries                 1 (point group: C1 )
@    Reference state symmetry                   1 (irrep name : A  )

     Orbital specifications
     ======================
@    Abelian symmetry species          All |    1
@                                          |  A  
                                       --- |  ---
@    Occupied SCF orbitals              25 |   25
@    Secondary orbitals                138 |  138
@    Total number of orbitals          163 |  163
@    Number of basis functions         163 |  163

     Optimization information
     ========================
@    Number of configurations                 1
@    Number of orbital rotations           3450
     ------------------------------------------
@    Total number of variables             3451

     Maximum number of Fock   iterations      0
     Maximum number of DIIS   iterations     60
     Maximum number of QC-SCF iterations     60
     Threshold for SCF convergence     1.00D-07


 Changes of defaults for CC:
 ---------------------------


 -Implicit frozen core calculation
 -Excitation energies calculated
 -One-photon absorption strengths will be calculated
 -Oscillator strengths calculated
  
* Read MO coefficients from SIRIUS.RST with label "NEWORB  " and header info:  7Dec18  REORTHO 


 ***********************************************
 ***** DIIS acceleration of SCF iterations *****
 ***********************************************

 C1-DIIS algorithm; max error vectors =    8
 -----------------------------------------------------------------------------

 *** DIIS iteration number    1
 RDSUPM called. NFMAT, ISYMDM(1:NFMAT)                     1
                     1

Calculating AOSUPINT
     (Precalculated two-electron integrals are transformed to P-supermatrix elements.
      Threshold for discarding integrals :  1.00D-12 )
  CPU  time used in FORMSUP    is   3.02 seconds
  WALL time used in FORMSUP    is  1 minute  26 seconds

 ITDIIS, energy, error norm, change in energy, scr.thr., difden:
@ DIIS iter.   1    -360.253973041        3.87812D+00   -3.60D+02  -20    F

 (DIIS_RED) Control Parameters C2DIIS =         F NEVC =    1


 (DIIS_RED) B matrix:

               Column   1
       1      15.03977923
    ==== End of matrix output ====

 DIIS C vector; C2DIIS = F, LAMBDA = -1.50D+01
    1.000000
* Read MO coefficients from SIRIUS.RST with label "NEWORB  " and header info:  7Dec18  DIIS   1
      Virial theorem: -V/T =      2.003166
@      MULPOP N       0.08; H       0.16; H       0.18; H       0.17; H       0.17; O      -0.59; O      -0.61; O      -0.55; O      -0.56; H       0.31; 
@             H       0.33; H       0.34; H       0.33; H       0.31; H       0.31; H       0.32; H       0.31; 
   1  Level shift: doubly occupied orbital energies shifted by -2.00D-01

 DIIS Fock eigenvalues in symmetry 1
      -20.88028      -20.85288      -20.82005      -20.77158      -16.40419
       -1.69320       -1.68186       -1.66652       -1.61912       -1.58818
       -1.17418       -1.16071       -1.15624       -1.06578       -1.05144
       -0.99368       -0.96067       -0.93118       -0.90643       -0.89719
       -0.87697       -0.87402       -0.85102       -0.84056       -0.80350
       -0.00909       -0.00005        0.04047        0.06672        0.08899
        0.12545        0.14686        0.15686        0.17826        0.18167
        0.20169        0.21846        0.23535        0.24678        0.28774
        0.31107        0.40660        0.42476        0.44561        0.46046
        0.48263        0.48437        0.49287        0.50972        0.55989
        0.67052        0.70080        0.73323        0.79810        0.84894
        0.86987        0.90386        0.93161        0.94951        0.96527
        0.98391        1.00023        1.00746        1.02473        1.03970
        1.06274        1.09643        1.12242        1.26656        1.29128
        1.30637        1.31755        1.34396        1.37881        1.38984
        1.41183        1.42408        1.43695        1.46396        1.49531
        1.52157        1.53414        1.55350        1.57760        1.60920
        1.66687        1.69116        1.73917        1.75131        1.77374
        1.81612        1.94034        1.96149        2.00552        2.04341
        2.07664        2.10771        2.11358        2.12961        2.15079
        2.18087        2.20300        2.23093        2.26357        2.26766
        2.42322        2.45631        2.48949        2.49892        2.53818
        2.56328        2.58925        2.59802        2.63099        2.66504
        2.68616        2.69583        2.73240        2.75013        2.96447
        2.98791        3.01461        3.08116        3.26201        3.30322
        3.33058        3.35681        3.37481        3.39712        3.42449
        3.45253        3.48184        3.50342        3.51959        3.57545
        3.82852        3.86307        3.88730        3.91275        4.03164
        4.05324        4.07777        4.14038        4.67609        4.70034
        4.77948        5.16797        5.21441        5.26800        5.34222
        5.64328        5.66368        5.70515        5.74817        5.90384
        5.94477        5.98586        6.03955       36.36012       51.41597
       51.43732       51.45972       51.49375
 Time used in FCKEIG, thr_jaco:   4.70D-02  6.10D-02  1.65D-04
 CPU and wall times used in FCKEIG, THR_FCKEIG:   4.70D-02  6.10D-02  3.88D-02
 -----------------------------------------------------------------------------

 *** DIIS iteration number    2
 RDSUPM called. NFMAT, ISYMDM(1:NFMAT)                     1
                     1

 ITDIIS, energy, error norm, change in energy, scr.thr., difden:
@ DIIS iter.   2    -361.109622054        1.10399D+00   -8.56D-01  -20    F

 (DIIS_RED) Control Parameters C2DIIS =         F NEVC =    2


 (DIIS_RED) B matrix:

               Column   1     Column   2
       1      15.03977923
       2       0.90528846     1.21878701
    ==== End of matrix output ====

 DIIS C vector; C2DIIS = F, LAMBDA = -1.21D+00
    0.021698    0.978302
* Read MO coefficients from SIRIUS.RST with label "NEWORB  " and header info:  7Dec18  DIIS   2
      Virial theorem: -V/T =      2.002995
@      MULPOP N      -0.58; H       0.33; H       0.34; H       0.33; H       0.34; O      -0.65; O      -0.59; O      -0.57; O      -0.58; H       0.36; 
@             H       0.35; H       0.32; H       0.33; H       0.29; H       0.33; H       0.32; H       0.32; 
   2  Level shift: doubly occupied orbital energies shifted by -1.00D-01

 DIIS Fock eigenvalues in symmetry 1
      -20.81305      -20.77399      -20.77343      -20.73456      -15.62501
       -1.57361       -1.55081       -1.51418       -1.48580       -1.35412
       -0.94082       -0.92499       -0.89170       -0.87726       -0.85413
       -0.85059       -0.83507       -0.78678       -0.76815       -0.76533
       -0.75316       -0.74202       -0.72403       -0.71044       -0.67570
       -0.00005        0.04039        0.08623        0.11080        0.13168
        0.14790        0.18382        0.19531        0.21144        0.23298
        0.26304        0.30106        0.31369        0.34388        0.37192
        0.38732        0.43828        0.46528        0.49095        0.50258
        0.52005        0.52212        0.53019        0.59500        0.60730
        0.79807        0.81591        0.83962        0.87594        0.89225
        0.91406        0.94705        0.97207        0.99453        1.00594
        1.02619        1.04377        1.05600        1.06569        1.07972
        1.16503        1.20448        1.23375        1.30385        1.33356
        1.35244        1.37092        1.40057        1.43269        1.45088
        1.47100        1.48024        1.49908        1.52274        1.56916
        1.58805        1.61956        1.63825        1.64822        1.68886
        1.74709        1.75976        1.79607        1.82352        1.84192
        1.87438        2.02883        2.05293        2.07859        2.10709
        2.12391        2.16700        2.17304        2.21507        2.22997
        2.25941        2.28215        2.32053        2.36497        2.38430
        2.49705        2.54625        2.56743        2.58964        2.62993
        2.65595        2.67323        2.68527        2.71855        2.74765
        2.75944        2.79476        2.90442        2.94512        3.16938
        3.19035        3.23371        3.25568        3.31606        3.34266
        3.38181        3.38878        3.39824        3.44524        3.45060
        3.51465        3.52183        3.56988        3.58810        3.59642
        3.85727        3.88483        3.92290        3.92964        4.06329
        4.07626        4.11739        4.15592        5.04251        5.05766
        5.14706        5.19112        5.24113        5.26840        5.33490
        5.64926        5.67486        5.72174        5.74654        5.91640
        5.96972        5.99419        6.07383       37.02427       51.38150
       51.39000       51.43160       51.44239
 Time used in FCKEIG, thr_jaco:   3.30D-02  1.05D-01  4.70D-05
 CPU and wall times used in FCKEIG, THR_FCKEIG:   3.30D-02  1.05D-01  1.10D-02
 -----------------------------------------------------------------------------

 *** DIIS iteration number    3
 RDSUPM called. NFMAT, ISYMDM(1:NFMAT)                     1
                     1

 ITDIIS, energy, error norm, change in energy, scr.thr., difden:
@ DIIS iter.   3    -361.183407972        3.80354D-01   -7.38D-02  -20    F

 (DIIS_RED) Control Parameters C2DIIS =         F NEVC =    3


 (DIIS_RED) B matrix:

               Column   1     Column   2     Column   3
       1      15.03977923
       2       0.90528846     1.21878701
       3       0.80090784    -0.00455342     0.14466941
    ==== End of matrix output ====

 DIIS C vector; C2DIIS = F, LAMBDA = -9.39D-02
   -0.050519    0.118053    0.932466
* Read MO coefficients from SIRIUS.RST with label "NEWORB  " and header info:  7Dec18  DIIS   3
      Virial theorem: -V/T =      2.003824
@      MULPOP N      -0.41; H       0.30; H       0.31; H       0.30; H       0.31; O      -0.73; O      -0.67; O      -0.63; O      -0.64; H       0.40; 
@             H       0.38; H       0.35; H       0.36; H       0.32; H       0.36; H       0.34; H       0.34; 
   3  Level shift: doubly occupied orbital energies shifted by -5.00D-02

 DIIS Fock eigenvalues in symmetry 1
      -20.72400      -20.69020      -20.68001      -20.63976      -15.78670
       -1.50523       -1.48413       -1.44538       -1.41682       -1.35745
       -0.87409       -0.86143       -0.85468       -0.83764       -0.82028
       -0.80073       -0.77021       -0.72932       -0.70604       -0.69690
       -0.68638       -0.67075       -0.65693       -0.64145       -0.60217
       -0.00005        0.04588        0.09173        0.11556        0.13584
        0.15339        0.18904        0.19686        0.21510        0.23693
        0.26429        0.30222        0.31306        0.34351        0.36744
        0.38586        0.44893        0.47633        0.49994        0.51055
        0.53046        0.53251        0.54005        0.59608        0.61338
        0.78758        0.81641        0.83897        0.87893        0.89399
        0.92482        0.95893        0.98187        1.00615        1.01807
        1.03714        1.05818        1.06839        1.07913        1.09154
        1.16180        1.20060        1.22463        1.31592        1.34473
        1.36140        1.38538        1.41477        1.44433        1.46134
        1.48083        1.49144        1.50814        1.53309        1.57477
        1.59701        1.62505        1.64494        1.65502        1.69372
        1.75443        1.76852        1.80495        1.83078        1.85133
        1.88486        2.03313        2.05611        2.08672        2.11719
        2.13397        2.18063        2.18843        2.22557        2.23643
        2.26667        2.29341        2.33159        2.36243        2.37922
        2.50942        2.55170        2.57744        2.59406        2.63488
        2.66171        2.68241        2.69131        2.72681        2.75740
        2.76862        2.80094        2.87137        2.91255        3.15429
        3.17131        3.21057        3.22968        3.32938        3.36380
        3.40081        3.41399        3.42212        3.46468        3.47160
        3.53431        3.53899        3.58714        3.59576        3.62342
        3.88231        3.91028        3.94669        3.95541        4.09065
        4.10385        4.14248        4.18414        4.95990        4.97824
        5.06568        5.21314        5.26434        5.30099        5.36813
        5.68034        5.70452        5.74976        5.77754        5.94845
        6.00038        6.02693        6.10190       36.81872       51.42246
       51.43168       51.47250       51.48034
 Time used in FCKEIG, thr_jaco:   2.70D-02  8.80D-02  1.62D-05
 CPU and wall times used in FCKEIG, THR_FCKEIG:   2.70D-02  8.80D-02  3.80D-03
 -----------------------------------------------------------------------------

 *** DIIS iteration number    4
 RDSUPM called. NFMAT, ISYMDM(1:NFMAT)                     1
                     1

 ITDIIS, energy, error norm, change in energy, scr.thr., difden:
@ DIIS iter.   4    -361.193932986        9.58272D-02   -1.05D-02  -20    F

 (DIIS_RED) Control Parameters C2DIIS =         F NEVC =    4


 (DIIS_RED) B matrix:

               Column   1     Column   2     Column   3     Column   4
       1      15.03977923
       2       0.90528846     1.21878701
       3       0.80090784    -0.00455342     0.14466941
       4       0.05089547     0.07875618     0.00304412     0.00918286
    ==== End of matrix output ====

 DIIS C vector; C2DIIS = F, LAMBDA = -4.65D-03
    0.000296   -0.064763    0.006207    1.058260
* Read MO coefficients from SIRIUS.RST with label "NEWORB  " and header info:  7Dec18  DIIS   4
      Virial theorem: -V/T =      2.003756
@      MULPOP N      -0.49; H       0.32; H       0.33; H       0.32; H       0.33; O      -0.75; O      -0.68; O      -0.64; O      -0.65; H       0.41; 
@             H       0.39; H       0.36; H       0.37; H       0.32; H       0.36; H       0.35; H       0.35; 
   4  Level shift: doubly occupied orbital energies shifted by -2.50D-02

 DIIS Fock eigenvalues in symmetry 1
      -20.71224      -20.67687      -20.66980      -20.62860      -15.72612
       -1.48449       -1.46310       -1.42528       -1.39652       -1.31940
       -0.85112       -0.83779       -0.82277       -0.80422       -0.78715
       -0.77820       -0.74887       -0.70356       -0.67974       -0.67413
       -0.66158       -0.64814       -0.63132       -0.61648       -0.57715
       -0.00005        0.04585        0.09142        0.11507        0.13601
        0.15286        0.18867        0.19864        0.21559        0.23789
        0.26698        0.30530        0.31775        0.34825        0.37435
        0.39159        0.44861        0.47502        0.50006        0.51073
        0.52903        0.53177        0.53930        0.60008        0.61382
        0.79453        0.82202        0.84365        0.88404        0.89537
        0.92622        0.95916        0.98297        1.00516        1.01642
        1.03602        1.05630        1.06773        1.07767        1.09165
        1.16755        1.20571        1.22947        1.31658        1.34564
        1.36278        1.38360        1.41300        1.44328        1.46132
        1.48019        1.49035        1.50835        1.53289        1.57636
        1.59757        1.62806        1.64784        1.65564        1.69570
        1.75698        1.76967        1.80406        1.83305        1.85154
        1.88383        2.03689        2.06159        2.08782        2.11707
        2.13288        2.17909        2.18534        2.22549        2.23890
        2.26747        2.29269        2.33040        2.36672        2.38456
        2.50867        2.55435        2.57739        2.59582        2.63802
        2.66390        2.68421        2.69638        2.72906        2.75702
        2.76806        2.80209        2.88265        2.92377        3.16306
        3.18027        3.22094        3.23921        3.32853        3.36127
        3.39940        3.41087        3.41925        3.46325        3.46849
        3.53364        3.53637        3.58603        3.59633        3.62006
        3.87888        3.90609        3.94356        3.95173        4.08726
        4.09989        4.13970        4.18061        4.97891        4.99662
        5.08475        5.20774        5.25957        5.29374        5.36152
        5.67366        5.69855        5.74446        5.77148        5.94068
        5.99377        6.01971        6.09595       36.85383       51.40905
       51.41778       51.46035       51.46767
 Time used in FCKEIG, thr_jaco:   2.60D-02  1.57D-01  4.08D-06
 CPU and wall times used in FCKEIG, THR_FCKEIG:   2.60D-02  1.57D-01  9.58D-04
 -----------------------------------------------------------------------------

 *** DIIS iteration number    5
 RDSUPM called. NFMAT, ISYMDM(1:NFMAT)                     1
                     1

 ITDIIS, energy, error norm, change in energy, scr.thr., difden:
@ DIIS iter.   5    -361.194974316        3.00899D-02   -1.04D-03  -20    F

 (DIIS_RED) Control Parameters C2DIIS =         F NEVC =    5


 (DIIS_RED) B matrix:

               Column   1     Column   2     Column   3     Column   4     Column   5
       1      15.03977923
       2       0.90528846     1.21878701
       3       0.80090784    -0.00455342     0.14466941
       4       0.05089547     0.07875618     0.00304412     0.00918286
       5       0.02202869     0.00847003     0.00568292     0.00098196     0.00090540
    ==== End of matrix output ====

 DIIS C vector; C2DIIS = F, LAMBDA = -6.36D-04
    0.001450   -0.012689   -0.044020    0.080383    0.974875
* Read MO coefficients from SIRIUS.RST with label "NEWORB  " and header info:  7Dec18  DIIS   5
      Virial theorem: -V/T =      2.003420
@      MULPOP N      -0.48; H       0.32; H       0.33; H       0.32; H       0.33; O      -0.77; O      -0.69; O      -0.65; O      -0.67; H       0.42; 
@             H       0.40; H       0.37; H       0.38; H       0.33; H       0.37; H       0.36; H       0.35; 
   5  Level shift: doubly occupied orbital energies shifted by -1.25D-02

 DIIS Fock eigenvalues in symmetry 1
      -20.69236      -20.65778      -20.64949      -20.60918      -15.71000
       -1.46932       -1.44820       -1.40999       -1.38150       -1.30533
       -0.83674       -0.82367       -0.80869       -0.79011       -0.77307
       -0.76394       -0.73466       -0.68910       -0.66518       -0.65926
       -0.64583       -0.63363       -0.61577       -0.60055       -0.56136
       -0.00005        0.04626        0.09181        0.11541        0.13639
        0.15320        0.18899        0.19920        0.21601        0.23841
        0.26770        0.30613        0.31876        0.34924        0.37551
        0.39265        0.44923        0.47565        0.50073        0.51142
        0.52961        0.53246        0.53996        0.60095        0.61459
        0.79596        0.82366        0.84537        0.88561        0.89741
        0.92817        0.96065        0.98454        1.00655        1.01777
        1.03732        1.05764        1.06910        1.07918        1.09327
        1.16895        1.20705        1.23083        1.31825        1.34706
        1.36432        1.38415        1.41362        1.44400        1.46213
        1.48095        1.49109        1.50922        1.53365        1.57725
        1.59830        1.62888        1.64861        1.65634        1.69643
        1.75786        1.77024        1.80431        1.83377        1.85198
        1.88408        2.03795        2.06261        2.08874        2.11798
        2.13375        2.17995        2.18611        2.22654        2.23997
        2.26842        2.29357        2.33137        2.36780        2.38571
        2.50919        2.55516        2.57791        2.59629        2.63875
        2.66449        2.68480        2.69724        2.72958        2.75716
        2.76815        2.80244        2.88407        2.92517        3.16483
        3.18202        3.22269        3.24114        3.33119        3.36417
        3.40188        3.41360        3.42186        3.46598        3.47108
        3.53616        3.53902        3.58855        3.59885        3.62262
        3.88153        3.90885        3.94593        3.95428        4.09016
        4.10293        4.14230        4.18337        4.98113        4.99890
        5.08700        5.21216        5.26358        5.29848        5.36576
        5.67798        5.70270        5.74817        5.77533        5.94478
        5.99764        6.02333        6.09935       36.85738       51.41649
       51.42532       51.46700       51.47436
 Time used in FCKEIG, thr_jaco:   2.50D-02  1.74D-01  1.28D-06
 CPU and wall times used in FCKEIG, THR_FCKEIG:   2.50D-02  1.74D-01  3.01D-04
 -----------------------------------------------------------------------------

 *** DIIS iteration number    6
 RDSUPM called. NFMAT, ISYMDM(1:NFMAT)                     1
                     1

 ITDIIS, energy, error norm, change in energy, scr.thr., difden:
@ DIIS iter.   6    -361.195068119        1.10292D-02   -9.38D-05  -20    F

 (DIIS_RED) Control Parameters C2DIIS =         F NEVC =    6


 (DIIS_RED) B matrix:

               Column   1     Column   2     Column   3     Column   4     Column   5     Column   6
       1      15.03977923
       2       0.90528846     1.21878701
       3       0.80090784    -0.00455342     0.14466941
       4       0.05089547     0.07875618     0.00304412     0.00918286
       5       0.02202869     0.00847003     0.00568292     0.00098196     0.00090540
       6      -0.00518202    -0.00016239     0.00077350     0.00056435     0.00003831     0.00012164
    ==== End of matrix output ====

 DIIS C vector; C2DIIS = F, LAMBDA = -3.68D-05
    0.000784    0.007460   -0.011446   -0.136421    0.128783    1.010839
* Read MO coefficients from SIRIUS.RST with label "NEWORB  " and header info:  7Dec18  DIIS   6
      Virial theorem: -V/T =      2.003670
@      MULPOP N      -0.48; H       0.31; H       0.33; H       0.31; H       0.33; O      -0.77; O      -0.69; O      -0.65; O      -0.67; H       0.42; 
@             H       0.40; H       0.37; H       0.38; H       0.33; H       0.37; H       0.36; H       0.35; 

 DIIS Fock eigenvalues in symmetry 1
      -20.68209      -20.64720      -20.63951      -20.59880      -15.69955
       -1.45743       -1.43621       -1.39821       -1.36957       -1.29338
       -0.82486       -0.81177       -0.79681       -0.77819       -0.76111
       -0.75219       -0.72284       -0.67740       -0.65335       -0.64763
       -0.63374       -0.62194       -0.60357       -0.58846       -0.54914
       -0.00005        0.04613        0.09164        0.11524        0.13627
        0.15304        0.18884        0.19907        0.21587        0.23827
        0.26759        0.30595        0.31856        0.34904        0.37528
        0.39247        0.44899        0.47535        0.50050        0.51116
        0.52931        0.53222        0.53970        0.60073        0.61434
        0.79560        0.82335        0.84512        0.88528        0.89709
        0.92797        0.96026        0.98418        1.00611        1.01729
        1.03688        1.05724        1.06868        1.07872        1.09291
        1.16868        1.20673        1.23045        1.31782        1.34667
        1.36395        1.38383        1.41329        1.44359        1.46180
        1.48058        1.49074        1.50884        1.53332        1.57693
        1.59800        1.62865        1.64839        1.65602        1.69615
        1.75760        1.76999        1.80397        1.83355        1.85172
        1.88379        2.03768        2.06249        2.08835        2.11752
        2.13326        2.17949        2.18559        2.22608        2.23969
        2.26804        2.29319        2.33090        2.36748        2.38535
        2.50886        2.55486        2.57760        2.59592        2.63852
        2.66423        2.68455        2.69708        2.72937        2.75682
        2.76780        2.80213        2.88354        2.92463        3.16427
        3.18149        3.22213        3.24050        3.33045        3.36332
        3.40120        3.41282        3.42114        3.46511        3.47031
        3.53543        3.53823        3.58785        3.59812        3.62188
        3.88073        3.90792        3.94521        3.95351        4.08932
        4.10200        4.14157        4.18257        4.98014        4.99789
        5.08599        5.21100        5.26257        5.29713        5.36463
        5.67662        5.70145        5.74710        5.77418        5.94336
        5.99642        6.02214        6.09829       36.85536       51.41418
       51.42294       51.46501       51.47235
 Time used in FCKEIG, thr_jaco:   2.40D-02  1.02D-01  4.69D-07
 CPU and wall times used in FCKEIG, THR_FCKEIG:   2.40D-02  1.02D-01  1.10D-04
 -----------------------------------------------------------------------------

 *** DIIS iteration number    7
 RDSUPM called. NFMAT, ISYMDM(1:NFMAT)                     1
                     1

 ITDIIS, energy, error norm, change in energy, scr.thr., difden:
@ DIIS iter.   7    -361.195081299        2.33050D-03   -1.32D-05  -20    F

 (DIIS_RED) Control Parameters C2DIIS =         F NEVC =    7


 (DIIS_RED) B matrix:

               Column   1     Column   2     Column   3     Column   4     Column   5     Column   6
       1      15.03977923
       2       0.90528846     1.21878701
       3       0.80090784    -0.00455342     0.14466941
       4       0.05089547     0.07875618     0.00304412     0.00918286
       5       0.02202869     0.00847003     0.00568292     0.00098196     0.00090540
       6      -0.00518202    -0.00016239     0.00077350     0.00056435     0.00003831     0.00012164
       7       0.00052796     0.00018553     0.00000509     0.00000881     0.00004898     0.00000020

               Column   7
       7       0.00000543
    ==== End of matrix output ====

 DIIS C vector; C2DIIS = F, LAMBDA = -1.21D-06
   -0.000265   -0.000789    0.005719    0.023989   -0.106444   -0.118492    1.196282
* Read MO coefficients from SIRIUS.RST with label "NEWORB  " and header info:  7Dec18  DIIS   7
      Virial theorem: -V/T =      2.003606
@      MULPOP N      -0.48; H       0.31; H       0.33; H       0.31; H       0.33; O      -0.77; O      -0.69; O      -0.66; O      -0.67; H       0.42; 
@             H       0.40; H       0.37; H       0.38; H       0.33; H       0.37; H       0.36; H       0.36; 

 DIIS Fock eigenvalues in symmetry 1
      -20.68176      -20.64699      -20.63907      -20.59851      -15.69911
       -1.45725       -1.43608       -1.39801       -1.36943       -1.29315
       -0.82473       -0.81167       -0.79665       -0.77804       -0.76096
       -0.75205       -0.72275       -0.67731       -0.65326       -0.64753
       -0.63353       -0.62191       -0.60340       -0.58822       -0.54893
       -0.00005        0.04619        0.09169        0.11529        0.13632
        0.15307        0.18888        0.19914        0.21592        0.23833
        0.26767        0.30604        0.31866        0.34916        0.37542
        0.39260        0.44906        0.47540        0.50057        0.51123
        0.52936        0.53228        0.53975        0.60083        0.61442
        0.79576        0.82350        0.84526        0.88543        0.89724
        0.92811        0.96038        0.98428        1.00620        1.01739
        1.03696        1.05731        1.06878        1.07881        1.09302
        1.16882        1.20688        1.23060        1.31796        1.34680
        1.36408        1.38385        1.41332        1.44365        1.46186
        1.48063        1.49079        1.50892        1.53338        1.57702
        1.59807        1.62874        1.64848        1.65609        1.69624
        1.75769        1.77005        1.80401        1.83363        1.85177
        1.88381        2.03780        2.06262        2.08844        2.11760
        2.13333        2.17955        2.18563        2.22616        2.23980
        2.26813        2.29326        2.33096        2.36760        2.38549
        2.50890        2.55495        2.57765        2.59597        2.63861
        2.66430        2.68461        2.69720        2.72944        2.75684
        2.76782        2.80217        2.88374        2.92483        3.16446
        3.18168        3.22233        3.24070        3.33063        3.36352
        3.40133        3.41299        3.42128        3.46531        3.47045
        3.53560        3.53841        3.58801        3.59830        3.62202
        3.88090        3.90811        3.94533        3.95364        4.08951
        4.10221        4.14171        4.18273        4.98042        4.99818
        5.08628        5.21124        5.26275        5.29742        5.36483
        5.67688        5.70168        5.74725        5.77436        5.94362
        5.99664        6.02232        6.09843       36.85579       51.41455
       51.42333       51.46525       51.47260
 Time used in FCKEIG, thr_jaco:   2.40D-02  2.82D-01  9.92D-08
 CPU and wall times used in FCKEIG, THR_FCKEIG:   2.40D-02  2.82D-01  2.33D-05
 -----------------------------------------------------------------------------

 *** DIIS iteration number    8
 RDSUPM called. NFMAT, ISYMDM(1:NFMAT)                     1
                     1

 ITDIIS, energy, error norm, change in energy, scr.thr., difden:
@ DIIS iter.   8    -361.195081862        3.74994D-04   -5.62D-07  -20    F

 (DIIS_RED) Control Parameters C2DIIS =         F NEVC =    8


 (DIIS_RED) B matrix:

               Column   1     Column   2     Column   3     Column   4     Column   5     Column   6
       1      15.03977923
       2       0.90528846     1.21878701
       3       0.80090784    -0.00455342     0.14466941
       4       0.05089547     0.07875618     0.00304412     0.00918286
       5       0.02202869     0.00847003     0.00568292     0.00098196     0.00090540
       6      -0.00518202    -0.00016239     0.00077350     0.00056435     0.00003831     0.00012164
       7       0.00052796     0.00018553     0.00000509     0.00000881     0.00004898     0.00000020
       8       0.00005317    -0.00003783     0.00000617     0.00000174     0.00000000     0.00000169

               Column   7     Column   8
       7       0.00000543
       8       0.00000031     0.00000014
    ==== End of matrix output ====

 DIIS C vector; C2DIIS = F, LAMBDA = -8.32D-08
    0.000012   -0.000016   -0.000624   -0.000579    0.015209   -0.013143   -0.187808    1.186948
* Read MO coefficients from SIRIUS.RST with label "NEWORB  " and header info:  7Dec18  DIIS   8
      Virial theorem: -V/T =      2.003623
@      MULPOP N      -0.48; H       0.31; H       0.33; H       0.31; H       0.33; O      -0.77; O      -0.69; O      -0.66; O      -0.67; H       0.42; 
@             H       0.40; H       0.37; H       0.38; H       0.33; H       0.37; H       0.36; H       0.36; 

 DIIS Fock eigenvalues in symmetry 1
      -20.68176      -20.64691      -20.63917      -20.59853      -15.69914
       -1.45724       -1.43605       -1.39804       -1.36943       -1.29316
       -0.82472       -0.81164       -0.79666       -0.77805       -0.76096
       -0.75207       -0.72275       -0.67732       -0.65326       -0.64758
       -0.63354       -0.62194       -0.60338       -0.58824       -0.54893
       -0.00005        0.04619        0.09169        0.11528        0.13632
        0.15307        0.18889        0.19913        0.21592        0.23832
        0.26766        0.30603        0.31866        0.34915        0.37541
        0.39260        0.44906        0.47540        0.50057        0.51122
        0.52935        0.53228        0.53976        0.60083        0.61441
        0.79575        0.82350        0.84526        0.88542        0.89722
        0.92812        0.96039        0.98428        1.00620        1.01739
        1.03697        1.05732        1.06877        1.07879        1.09301
        1.16881        1.20687        1.23059        1.31796        1.34679
        1.36407        1.38386        1.41333        1.44364        1.46185
        1.48062        1.49079        1.50891        1.53338        1.57701
        1.59807        1.62873        1.64847        1.65608        1.69623
        1.75769        1.77005        1.80400        1.83363        1.85177
        1.88380        2.03779        2.06261        2.08843        2.11759
        2.13332        2.17956        2.18562        2.22615        2.23979
        2.26812        2.29327        2.33095        2.36759        2.38549
        2.50891        2.55494        2.57765        2.59596        2.63860
        2.66429        2.68461        2.69719        2.72943        2.75683
        2.76782        2.80216        2.88373        2.92482        3.16445
        3.18167        3.22232        3.24070        3.33063        3.36348
        3.40135        3.41299        3.42128        3.46528        3.47044
        3.53559        3.53839        3.58802        3.59830        3.62201
        3.88089        3.90807        3.94536        3.95362        4.08951
[...]
 | 1 1 1 1 |  29   1  10   1 |     1271        1 |       807086 |   -0.068673  |
 | 1 1 1 1 |  13   1  11   1 |     1393        1 |       969529 |    0.078444  |
 | 1 1 1 1 |  27   1  11   1 |     1407        1 |       989122 |   -0.095697  |
 | 1 1 1 1 |  28   1  11   1 |     1408        1 |       990529 |    0.084979  |
 | 1 1 1 1 |  13   1  14   1 |     1807        1 |      1631722 |   -0.065218  |
 | 1 1 1 1 |  26   1  14   1 |     1820        1 |      1655291 |   -0.100588  |
 | 1 1 1 1 |  15   1  15   1 |     1947        1 |      1894432 |    0.069727  |
 | 1 1 1 1 |  28   1  15   1 |     1960        1 |      1919821 |    0.075824  |
 +=============================================================================+


          Norm of Printed Amplitude Vector :             0.8235

          Printed all single excitations greater than 0.379138

          Printed all double excitations greater than 0.065193



+======================================================================+
| contributions of excitation levels to right eigenvectors as computed |
| from the (RE|RE) self overlap                                        |
+----------------------------------------------------------------------+
| sym | multi | state |    E / eV  | % singles | % doubles | % triples |
+======================================================================+
|    1|   1   |   1   |  410.89487 |  87.9491  |  12.0509  |   0.0000  |
+======================================================================+





+======================================================================+
| contributions of excitation levels to excited states as computed     |
| from the (LE|RE) overlap                                             |
+----------------------------------------------------------------------+
| sym | multi | state |    E / eV  | % singles | % doubles | % triples |
+======================================================================+
|    1|   1   |   1   |  410.89487 |  78.6912  |  21.3088  |   0.0000  |
+======================================================================+



 --------------------------
 Symmetry class Nr.:     1
 Multiplicity      :     3
 --------------------------

 Length of Excitation vectors in this class is:   8404200
 No Excitation Energies calculated in this symmetry class
     

   *******************************************************************
   *                                                                 *
   *--------   OUTPUT FROM PROPERTY AND SYMMETRY ANALYSIS   ---------*
   *                                                                 *
   *******************************************************************



                         +-------------------------------+
                         ! REQUESTED PROPERTY OPERATORS: !
                         +-------------------------------+

             Index   Oper. Label  Symmetry  Transp.  PDBS  Atom
             --------------------------------------------------
                1     HAM0            1        1      T      0
                2     XDIPLEN         1        1      F      0
                3     YDIPLEN         1        1      F      0
                4     ZDIPLEN         1        1      F      0
             --------------------------------------------------




                         +-------------------------------+
                         ! REQUESTED EXPECTATION VALUES: !
                         +-------------------------------+

                       Index   Oper. Label  Symmetry
                       -----------------------------
                       -----------------------------




                       +------------------------------------+
                       ! REQUESTED EFFECTIVE FOCK MATRICES: !
                       +------------------------------------+

                       Index   Oper. Label  Symmetry
                       -----------------------------
                       -----------------------------




                        +----------------------------------+
                        ! REQUESTED FIRST ORDER M-VECTORS: !
                        +----------------------------------+

               Index   State Symmetry  Frequency
               --------------------------------------------------
                  1             1    1     1.510011D+01
               --------------------------------------------------


      

    *******************************************************************
    *          SOLVING COUPLED CLUSTER RESPONSE EQUATIONS             *
    *******************************************************************



 
 +======================================================================+
 !                     RHS & ETA VECTORS TO COMPUTE:                    !
 +======================================================================+
 | TYPE | # VEC. |  NEEDED FOR:                                         |
 +----------------------------------------------------------------------+
 +======================================================================+



 +======================================================================+
 !                       LINEAR EQUATIONS TO SOLVE:                     !
 +======================================================================+
 | TYPE | # VEC. |  EQUATION:                                           |
 +----------------------------------------------------------------------+
 |  M1  |    1   |  first-order ground - excited state multipliers      |
 +======================================================================+



 +======================================================================+
 !                F MATRIX TRANSFORMATIONS TO COMPUTE:                  !
 +======================================================================+
 | TYPE | # VEC. |  TRANSFORMED:                                        |
 +----------------------------------------------------------------------+
 |  FR  |    1   |  right eigenvectors (RE)                             |
 +======================================================================+





 Testing R1 list: 

 List nr.  Label     Symmetry      Frequency      T1-norm        T2-norm


 Testing L1 list: 

 List nr.  Label     Symmetry      Frequency      T1-norm        T2-norm
  Solvent 1-order response equations converged in                     0 
  solvent iterations
 SONIAPRI                     0
 CCEQ_STR: CVSEPARATION =  T
 CCEQ_STR: IONIZATION =  T
 CCEQ_STR: REMOVE_CORE =  F
 could not find required file CCM1_1___1
 IOPTSV is    33 ... program continues nevertheless.
 Vector nr.  1 of type M1  and symmetry  1 was not found on file.
     M1  start vector nr.  1 of symmetry  1 generated from gradient
 CCEQ_STR: freeze VALENCE OR VIRT
 CCEQ_SOL: CVSEPARA=     T
 CCEQ_SOL: LIONISAT=     T
 CCEQ_SOL: REMOVE_CORE =  F



 ----- COUPLED CLUSTER RESPONSE SOLVER -----

    Iter  #Vectors  time (min)   residual
    --------------------------------------
 CCRED CVS/IONIS sigma_                     1 
 project out valence occupied or virtual
      1       1         1.56     0.21E+01
 CCRED CVS/IONIS sigma_                     2 
 project out valence occupied or virtual
      2       1         1.58     0.38E+00
 CCRED CVS/IONIS sigma_                     3 
 project out valence occupied or virtual
      3       1         1.58     0.50E-01
 CCRED CVS/IONIS sigma_                     4 
 project out valence occupied or virtual
                    -1  vectors with norm le:  1.000000000000000E-035  REMOVED

 CCORT,**WARNING**  number vectors added is zero after check for vector norm , NBADD :    0

 CCORT, number vectors added is zero , NBADD :    0

 CCORT, number vectors added is zero , NBADD :    0

 CCORT, number vectors added is zero , NBADD :    0

 CCORT, number vectors added is zero , NBADD :    0

 *** MICROITERATIONS STOPPED DUE TO LINEAR DEPENDENCE BETWEEN ALL NEW TRIAL VECTORS
                     0  trial vectors converged
  LINEAR DEPENDENCE BETWEEN                     1  NON CONVERGED TRIAL VECTORS
      4       1         1.57     0.53E-02

 ***  CCEQ_SOL -MICROITERATIONS STOPPED  
     LINEAR DEPENDENCE BETWEEN ALL NEW TRIAL VECTORS
    --------------------------------------
    converged in  4 iterations
    threshold:    0.10E-08


         Routine          Time (min)
         ---------------------------
         CC_TRDRV            6.29
         CCRED               0.03
         CCNEX               0.05
         ---------------------------
         Total time          6.37


  Total CPU  time used in CCEQ_SOLV:  6 minutes 22 seconds
  Total wall time used in CCEQ_SOLV: 10 minutes 56 seconds


 xxxxxxxxxxxxxxxxxxxxxxxxxxxxxxxxxxxxx

 
 Solution of CC response equations completed.
 

 *******************************************************************
 *                                                                 *
 *--------  OUTPUT FROM COUPLED CLUSTER LINEAR RESPONSE   ---------*
 *                                                                 *
 *--------      CALCULATION OF SECOND ORDER RESIDUES      ---------*
 *                                                                 *
 *******************************************************************



                  +---------------------------------------------+
                  ! CC_SOPR: Calculation of CCSD       Residues !
                  +---------------------------------------------+

 Doing the Mf*CsiA
 Doing the Mf*CsiA
 Doing the Mf*CsiA


 CCSD  Right transition moments in atomic units:
 -----------------------------------------------

  1      15.100109  <XDIPLEN |f> =       0.00000000
  1      15.100109  <YDIPLEN |f> =      -0.00000003
  1      15.100109  <ZDIPLEN |f> =       0.00000005


 CCSD  Left  transition moments in atomic units:
 -----------------------------------------------

  1      15.100109  <f|XDIPLEN > =       0.00000000
  1      15.100109  <f|YDIPLEN > =      -0.00000001
  1      15.100109  <f|ZDIPLEN > =       0.00000002


 CCSD  linear response residue property in atomic units:
 -------------------------------------------------------

 RES{<<XDIPLEN ,XDIPLEN >>(15.100109)} =     0.00000000 (   0.00000000)
 RES{<<XDIPLEN ,YDIPLEN >>(15.100109)} =    -0.00000000 (  -0.00000000)
 RES{<<XDIPLEN ,ZDIPLEN >>(15.100109)} =     0.00000000 (   0.00000000)
 RES{<<YDIPLEN ,XDIPLEN >>(15.100109)} =    -0.00000000 (  -0.00000000)
 RES{<<YDIPLEN ,YDIPLEN >>(15.100109)} =     0.00000000 (   0.00000002)
 RES{<<YDIPLEN ,ZDIPLEN >>(15.100109)} =    -0.00000000 (  -0.00000002)
 RES{<<ZDIPLEN ,XDIPLEN >>(15.100109)} =     0.00000000 (   0.00000000)
 RES{<<ZDIPLEN ,YDIPLEN >>(15.100109)} =    -0.00000000 (  -0.00000002)
 RES{<<ZDIPLEN ,ZDIPLEN >>(15.100109)} =     0.00000000 (   0.00000003)


 CCSD  Transition strength matrix for state nr.  1 of symmetry 1
 CCSD  excitation energy:15.10010895

 Gauge: length

               Column   1     Column   2     Column   3
       1     2.875513D-23  -1.951669D-18   3.361858D-18
       2    -1.951669D-18   3.525884D-16  -6.080578D-16
       3     3.361858D-18  -6.080578D-16   1.048627D-15
    ==== End of matrix output ====

 Principal values of diagonalized transition strength matrix:

             a.u.               
 1       0.00000000
 2       0.00000000
 3       0.00000000

 Principal axis of diagonalized transition strength matrix:


               Column   1     Column   2     Column   3
       1       1.00000000     0.00000000     0.00000000
       2       0.00000000     1.00000000     0.00000000
       3       0.00000000     0.00000000     1.00000000
    ==== End of matrix output ====


 CCSD   oscillator strength matrix for state nr.  1 of symmetry 1
 CCSD  excitation energy:15.10010895


               Column   1     Column   2     Column   3
       1     2.894704D-22  -1.964695D-17   3.384295D-17
       2    -1.964695D-17   3.549416D-15  -6.121160D-15
       3     3.384295D-17  -6.121160D-15   1.055626D-14
    ==== End of matrix output ====

 Principal values of diagonalized oscillator strength matrix:

             a.u.               
 1       0.00000000
 2       0.00000000
 3       0.00000000

 Principal axis of diagonalized oscillator strength matrix:


               Column   1     Column   2     Column   3
       1       1.00000000     0.00000000     0.00000000
       2       0.00000000     1.00000000     0.00000000
       3       0.00000000     0.00000000     1.00000000
    ==== End of matrix output ====

  Total time for      9 linear response residues:       3.13 seconds.
  

 *******************************************************************************
 *******************************************************************************
 *                                                                             *
 *                                                                             *
 *                   SUMMARY OF COUPLED CLUSTER CALCULATION                    *
 *                                                                             *
 *                                                                             *
 *******************************************************************************
 *******************************************************************************

                                                                                
                                                                                
            Total SCF   energy:                  -361.1950818804                
            Total MP2   energy:                  -362.3069432193                
            Total CCSD  energy:                  -362.3466915609                
                                                                                
                                                                                
            Total SCF   energy:                  -361.1950818804                
            Total RSTAR energy:                  -362.3466915609                
            Total CCSD  energy:                  -362.3468322035                
                                                                                
                                                                                
            Total SCF   energy:                  -361.1950818804                
            Total RSTAR energy:                  -362.3468322035                
            Total CCSD  energy:                  -362.3468327029                
                                                                                
                                                                                
            Total SCF   energy:                  -361.1950818804                
            Total RSTAR energy:                  -362.3468327029                
            Total CCSD  energy:                  -362.3468327872                
                                                                                
                                                                                
            Total SCF   energy:                  -361.1950818804                
            Total RSTAR energy:                  -362.3468327872                
            Total CCSD  energy:                  -362.3468327896                
                                                                                
                                                                                
            Total SCF   energy:                  -361.1950818804                
            Total RSTAR energy:                  -362.3468327896                
            Total CCSD  energy:                  -362.3468327896                
            CCSD Total  energy:                  -362.7701075680                
            CCSD E(QM/MM)     :                    -0.4183922270                
                                                                                
                                                                                
                                                                                
 +=============================================================================+
 |  sym. | Exci.  |        CCSD       Excitation energies            | ||T1||  |
 |(spin, |        +------------------------------------------------------------+
 | spat) |        |     Hartree    |       eV.      |     cm-1       |    %    |
 +=============================================================================+
 | ^1A   |    1   |    15.1001090  |     410.89487  |   3314090.815  |  87.95  |
 +=============================================================================+
                                                                                
                                                                                
     Total energies in Hartree:                                                 
             1 ^1A       -347.2516063884                                        
                                                                                
                                                                                
 +=============================================================================+
 |  sym. | Exci.  |        CCSD       Length   Gauge Oscillator Strength       |
 |(spin, |        +------------------------------------------------------------+
 | spat) |        | Dipole Strength(a.u.) | Oscillator strength  | Direction   |
 +=============================================================================+
 | ^1A   |    1   |        0.0000000      |      0.0000000       |    -        |
 +=============================================================================+

  1 a.u. =        27.21138 eV.  
  1 a.u. =    219474.62934 cm-1.
  

 *******************************************************************************
 *******************************************************************************
 *                                                                             *
 *                                                                             *
 *                      END OF COUPLED CLUSTER CALCULATION                     *
 *                                                                             *
 *                                                                             *
 *******************************************************************************
 *******************************************************************************


 CPU and wall time for CC :    7385.841   13703.962

 
     Date and time (Linux)  : Sat Dec  8 02:47:13 2018
     Host name              : n-62-24-6                               


                      .-------------------------------------.
                      | End of Coupled Cluster Section (CC) |
                      `-------------------------------------'

  Total CPU  time used in DALTON:   2 hours  5 minutes 21 seconds
  Total wall time used in DALTON:   3 hours 56 minutes 59 seconds

 
     Date and time (Linux)  : Sat Dec  8 02:47:14 2018
     Host name              : n-62-24-6                               
  

 +---------------------------------------------------------+ 
 | List of selected calculated molecular properties (a.u.) | 
 +---------------------------------------------------------+ 

  Properties are read from unit number                      4

 CCSD       properties :
 #  1 1 CCSD/MM  Ground state Energy =    -362.7701075680
 #  2 1 E_QM/MM  Ground state Energy =      -0.4183922270
 #  3 1 Sy: 1 Sp: 1 Exc:  1 E_tot:   -347.2516063884 w:     15.1001089526 E_grs:   -362.3517153410
 #  4 1 Exctot   Excited state Energy =    -347.2516063884
 #  5 1 |<O|XDIPLEN |i(15.100109)>| =     0.00000000
 #  7 1 |<O|YDIPLEN |i(15.100109)>| =     0.00000002
 #  9 1 |<O|ZDIPLEN |i(15.100109)>| =     0.00000003

 THE_END   
