

     ************************************************************************
     *************** Dalton - An Electronic Structure Program ***************
     ************************************************************************

    This is output from DALTON release Dalton2017.alpha (2016)
         ( Web site: http://daltonprogram.org )

   ----------------------------------------------------------------------------

    NOTE:
     
    Dalton is an experimental code for the evaluation of molecular
    properties using (MC)SCF, DFT, CI, and CC wave functions.
    The authors accept no responsibility for the performance of
    the code or for the correctness of the results.
     
    The code (in whole or part) is provided under a licence and
    is not to be reproduced for further distribution without
    the written permission of the authors or their representatives.
     
    See the home page "http://daltonprogram.org" for further information.
     
    If results obtained with this code are published,
    the appropriate citations would be both of:
     
       K. Aidas, C. Angeli, K. L. Bak, V. Bakken, R. Bast,
       L. Boman, O. Christiansen, R. Cimiraglia, S. Coriani,
       P. Dahle, E. K. Dalskov, U. Ekstroem,
       T. Enevoldsen, J. J. Eriksen, P. Ettenhuber, B. Fernandez,
       L. Ferrighi, H. Fliegl, L. Frediani, K. Hald, A. Halkier,
       C. Haettig, H. Heiberg, T. Helgaker, A. C. Hennum,
       H. Hettema, E. Hjertenaes, S. Hoest, I.-M. Hoeyvik,
       M. F. Iozzi, B. Jansik, H. J. Aa. Jensen, D. Jonsson,
       P. Joergensen, J. Kauczor, S. Kirpekar,
       T. Kjaergaard, W. Klopper, S. Knecht, R. Kobayashi, H. Koch,
       J. Kongsted, A. Krapp, K. Kristensen, A. Ligabue,
       O. B. Lutnaes, J. I. Melo, K. V. Mikkelsen, R. H. Myhre,
       C. Neiss, C. B. Nielsen, P. Norman, J. Olsen,
       J. M. H. Olsen, A. Osted, M. J. Packer, F. Pawlowski,
       T. B. Pedersen, P. F. Provasi, S. Reine, Z. Rinkevicius,
       T. A. Ruden, K. Ruud, V. Rybkin, P. Salek, C. C. M. Samson,
       A. Sanchez de Meras, T. Saue, S. P. A. Sauer,
       B. Schimmelpfennig, K. Sneskov, A. H. Steindal,
       K. O. Sylvester-Hvid, P. R. Taylor, A. M. Teale,
       E. I. Tellgren, D. P. Tew, A. J. Thorvaldsen, L. Thoegersen,
       O. Vahtras, M. A. Watson, D. J. D. Wilson, M. Ziolkowski
       and H. Agren,
       "The Dalton quantum chemistry program system",
       WIREs Comput. Mol. Sci. 2014, 4:269–284 (doi: 10.1002/wcms.1172)
     
    and
     
       Dalton, a Molecular Electronic Structure Program,
       Release Dalton2017.alpha (2016), see http://daltonprogram.org
   ----------------------------------------------------------------------------

    Authors in alphabetical order (major contribution(s) in parenthesis):

  Kestutis Aidas,           Vilnius University,           Lithuania   (QM/MM)
  Celestino Angeli,         University of Ferrara,        Italy       (NEVPT2)
  Keld L. Bak,              UNI-C,                        Denmark     (AOSOPPA, non-adiabatic coupling, magnetic properties)
  Vebjoern Bakken,          University of Oslo,           Norway      (DALTON; geometry optimizer, symmetry detection)
  Radovan Bast,             UiT The Arctic U. of Norway,  Norway      (DALTON installation and execution frameworks)
  Pablo Baudin,             University of Valencia,       Spain       (Cholesky excitation energies)
  Linus Boman,              NTNU,                         Norway      (Cholesky decomposition and subsystems)
  Ove Christiansen,         Aarhus University,            Denmark     (CC module)
  Renzo Cimiraglia,         University of Ferrara,        Italy       (NEVPT2)
  Sonia Coriani,            University of Trieste,        Italy       (CC module, MCD in RESPONS)
  Janusz Cukras,            University of Trieste,        Italy       (MChD in RESPONS)
  Paal Dahle,               University of Oslo,           Norway      (Parallelization)
  Erik K. Dalskov,          UNI-C,                        Denmark     (SOPPA)
  Thomas Enevoldsen,        Univ. of Southern Denmark,    Denmark     (SOPPA)
  Janus J. Eriksen,         Aarhus University,            Denmark     (Polarizable embedding model, TDA)
  Rasmus Faber,             University of Copenhagen,     Denmark     (Vib.avg. NMR with SOPPA, parallel AO-SOPPA)
  Berta Fernandez,          U. of Santiago de Compostela, Spain       (doublet spin, ESR in RESPONS)
  Lara Ferrighi,            Aarhus University,            Denmark     (PCM Cubic response)
  Heike Fliegl,             University of Oslo,           Norway      (CCSD(R12))
  Luca Frediani,            UiT The Arctic U. of Norway,  Norway      (PCM)
  Bin Gao,                  UiT The Arctic U. of Norway,  Norway      (Gen1Int library)
  Christof Haettig,         Ruhr-University Bochum,       Germany     (CC module)
  Kasper Hald,              Aarhus University,            Denmark     (CC module)
  Asger Halkier,            Aarhus University,            Denmark     (CC module)
  Frederik Beyer Hansen,    University of Copenhagen,     Denmark     (Parallel AO-SOPPA)
  Erik D. Hedegaard,        Univ. of Southern Denmark,    Denmark     (Polarizable embedding model, QM/MM)
  Hanne Heiberg,            University of Oslo,           Norway      (geometry analysis, selected one-electron integrals)
  Trygve Helgaker,          University of Oslo,           Norway      (DALTON; ABACUS, ERI, DFT modules, London, and much more)
  Alf Christian Hennum,     University of Oslo,           Norway      (Parity violation)
  Hinne Hettema,            University of Auckland,       New Zealand (quadratic response in RESPONS; SIRIUS supersymmetry)
  Eirik Hjertenaes,         NTNU,                         Norway      (Cholesky decomposition)
  Pi A. B. Haase,           University of Copenhagen,     Denmark     (Triplet AO-SOPPA)
  Maria Francesca Iozzi,    University of Oslo,           Norway      (RPA)
  Brano Jansik              Technical Univ. of Ostrava    Czech Rep.  (DFT cubic response)
  Hans Joergen Aa. Jensen,  Univ. of Southern Denmark,    Denmark     (DALTON; SIRIUS, RESPONS, ABACUS modules, London, and much more)
  Dan Jonsson,              UiT The Arctic U. of Norway,  Norway      (cubic response in RESPONS module)
  Poul Joergensen,          Aarhus University,            Denmark     (RESPONS, ABACUS, and CC modules)
  Maciej Kaminski,          University of Warsaw,         Poland      (CPPh in RESPONS)
  Joanna Kauczor,           Linkoeping University,        Sweden      (Complex polarization propagator (CPP) module)
  Sheela Kirpekar,          Univ. of Southern Denmark,    Denmark     (Mass-velocity & Darwin integrals)
  Wim Klopper,              KIT Karlsruhe,                Germany     (R12 code in CC, SIRIUS, and ABACUS modules)
  Stefan Knecht,            ETH Zurich,                   Switzerland (Parallel CI and MCSCF)
  Rika Kobayashi,           Australian National Univ.,    Australia   (DIIS in CC, London in MCSCF)
  Henrik Koch,              NTNU,                         Norway      (CC module, Cholesky decomposition)
  Jacob Kongsted,           Univ. of Southern Denmark,    Denmark     (Polarizable embedding model, QM/MM)
  Andrea Ligabue,           University of Modena,         Italy       (CTOCD, AOSOPPA)
  Nanna H. List             Univ. of Southern Denmark,    Denmark     (Polarizable embedding model)
  Ola B. Lutnaes,           University of Oslo,           Norway      (DFT Hessian)
  Juan I. Melo,             University of Buenos Aires,   Argentina   (LRESC, Relativistic Effects on NMR Shieldings)
  Kurt V. Mikkelsen,        University of Copenhagen,     Denmark     (MC-SCRF and QM/MM)
  Rolf H. Myhre,            NTNU,                         Norway      (Cholesky, subsystems and ECC2)
  Christian Neiss,          Univ. Erlangen-Nuernberg,     Germany     (CCSD(R12))
  Christian B. Nielsen,     University of Copenhagen,     Denmark     (QM/MM)
  Patrick Norman,           Linkoeping University,        Sweden      (Cubic response and complex frequency response in RESPONS)
  Jeppe Olsen,              Aarhus University,            Denmark     (SIRIUS CI/density modules)
  Jogvan Magnus H. Olsen,   Univ. of Southern Denmark,    Denmark     (Polarizable embedding model, QM/MM)
  Anders Osted,             Copenhagen University,        Denmark     (QM/MM)
  Martin J. Packer,         University of Sheffield,      UK          (SOPPA)
  Filip Pawlowski,          Kazimierz Wielki University,  Poland      (CC3)
  Morten N. Pedersen,       Univ. of Southern Denmark,    Denmark     (Polarizable embedding model)
  Thomas B. Pedersen,       University of Oslo,           Norway      (Cholesky decomposition)
  Patricio F. Provasi,      University of Northeastern,   Argentina   (Analysis of coupling constants in localized orbitals)
  Zilvinas Rinkevicius,     KTH Stockholm,                Sweden      (open-shell DFT, ESR)
  Elias Rudberg,            KTH Stockholm,                Sweden      (DFT grid and basis info)
  Torgeir A. Ruden,         University of Oslo,           Norway      (Numerical derivatives in ABACUS)
  Kenneth Ruud,             UiT The Arctic U. of Norway,  Norway      (DALTON; ABACUS magnetic properties and much more)
  Pawel Salek,              KTH Stockholm,                Sweden      (DALTON; DFT code)
  Claire C. M. Samson       University of Karlsruhe       Germany     (Boys localization, r12 integrals in ERI)
  Alfredo Sanchez de Meras, University of Valencia,       Spain       (CC module, Cholesky decomposition)
  Trond Saue,               Paul Sabatier University,     France      (direct Fock matrix construction)
  Stephan P. A. Sauer,      University of Copenhagen,     Denmark     (SOPPA(CCSD), SOPPA prop., AOSOPPA, vibrational g-factors)
  Bernd Schimmelpfennig,    Forschungszentrum Karlsruhe,  Germany     (AMFI module)
  Kristian Sneskov,         Aarhus University,            Denmark     (Polarizable embedding model, QM/MM)
  Arnfinn H. Steindal,      UiT The Arctic U. of Norway,  Norway      (parallel QM/MM, Polarizable embedding model)
  Casper Steinmann,         Univ. of Southern Denmark,    Denmark     (QFIT, Polarizable embedding model)
  K. O. Sylvester-Hvid,     University of Copenhagen,     Denmark     (MC-SCRF)
  Peter R. Taylor,          VLSCI/Univ. of Melbourne,     Australia   (Symmetry handling ABACUS, integral transformation)
  Andrew M. Teale,          University of Nottingham,     England     (DFT-AC, DFT-D)
  David P. Tew,             University of Bristol,        England     (CCSD(R12))
  Olav Vahtras,             KTH Stockholm,                Sweden      (triplet response, spin-orbit, ESR, TDDFT, open-shell DFT)
  David J. Wilson,          La Trobe University,          Australia   (DFT Hessian and DFT magnetizabilities)
  Hans Agren,               KTH Stockholm,                Sweden      (SIRIUS module, RESPONS, MC-SCRF solvation model)
 --------------------------------------------------------------------------------

     Date and time (Linux)  : Sun Dec  2 17:03:41 2018
     Host name              : n-62-23-21                              

 * Work memory size             :  1280000000 =  9.537 gigabytes.

 * Directories for basis set searches:
   1) /zhome/d7/7/119775/My_Codes/dalton-private/build2016/basis/diffs
   2) /zhome/37/3/129401/NH3NH4/CCSD/AIMD_SAMPLING/nh4_4h2o_nd
   3) /zhome/9a/4/124800/source/dalton/build-mlcc/basis


Compilation information
-----------------------

 Who compiled             | rfaber
 Host                     | hpclogin1
 System                   | Linux-2.6.32-696.1.1.el6.x86_64
 CMake generator          | Unix Makefiles
 Processor                | x86_64
 64-bit integers          | ON
 MPI                      | OFF
 Fortran compiler         | /opt/intel/2016update2/compilers_and_libraries_201
                          | 6.2.181/linux/bin/intel64/ifort
 Fortran compiler version | ifort (IFORT) 16.0.2 20160204
 C compiler               | /opt/intel/2016update2/compilers_and_libraries_201
                          | 6.2.181/linux/bin/intel64/icc
 C compiler version       | icc (ICC) 16.0.2 20160204
 C++ compiler             | /opt/intel/2016update2/compilers_and_libraries_201
                          | 6.2.181/linux/bin/intel64/icpc
 C++ compiler version     | icpc (ICC) 16.0.2 20160204
 Static linking           | OFF
 Last Git revision        | bb4d1599ca5680a9f3980451fc8bbefdba436d59
 Git branch               | mlcc
 Configuration time       | 2017-06-13 16:11:03.928841


   Content of the .dal input file
 ----------------------------------

**DALTON
.RUN WAVE FUNCTIONS
*QMMM
.QMMM
**INTEGRALS
.DIPLEN
**WAVE FUNCTIONS
.CC
*PRINT
!To check the origin of excit
.PRINTL
   0 11
*SCF INP
.THRESH
1.0D-7
!*ORBITAL INPUT
!.MOSTART
!NEWORB
*CC INP
!.RESTART
.CCSD
.THRLEQ
 1.0D-9
.THRENR
 1.0D-10
.FROIMP
4
0
.PRINT
 1
.MAX IT
 1200
.MAXRED
 1200
.MXLRV
1199
*CCSLV
.CCMM
.MXSLIT
200
.MXINIT
4 5
*CCEXCI
.NCCEXC
 1
.IONISATION
1
1
.CVSEPARA
1
1
*CCLRSD
.DIPOLE
**END OF DALTON INPUT


   Content of the .mol file
 ----------------------------

ATOMBASIS


Atomtypes=5 Charge=1 Nosymm Angstrom
   7.00000    1    Basis=6-311G**
N          0.000000        0.000000        0.000000
   1.00000    4    Basis=6-311G**
H          0.237580        1.017817        0.067301
H          0.794897       -0.517692       -0.349908
H         -0.860275       -0.215671       -0.599686
H         -0.177173       -0.379276        0.921964
   8.00000    4    Basis=6-311G**
O         -2.538023       -0.674917       -1.004762
O          1.548392        2.330549        0.194396
O         -0.028935        0.101144        2.770574
O          1.746391       -2.294367       -0.665899
   1.00000    8    Basis=6-311G**
H         -2.723844       -1.470795       -0.461019
H         -3.358774       -0.094153       -1.007234
H          1.653155        3.318692        0.263319
H          2.330497        1.850539       -0.102056
H          0.286066       -0.083363        3.728036
H         -0.261423        1.063617        2.716457
H          1.611653       -2.821044        0.141422
H          2.524539       -1.658716       -0.660773
   0.00000    1    Basis=diffs
X          0.000000        0.000000        0.000000


       *******************************************************************
       *********** Output from DALTON general input processing ***********
       *******************************************************************

 --------------------------------------------------------------------------------
   Overall default print level:    0
   Print level for DALTON.STAT:    1

    HERMIT 1- and 2-electron integral sections will be executed
    "Old" integral transformation used (limited to max 255 basis functions)
    Wave function sections will be executed (SIRIUS module)
 --------------------------------------------------------------------------------


 Changes of defaults for *QMMM  :
 --------------------------------

 +------------------+
 |  WORD: | CHANGE: |
 +------------------+
 |   QMMM |       T |
 +------------------+
 


   ****************************************************************************
   *************** Output of molecule and basis set information ***************
   ****************************************************************************


    The two title cards from your ".mol" input:
    ------------------------------------------------------------------------
 1:                                                                         
 2:                                                                         
    ------------------------------------------------------------------------

  Coordinates are entered in Angstrom and converted to atomic units.
          - Conversion factor : 1 bohr = 0.52917721 A

  Atomic type no.    1
  --------------------
  Nuclear charge:   7.00000
  Number of symmetry independent centers:    1
  Number of basis sets to read;    2
  The basis set is "6-311G**" from the basis set library.
  Basis set file used for this atomic type with Z =   7 :
     "/zhome/9a/4/124800/source/dalton/build-mlcc/basis/6-311G**"

  Info about the basis set file: your basis has no documentation.
  Basis set: 6-311G**                                                                        

  Atomic type no.    2
  --------------------
  Nuclear charge:   1.00000
  Number of symmetry independent centers:    4
  Number of basis sets to read;    2
  The basis set is "6-311G**" from the basis set library.
  Basis set file used for this atomic type with Z =   1 :
     "/zhome/9a/4/124800/source/dalton/build-mlcc/basis/6-311G**"

  Info about the basis set file: your basis has no documentation.
  Basis set: 6-311G**                                                                        

  Atomic type no.    3
  --------------------
  Nuclear charge:   8.00000
  Number of symmetry independent centers:    4
  Number of basis sets to read;    2
  The basis set is "6-311G**" from the basis set library.
  Basis set file used for this atomic type with Z =   8 :
     "/zhome/9a/4/124800/source/dalton/build-mlcc/basis/6-311G**"

  Info about the basis set file: your basis has no documentation.
  Basis set: 6-311G**                                                                        

  Atomic type no.    4
  --------------------
  Nuclear charge:   1.00000
  Number of symmetry independent centers:    8
  Number of basis sets to read;    2
  The basis set is "6-311G**" from the basis set library.
  Basis set file used for this atomic type with Z =   1 :
     "/zhome/9a/4/124800/source/dalton/build-mlcc/basis/6-311G**"

  Info about the basis set file: your basis has no documentation.
  Basis set: 6-311G**                                                                        

  Atomic type no.    5
  --------------------
  Nuclear charge:   0.00000
  Number of symmetry independent centers:    1
  Number of basis sets to read;    2
  The basis set is "diffs" from the basis set library.
  Basis set file used for this atomic type with Z =   0 :
     "/zhome/9a/4/124800/source/dalton/build-mlcc/basis/diffs"

  Info about the basis set file: your basis has no documentation.
  Basis set: diffs                                                                           


                         SYMGRP: Point group information
                         -------------------------------

@    Point group: C1 


                                 Isotopic Masses
                                 ---------------

                           N          14.003074
                           H           1.007825
                           H           1.007825
                           H           1.007825
                           H           1.007825
                           O          15.994915
                           O          15.994915
                           O          15.994915
                           O          15.994915
                           H           1.007825
                           H           1.007825
                           H           1.007825
                           H           1.007825
                           H           1.007825
                           H           1.007825
                           H           1.007825
                           H           1.007825

                       Total mass:    90.076634 amu
                       Natural abundance:  98.500 %

 Center-of-mass coordinates (a.u.):    0.287718   -0.180183    0.532798


  Atoms and basis sets
  --------------------

  Number of atom types :    5
  Total number of atoms:   18

  label    atoms   charge   prim   cont     basis
  ----------------------------------------------------------------------
  N           1    7.0000    31    18      [11s5p1d|4s3p1d]                                   
  H           4    1.0000     8     6      [5s1p|3s1p]                                        
  O           4    8.0000    31    18      [11s5p1d|4s3p1d]                                   
  H           8    1.0000     8     6      [5s1p|3s1p]                                        
  X           1    0.0000     1     1      [1s|1s]                                            
  ----------------------------------------------------------------------
  total:     18   51.0000   252   163
  ----------------------------------------------------------------------
  Spherical harmonic basis used.

  Threshold for neglecting AO integrals:  1.00D-12


  Cartesian Coordinates (a.u.)
  ----------------------------

  Total number of coordinates:   54
  N       :     1  x   0.0000000000    2  y   0.0000000000    3  z   0.0000000000
  H       :     4  x   0.4489611328    5  y   1.9233953754    6  z   0.1271804579
  H       :     7  x   1.5021376276    8  y  -0.9782960971    9  z  -0.6612302889
  H       :    10  x  -1.6256841422   11  y  -0.4075591231   12  z  -1.1332423010
  H       :    13  x  -0.3348084467   14  y  -0.7167277658   15  z   1.7422594571
  O       :    16  x  -4.7961683689   17  y  -1.2754082871   18  z  -1.8987250008
  O       :    19  x   2.9260368141   20  y   4.4040993309   21  z   0.3673551998
  O       :    22  x  -0.0546792254   23  y   0.1911344592   24  z   5.2356260690
  O       :    25  x   3.3002006972   26  y  -4.3357252602   27  z  -1.2583667369
  H       :    28  x  -5.1473191672   29  y  -2.7793997360   30  z  -0.8711996484
  H       :    31  x  -6.3471629757   32  y  -0.1779233838   33  z  -1.9033964038
  H       :    34  x   3.1240101922   35  y   6.2714189732   36  z   0.4976007935
  H       :    37  x   4.4040010651   38  y   3.4970118936   39  z  -0.1928578894
  H       :    40  x   0.5405863937   41  y  -0.1575332390   42  z   7.0449670241
  H       :    43  x  -0.4940178728   44  y   2.0099448319   45  z   5.1333597603
  H       :    46  x   3.0455827785   47  y  -5.3310005466   48  z   0.2672488480
  H       :    49  x   4.7706873019   50  y  -3.1345189591   51  z  -1.2486800008
  X       :    52  x   0.0000000000   53  y   0.0000000000   54  z   0.0000000000

  Max    interatomic separation is    6.5286 Angstrom (   12.3372 Bohr)
  between atoms   12 and   10, "H     " and "H     ".

  Min HX interatomic separation is    0.9644 Angstrom (    1.8224 Bohr)

  Min YX interatomic separation is    2.7726 Angstrom (    5.2394 Bohr)


  Bond distances (Angstrom):
  --------------------------

                  atom 1     atom 2       distance
                  ------     ------       --------
  bond distance:  H          N            1.047342
  bond distance:  H          N            1.011089
  bond distance:  H          N            1.070612
  bond distance:  H          N            1.012550
  bond distance:  H          O            0.981635
  bond distance:  H          O            1.005448
  bond distance:  H          O            0.996068
  bond distance:  H          O            0.964356
  bond distance:  H          O            1.024696
  bond distance:  H          O            0.991632
  bond distance:  H          O            0.973299
  bond distance:  H          O            1.004785


  Bond angles (degrees):
  ----------------------

                  atom 1     atom 2     atom 3         angle
                  ------     ------     ------         -----
  bond angle:     H          N          H            109.967
  bond angle:     H          N          H            114.459
  bond angle:     H          N          H            110.194
  bond angle:     H          N          H            109.556
  bond angle:     H          N          H            105.123
  bond angle:     H          N          H            107.095
  bond angle:     H          O          H            108.370
  bond angle:     H          O          H            115.453
  bond angle:     H          O          H            107.327
  bond angle:     H          O          H            116.443




 Principal moments of inertia (u*A**2) and principal axes
 --------------------------------------------------------

   IA     324.181248          0.616209    0.638624    0.460919
   IB     400.621365          0.784616   -0.548528   -0.288954
   IC     470.696582         -0.068294   -0.539700    0.839082


 Rotational constants
 --------------------

               A                   B                   C

           1558.9397           1261.4879           1073.6832 MHz
            0.052001            0.042079            0.035814 cm-1


@  Nuclear repulsion energy :  200.658363110977 Hartree

  Number of floating/multiple basis set orbitals :    1


                     .---------------------------------------.
                     | Starting in Integral Section (HERMIT) |
                     `---------------------------------------'



 ***************************************************************************************
 ****************** Output from **INTEGRALS input processing (HERMIT) ******************
 ***************************************************************************************



    *************************************************************************
    ****************** Output from HERMIT input processing ******************
    *************************************************************************


 Default print level:        1

 * Nuclear model: Point charge

 Calculation of one- and two-electron Hamiltonian integrals.

 The following one-electron property integrals are calculated as requested:
          - overlap integrals
          - dipole length integrals

 Center of mass  (bohr):      0.287717614656     -0.180182918877      0.532798335748
 Operator center (bohr):      0.000000000000      0.000000000000      0.000000000000
 Gauge origin    (bohr):      0.000000000000      0.000000000000      0.000000000000
 Dipole origin   (bohr):      0.000000000000      0.000000000000      0.000000000000
 
  *********************************** 
  QMMM electrostatic potential: 
  Multipole order                                    0
  Isotropic polarization  
  *********************************** 
 
  ---------------- 
  QMMM information 
  ---------------- 
 
  MM coordinates in au 
  -------------------- 
     1      0.606664      3.844963     -5.810142
     2      1.282540      2.111756     -6.005196
     3      1.950751      5.098508     -5.712189
     4     10.012347      7.756103    -10.192463
     5      8.884309      6.997393     -8.979839
     6     10.494415      6.233158    -11.098214
     7      6.459919      6.149254     -6.683396
     8      7.134999      6.962188     -5.106352
     9      7.022018      4.303999     -6.447245
    10      7.816703      9.442806     -2.591969
    11      8.032880      8.340692     -1.079578
    12      9.322597     10.406089     -2.596064
    13     -7.411606     -6.873002     -7.874211
    14     -7.736019     -7.954173     -9.363704
    15     -7.678796     -5.134573     -8.569105
    16     -9.880998      9.729366     -7.159887
    17    -11.113723      9.340826     -8.495564
    18    -10.456352     11.373105     -6.449150
    19     -2.001054     -9.392494      2.378589
    20     -2.174801    -10.710597      1.115141
    21     -2.786830    -10.051015      3.970883
    22      4.847869     -1.514916    -11.114917
    23      4.415557     -2.975455    -10.069759
    24      6.125432     -2.016188    -12.481707
    25      5.813790    -10.382516      2.773366
    26      7.303990     -9.440743      2.381346
    27      6.318827    -11.614281      4.061694
    28     -3.430981      4.740214     -9.340516
    29     -4.090592      3.030552     -9.711852
    30     -1.758360      4.594419     -8.373890
    31     -8.828409      1.712717     -2.685263
    32    -10.209861      1.391097     -1.492438
    33     -8.749519      3.687731     -2.985435
    34     10.185790     -9.771710     -6.784593
    35     11.039502     -8.274026     -7.552302
    36      8.986526     -9.149701     -5.497699
    37      1.712118     -1.206477     -6.108723
    38      0.041357     -1.915850     -6.493751
    39      2.260887     -1.929856     -4.430321
    40    -11.671361     -0.939723     -6.140145
    41    -10.832143     -1.732435     -7.582622
    42    -10.374971      0.101813     -5.141472
    43     10.650787     -5.362738     -3.289407
    44     10.012461     -5.385249     -1.539930
    45     10.638946     -3.663998     -4.000274
    46      7.889930      6.115124      1.230331
    47      8.136068      7.086114      2.763787
    48      8.924292      4.645814      1.520939
    49      5.987066    -10.928645    -10.673691
    50      4.527228    -12.131775    -10.490216
    51      6.964846    -11.118905     -9.103512
    52     -3.099878      5.715788     -2.308856
    53     -2.095687      4.665772     -3.559373
    54     -4.752746      6.193044     -3.084092
    55     11.081836      0.809366      2.606201
    56     10.047309      1.007511      4.104258
    57     12.608805      1.864663      3.073231
    58     -1.240282     10.510390     -7.175876
    59      0.274167      9.907141     -8.077944
    60     -2.674798     10.500293     -8.358644
    61     -7.398765      2.307078      8.371931
    62     -6.377323      2.903026      9.837939
    63     -6.917925      0.479019      7.891649
    64     -4.779276     -1.841886      6.615808
    65     -3.005405     -1.283030      6.340256
    66     -4.540617     -3.502003      7.431473
    67     -8.322429     -8.652644     -2.827901
    68     -7.852441     -8.154440     -4.564380
    69    -10.015161     -7.973724     -2.792441
    70     -5.534431      9.438645     -9.929086
    71     -7.114369      9.192446     -8.888249
    72     -4.905213      7.640907    -10.098379
    73     11.079332     -4.776419      9.362482
    74     12.278040     -5.222821      7.905516
    75      9.720540     -5.960652      9.368467
    76     -3.914046     -6.011825      9.584844
    77     -5.672650     -6.582154      9.641589
    78     -3.200276     -6.435319     11.250294
    79      2.457491      9.465627      1.211887
    80      4.012626     10.553151      1.325652
    81      1.442795     10.226226     -0.088972
    82     -3.298400     -3.216837     -6.526201
    83     -3.840029     -4.992275     -6.820838
    84     -3.728706     -2.505903     -4.884659
    85      4.427883      4.486981      5.830321
    86      3.941426      4.203906      4.001856
    87      2.801506      4.403769      6.828129
    88      3.711452     -6.277477     -8.784169
    89      4.419100     -7.625765     -9.664451
    90      3.913113     -6.787309     -7.012377
    91      0.186973     -1.549475      9.908076
    92      0.919522     -3.317388      9.119057
    93      1.681461     -0.900577     10.796465
    94      1.151418      5.192436     10.146771
    95      0.087511      6.419916      9.342453
    96      0.051967      4.064926     11.078578
    97     -9.310894      9.340041      4.016923
    98    -10.231208      9.672779      5.509279
    99     -8.833045      7.448892      3.969202
   100     -9.618500     -5.001340      3.898896
   101     -7.616133     -5.124217      3.480069
   102     -9.852218     -3.202145      3.565686
   103     -7.841967    -10.715975      9.983869
   104     -9.679633    -10.867284     10.059781
   105     -7.080500    -11.990428     11.277390
   106      7.327181     -8.162218      8.621089
   107      6.351152     -9.074136     10.012145
   108      6.023631     -7.510442      7.601146
   109     10.278872     11.001587      9.255450
   110      9.388815     10.514748     10.807140
   111      9.363888     12.479077      8.561482
   112     -5.367019     -5.782382      1.098156
   113     -3.857793     -6.794193      1.543479
   114     -6.343444     -6.892307     -0.019697
   115      7.994381      1.664567      7.399149
   116      8.927569      2.210723      8.861204
   117      6.686554      3.042351      7.139281
   118      5.876496     -2.562762      5.785317
   119      4.272435     -2.258287      5.005251
   120      6.638328     -1.011946      6.359875
   121     -0.624400      7.793200      5.666775
   122      0.711093      8.746750      4.726984
   123     -2.272273      8.731997      5.642675
   124      6.393435      0.096455     -1.307679
   125      8.076495      0.054411     -0.587059
   126      6.637680      0.700879     -3.147509
   127     -8.255548      4.318474      3.980149
   128     -6.631722      4.499079      3.166127
   129     -7.778903      3.670680      5.702014
   130     11.532904      3.043837     11.280268
   131     11.630754      1.917698     12.706329
   132     13.032961      2.928964     10.252488
   133      7.303363      0.887686     -6.229722
   134      6.122552     -0.143619     -7.402284
   135      9.098859      0.441689     -6.598270
   136     -3.000575      4.399545      2.486352
   137     -3.070187      4.810727      0.655635
   138     -2.108583      5.802602      3.328513
   139     -4.454052     -0.472543    -10.884087
   140     -3.003958     -0.863006    -12.075495
   141     -3.963326     -1.298057     -9.229368
   142      1.440030     -5.866264      7.958572
   143      1.769405     -6.034491      6.184206
   144     -0.243894     -6.574047      8.291549
   145     -1.934766     -7.459641     -9.210347
   146     -1.861259     -9.327382     -8.862517
   147     -0.110814     -7.041806     -9.435508
   148     -9.245680     -2.456498    -10.524546
   149    -10.409473     -3.250161    -11.843883
   150     -7.650065     -1.959931    -11.232243
   151      2.866019      8.493030     -9.731557
   152      2.864664      7.353633    -11.370278
   153      4.320887      7.739080     -8.695329
   154      6.869103      8.651153      5.372161
   155      5.631752      7.299647      5.747725
   156      8.125682      8.841120      6.886205
   157      5.399050     -9.316677     -3.722853
   158      4.986379     -7.808003     -2.578172
   159      5.822745    -10.861120     -2.778054
   160      2.188125     -6.877424      2.991712
   161      3.618268     -8.139693      2.946484
   162      0.671671     -7.837590      2.786543
   163      9.300041     -6.489548      2.093703
   164      8.464892     -5.344153      3.308434
   165     11.105903     -6.208491      2.312567
   166     -8.133878      6.660810     -3.336380
   167     -8.548095      7.252956     -4.993110
   168     -8.881529      8.013280     -2.139673
   169     -4.784736     10.893651      5.911812
   170     -6.352944     10.767537      4.874781
   171     -5.276512     11.781084      7.425964
   172    -10.517575     10.500074     -0.921028
   173     -9.453115     11.971948     -1.521409
   174    -10.153175     10.377480      0.883621
   175     -1.772975     10.827409     -1.713963
   176     -2.031735      8.992914     -2.089085
   177     -1.361610     11.692782     -3.310228
 
  MM charges 
  ---------- 
     1     -0.674440
     2      0.337220
     3      0.337220
     4     -0.674440
     5      0.337220
     6      0.337220
     7     -0.674440
     8      0.337220
     9      0.337220
    10     -0.674440
    11      0.337220
    12      0.337220
    13     -0.674440
    14      0.337220
    15      0.337220
    16     -0.674440
    17      0.337220
    18      0.337220
    19     -0.674440
    20      0.337220
    21      0.337220
    22     -0.674440
    23      0.337220
    24      0.337220
    25     -0.674440
    26      0.337220
    27      0.337220
    28     -0.674440
    29      0.337220
    30      0.337220
    31     -0.674440
    32      0.337220
    33      0.337220
    34     -0.674440
    35      0.337220
    36      0.337220
    37     -0.674440
    38      0.337220
    39      0.337220
    40     -0.674440
    41      0.337220
    42      0.337220
    43     -0.674440
    44      0.337220
    45      0.337220
    46     -0.674440
    47      0.337220
    48      0.337220
    49     -0.674440
    50      0.337220
    51      0.337220
    52     -0.674440
    53      0.337220
    54      0.337220
    55     -0.674440
    56      0.337220
    57      0.337220
    58     -0.674440
    59      0.337220
    60      0.337220
    61     -0.674440
    62      0.337220
    63      0.337220
    64     -0.674440
    65      0.337220
    66      0.337220
    67     -0.674440
    68      0.337220
    69      0.337220
    70     -0.674440
    71      0.337220
    72      0.337220
    73     -0.674440
    74      0.337220
    75      0.337220
    76     -0.674440
    77      0.337220
    78      0.337220
    79     -0.674440
    80      0.337220
    81      0.337220
    82     -0.674440
    83      0.337220
    84      0.337220
    85     -0.674440
    86      0.337220
    87      0.337220
    88     -0.674440
    89      0.337220
    90      0.337220
    91     -0.674440
    92      0.337220
    93      0.337220
    94     -0.674440
    95      0.337220
    96      0.337220
    97     -0.674440
    98      0.337220
    99      0.337220
   100     -0.674440
   101      0.337220
   102      0.337220
   103     -0.674440
   104      0.337220
   105      0.337220
   106     -0.674440
   107      0.337220
   108      0.337220
   109     -0.674440
   110      0.337220
   111      0.337220
   112     -0.674440
   113      0.337220
   114      0.337220
   115     -0.674440
   116      0.337220
   117      0.337220
   118     -0.674440
   119      0.337220
   120      0.337220
   121     -0.674440
   122      0.337220
   123      0.337220
   124     -0.674440
   125      0.337220
   126      0.337220
   127     -0.674440
   128      0.337220
   129      0.337220
   130     -0.674440
   131      0.337220
   132      0.337220
   133     -0.674440
   134      0.337220
   135      0.337220
   136     -0.674440
   137      0.337220
   138      0.337220
   139     -0.674440
   140      0.337220
   141      0.337220
   142     -0.674440
   143      0.337220
   144      0.337220
   145     -0.674440
   146      0.337220
   147      0.337220
   148     -0.674440
   149      0.337220
   150      0.337220
   151     -0.674440
   152      0.337220
   153      0.337220
   154     -0.674440
   155      0.337220
   156      0.337220
   157     -0.674440
   158      0.337220
   159      0.337220
   160     -0.674440
   161      0.337220
   162      0.337220
   163     -0.674440
   164      0.337220
   165      0.337220
   166     -0.674440
   167      0.337220
   168      0.337220
   169     -0.674440
   170      0.337220
   171      0.337220
   172     -0.674440
   173      0.337220
   174      0.337220
   175     -0.674440
   176      0.337220
   177      0.337220
 
  MM isotropic polarizabilities in au 
  ----------------------------------- 
     1      5.739350
     2      2.308390
     3      2.308390
     4      5.739350
     5      2.308390
     6      2.308390
     7      5.739350
     8      2.308390
     9      2.308390
    10      5.739350
    11      2.308390
    12      2.308390
    13      5.739350
    14      2.308390
    15      2.308390
    16      5.739350
    17      2.308390
    18      2.308390
    19      5.739350
    20      2.308390
    21      2.308390
    22      5.739350
    23      2.308390
    24      2.308390
    25      5.739350
    26      2.308390
    27      2.308390
    28      5.739350
    29      2.308390
    30      2.308390
    31      5.739350
    32      2.308390
    33      2.308390
    34      5.739350
    35      2.308390
    36      2.308390
    37      5.739350
    38      2.308390
    39      2.308390
    40      5.739350
    41      2.308390
    42      2.308390
    43      5.739350
    44      2.308390
    45      2.308390
    46      5.739350
    47      2.308390
    48      2.308390
    49      5.739350
    50      2.308390
    51      2.308390
    52      5.739350
    53      2.308390
    54      2.308390
    55      5.739350
    56      2.308390
    57      2.308390
    58      5.739350
    59      2.308390
    60      2.308390
    61      5.739350
    62      2.308390
    63      2.308390
    64      5.739350
    65      2.308390
    66      2.308390
    67      5.739350
    68      2.308390
    69      2.308390
    70      5.739350
    71      2.308390
    72      2.308390
    73      5.739350
    74      2.308390
    75      2.308390
    76      5.739350
    77      2.308390
    78      2.308390
    79      5.739350
    80      2.308390
    81      2.308390
    82      5.739350
    83      2.308390
    84      2.308390
    85      5.739350
    86      2.308390
    87      2.308390
    88      5.739350
    89      2.308390
    90      2.308390
    91      5.739350
    92      2.308390
    93      2.308390
    94      5.739350
    95      2.308390
    96      2.308390
    97      5.739350
    98      2.308390
    99      2.308390
   100      5.739350
   101      2.308390
   102      2.308390
   103      5.739350
   104      2.308390
   105      2.308390
   106      5.739350
   107      2.308390
   108      2.308390
   109      5.739350
   110      2.308390
   111      2.308390
   112      5.739350
   113      2.308390
   114      2.308390
   115      5.739350
   116      2.308390
   117      2.308390
   118      5.739350
   119      2.308390
   120      2.308390
   121      5.739350
   122      2.308390
   123      2.308390
   124      5.739350
   125      2.308390
   126      2.308390
   127      5.739350
   128      2.308390
   129      2.308390
   130      5.739350
   131      2.308390
   132      2.308390
   133      5.739350
   134      2.308390
   135      2.308390
   136      5.739350
   137      2.308390
   138      2.308390
   139      5.739350
   140      2.308390
   141      2.308390
   142      5.739350
   143      2.308390
   144      2.308390
   145      5.739350
   146      2.308390
   147      2.308390
   148      5.739350
   149      2.308390
   150      2.308390
   151      5.739350
   152      2.308390
   153      2.308390
   154      5.739350
   155      2.308390
   156      2.308390
   157      5.739350
   158      2.308390
   159      2.308390
   160      5.739350
   161      2.308390
   162      2.308390
   163      5.739350
   164      2.308390
   165      2.308390
   166      5.739350
   167      2.308390
   168      2.308390
   169      5.739350
   170      2.308390
   171      2.308390
   172      5.739350
   173      2.308390
   174      2.308390
   175      5.739350
   176      2.308390
   177      2.308390


     ************************************************************************
     ************************** Output from HERINT **************************
     ************************************************************************



                      Nuclear contribution to dipole moments
                      --------------------------------------

                 au               Debye          C m (/(10**-30)

      x     14.89009322        37.84683947       126.24346764
      y     -8.10838583       -20.60945976       -68.74575796
      z     28.36912606        72.10712141       240.52346710



 Threshold for neglecting two-electron integrals:  1.00D-12
 HERMIT - Number of two-electron integrals written:    38094483 ( 42.6% )
 HERMIT - Megabytes written:                            436.200

  Time used in TWOINT     is       8.16 seconds
  Total CPU  time used in HERMIT:   8.35 seconds
  Total wall time used in HERMIT:   9.17 seconds


                        .----------------------------------.
                        | End of Integral Section (HERMIT) |
                        `----------------------------------'



                   .--------------------------------------------.
                   | Starting in Wave Function Section (SIRIUS) |
                   `--------------------------------------------'

NCCEXCI for singlet:    1
 CCSD_INPUT: core-val requested
 Requested number of virtual orbs per sym
                     1
 Indices of requested virtual orbs
                     1
 CCSD_INPUT: core-val requested
 Requested number of core orbs per sym
                     1
 Indices of requested core orbs
                     1

 *** Output from Huckel module :

     Using EWMO model:          T
     Using EHT  model:          F
     Number of Huckel orbitals each symmetry:   37

 EWMO - Energy Weighted Maximum Overlap - is a Huckel type method,
        which normally is better than Extended Huckel Theory.
 Reference: Linderberg and Ohrn, Propagators in Quantum Chemistry (Wiley, 1973)

 Huckel EWMO eigenvalues for symmetry :  1
          -20.684716     -20.684542     -20.684505     -20.684274     -15.675798
           -1.813702      -1.610348      -1.596004      -1.585664      -1.482909
           -0.841183      -0.825094      -0.797250      -0.788764      -0.778157
           -0.753756      -0.728367      -0.671881      -0.667373      -0.632351
           -0.630549      -0.609787      -0.597439      -0.575587      -0.564828
           -0.265837      -0.245991      -0.244682      -0.240484      -0.183515
           -0.178857      -0.175576      -0.174581      -0.171567      -0.146604
           -0.142016      -0.141257

 **********************************************************************
 *SIRIUS* a direct, restricted step, second order MCSCF program       *
 **********************************************************************

 
     Date and time (Linux)  : Sun Dec  2 17:03:51 2018
     Host name              : n-62-23-21                              

 Title lines from ".mol" input file:
                                                                             
                                                                             

 Print level on unit LUPRI =   2 is   0
 Print level on unit LUW4  =   2 is  11

@    (Integral direct) CC calculation.

@    This is a combination run starting with
@              a restricted, closed shell Hartree-Fock calculation


 Initial molecular orbitals are obtained according to
 ".MOSTART EWMO  " input option

@    QM part is embedded in an environment :

@         Model: QMMM

     Wave function specification
     ============================

     For the specification of the Coupled Cluster: see later.

@    Wave function type        --- CC ---
@    Number of closed shell electrons          50
@    Number of electrons in active shells       0
@    Total charge of the molecule               1

@    Spin multiplicity and 2 M_S                1         0
@    Total number of symmetries                 1 (point group: C1 )
@    Reference state symmetry                   1 (irrep name : A  )

     Orbital specifications
     ======================
@    Abelian symmetry species          All |    1
@                                          |  A  
                                       --- |  ---
@    Occupied SCF orbitals              25 |   25
@    Secondary orbitals                138 |  138
@    Total number of orbitals          163 |  163
@    Number of basis functions         163 |  163

     Optimization information
     ========================
@    Number of configurations                 1
@    Number of orbital rotations           3450
     ------------------------------------------
@    Total number of variables             3451

     Maximum number of Fock   iterations      0
     Maximum number of DIIS   iterations     60
     Maximum number of QC-SCF iterations     60
     Threshold for SCF convergence     1.00D-07


 Changes of defaults for CC:
 ---------------------------


 -Implicit frozen core calculation
 -Excitation energies calculated
 -One-photon absorption strengths will be calculated
 -Oscillator strengths calculated
  
* Read MO coefficients from SIRIUS.RST with label "NEWORB  " and header info:  2Dec18  REORTHO 


 ***********************************************
 ***** DIIS acceleration of SCF iterations *****
 ***********************************************

 C1-DIIS algorithm; max error vectors =    8
 -----------------------------------------------------------------------------

 *** DIIS iteration number    1
 RDSUPM called. NFMAT, ISYMDM(1:NFMAT)                     1
                     1

Calculating AOSUPINT
     (Precalculated two-electron integrals are transformed to P-supermatrix elements.
      Threshold for discarding integrals :  1.00D-12 )
  CPU  time used in FORMSUP    is   5.28 seconds
  WALL time used in FORMSUP    is  18.11 seconds

 ITDIIS, energy, error norm, change in energy, scr.thr., difden:
@ DIIS iter.   1    -360.268376330        3.98722D+00   -3.60D+02  -20    F

 (DIIS_RED) Control Parameters C2DIIS =         F NEVC =    1


 (DIIS_RED) B matrix:

               Column   1
       1      15.89795685
    ==== End of matrix output ====

 DIIS C vector; C2DIIS = F, LAMBDA = -1.59D+01
    1.000000
* Read MO coefficients from SIRIUS.RST with label "NEWORB  " and header info:  2Dec18  DIIS   1
      Virial theorem: -V/T =      2.003314
@      MULPOP N       0.14; H       0.17; H       0.18; H       0.16; H       0.17; O      -0.57; O      -0.58; O      -0.58; O      -0.63; H       0.32; 
@             H       0.31; H       0.30; H       0.32; H       0.29; H       0.32; H       0.33; H       0.34; 
   1  Level shift: doubly occupied orbital energies shifted by -2.00D-01

 DIIS Fock eigenvalues in symmetry 1
      -20.82561      -20.81979      -20.81225      -20.81176      -16.49408
       -1.74800       -1.64815       -1.62996       -1.62874       -1.62751
       -1.22519       -1.21498       -1.20632       -1.04905       -1.02374
       -1.00943       -1.00470       -0.88543       -0.88415       -0.87976
       -0.86763       -0.86214       -0.84528       -0.84345       -0.83877
       -0.01091       -0.00005        0.05439        0.06732        0.07560
        0.12130        0.12839        0.13897        0.16502        0.17578
        0.19126        0.21228        0.21516        0.24595        0.27786
        0.30612        0.41512        0.43582        0.45282        0.45668
        0.46609        0.47792        0.49125        0.51437        0.51942
        0.65630        0.68576        0.70629        0.84735        0.85347
        0.86458        0.89121        0.91093        0.92539        0.96427
        0.97070        0.98845        1.01713        1.02180        1.04289
        1.07118        1.10628        1.12627        1.20681        1.26827
        1.30527        1.32543        1.34831        1.35990        1.37270
        1.38777        1.42012        1.45780        1.48424        1.52433
        1.54008        1.56479        1.60803        1.61726        1.63572
        1.64902        1.66893        1.71901        1.74601        1.78112
        1.80051        1.83938        1.87434        1.94342        2.07658
        2.12094        2.12536        2.13698        2.16856        2.17802
        2.18909        2.19468        2.20784        2.23425        2.26243
        2.38807        2.47329        2.49086        2.50511        2.52636
        2.55474        2.56765        2.58472        2.60010        2.65843
        2.69297        2.70748        2.76154        2.80361        2.98871
        3.03782        3.05086        3.10364        3.27181        3.29616
        3.30063        3.35642        3.37874        3.40610        3.41057
        3.43731        3.45581        3.49887        3.51258        3.52802
        3.87609        3.89632        3.96581        3.97664        4.01190
        4.07301        4.08514        4.09474        4.71243        4.75314
        4.76663        5.20956        5.23461        5.24839        5.31382
        5.56238        5.66839        5.69377        5.72153        5.94763
        5.99656        6.04246        6.08063       36.34233       51.44748
       51.45230       51.46345       51.48139
 Time used in FCKEIG, thr_jaco:   4.70D-02  5.50D-02  1.70D-04
 CPU and wall times used in FCKEIG, THR_FCKEIG:   4.70D-02  5.50D-02  3.99D-02
 -----------------------------------------------------------------------------

 *** DIIS iteration number    2
 RDSUPM called. NFMAT, ISYMDM(1:NFMAT)                     1
                     1

 ITDIIS, energy, error norm, change in energy, scr.thr., difden:
@ DIIS iter.   2    -361.164114036        1.17114D+00   -8.96D-01  -20    F

 (DIIS_RED) Control Parameters C2DIIS =         F NEVC =    2


 (DIIS_RED) B matrix:

               Column   1     Column   2
       1      15.89795685
       2       0.70790660     1.37156309
    ==== End of matrix output ====

 DIIS C vector; C2DIIS = F, LAMBDA = -1.34D+00
    0.041861    0.958139
* Read MO coefficients from SIRIUS.RST with label "NEWORB  " and header info:  2Dec18  DIIS   2
      Virial theorem: -V/T =      2.002398
@      MULPOP N      -0.53; H       0.36; H       0.30; H       0.35; H       0.32; O      -0.61; O      -0.59; O      -0.58; O      -0.60; H       0.31; 
@             H       0.36; H       0.35; H       0.29; H       0.33; H       0.29; H       0.33; H       0.32; 
   2  Level shift: doubly occupied orbital energies shifted by -1.00D-01

 DIIS Fock eigenvalues in symmetry 1
      -20.78275      -20.77916      -20.75586      -20.74886      -15.63135
       -1.54291       -1.52747       -1.51839       -1.51781       -1.38879
       -0.92965       -0.90528       -0.89729       -0.88530       -0.87190
       -0.86976       -0.86584       -0.77982       -0.77238       -0.75871
       -0.74417       -0.72908       -0.72694       -0.71072       -0.70513
       -0.00005        0.05351        0.09398        0.11155        0.11855
        0.16650        0.17586        0.18756        0.21136        0.22145
        0.24301        0.26433        0.28247        0.35126        0.37878
        0.39325        0.45808        0.47345        0.49170        0.49638
        0.50640        0.51737        0.53387        0.55613        0.61956
        0.78645        0.82269        0.83139        0.89152        0.89423
        0.92307        0.94111        0.97317        0.99191        0.99649
        1.01104        1.04586        1.05830        1.06987        1.09108
        1.17789        1.19415        1.21226        1.26713        1.31420
        1.36167        1.37036        1.40872        1.41689        1.42571
        1.44021        1.48127        1.51760        1.55277        1.59377
        1.61549        1.64200        1.67505        1.68015        1.70434
        1.72008        1.75879        1.79031        1.80590        1.84556
        1.88720        1.96114        1.98084        2.05221        2.12347
        2.16848        2.17530        2.21638        2.22955        2.24549
        2.27359        2.28696        2.30617        2.34125        2.39403
        2.49611        2.54963        2.58715        2.59195        2.59822
        2.64806        2.65550        2.66019        2.69672        2.75174
        2.77844        2.78951        2.97809        3.02146        3.14999
        3.26882        3.27803        3.30789        3.32495        3.36544
        3.39127        3.41061        3.41895        3.43567        3.46172
        3.47028        3.48725        3.53302        3.53460        3.55922
        3.89185        3.92284        3.99169        4.00493        4.03541
        4.10448        4.11213        4.11302        5.11795        5.16038
        5.17630        5.20927        5.23973        5.26295        5.31671
        5.55977        5.67155        5.69019        5.72919        5.95315
        6.01864        6.05607        6.10455       37.08730       51.38563
       51.39493       51.42940       51.44676
 Time used in FCKEIG, thr_jaco:   3.20D-02  3.60D-02  4.98D-05
 CPU and wall times used in FCKEIG, THR_FCKEIG:   3.20D-02  3.60D-02  1.17D-02
 -----------------------------------------------------------------------------

 *** DIIS iteration number    3
 RDSUPM called. NFMAT, ISYMDM(1:NFMAT)                     1
                     1

 ITDIIS, energy, error norm, change in energy, scr.thr., difden:
@ DIIS iter.   3    -361.243139484        3.79865D-01   -7.90D-02  -20    F

 (DIIS_RED) Control Parameters C2DIIS =         F NEVC =    3


 (DIIS_RED) B matrix:

               Column   1     Column   2     Column   3
       1      15.89795685
       2       0.70790660     1.37156309
       3       0.86140130    -0.01579917     0.14429710
    ==== End of matrix output ====

 DIIS C vector; C2DIIS = F, LAMBDA = -9.18D-02
   -0.050127    0.103671    0.946455
* Read MO coefficients from SIRIUS.RST with label "NEWORB  " and header info:  2Dec18  DIIS   3
      Virial theorem: -V/T =      2.003435
@      MULPOP N      -0.31; H       0.32; H       0.24; H       0.31; H       0.27; O      -0.68; O      -0.65; O      -0.65; O      -0.66; H       0.33; 
@             H       0.40; H       0.39; H       0.31; H       0.36; H       0.31; H       0.36; H       0.34; 
   3  Level shift: doubly occupied orbital energies shifted by -5.00D-02

 DIIS Fock eigenvalues in symmetry 1
      -20.69248      -20.68381      -20.66806      -20.66643      -15.79304
       -1.47437       -1.45836       -1.45302       -1.45012       -1.38994
       -0.86743       -0.86402       -0.85523       -0.85040       -0.83069
       -0.81613       -0.81158       -0.70688       -0.70418       -0.69480
       -0.68015       -0.65565       -0.64844       -0.63595       -0.63265
       -0.00005        0.05944        0.10088        0.11703        0.12455
        0.17173        0.18061        0.18944        0.21594        0.22625
        0.24556        0.26592        0.28190        0.35026        0.37734
        0.39424        0.46866        0.48573        0.50342        0.50786
        0.51446        0.52816        0.54469        0.56513        0.61846
        0.78050        0.81286        0.82971        0.90492        0.90713
        0.93497        0.94402        0.98663        1.00329        1.00712
        1.02569        1.05339        1.07188        1.08081        1.10236
        1.17830        1.19673        1.21521        1.27037        1.32296
        1.36950        1.38049        1.42180        1.42984        1.43959
        1.45515        1.49241        1.52882        1.56473        1.60362
        1.62488        1.65068        1.68656        1.68816        1.71413
        1.73384        1.76328        1.79887        1.81607        1.85452
        1.89372        1.95977        1.98328        2.05404        2.13872
        2.18407        2.19260        2.22793        2.24728        2.26315
        2.28850        2.30003        2.30499        2.33588        2.38936
        2.50414        2.56106        2.59845        2.60028        2.60915
        2.66153        2.66358        2.66901        2.70378        2.76083
        2.78544        2.79475        2.94698        2.99248        3.14332
        3.25424        3.27419        3.31610        3.34134        3.36059
        3.38096        3.42214        3.43078        3.45717        3.47729
        3.49016        3.50966        3.55474        3.56206        3.58530
        3.91831        3.94819        4.01738        4.02841        4.06333
        4.12888        4.14010        4.14090        5.03846        5.08474
        5.09363        5.23837        5.26704        5.28945        5.34473
        5.59016        5.70050        5.72150        5.75855        5.98690
        6.04925        6.08822        6.13181       36.88203       51.43046
       51.43591       51.46726       51.47962
 Time used in FCKEIG, thr_jaco:   2.70D-02  3.10D-02  1.62D-05
 CPU and wall times used in FCKEIG, THR_FCKEIG:   2.70D-02  3.10D-02  3.80D-03
 -----------------------------------------------------------------------------

 *** DIIS iteration number    4
 RDSUPM called. NFMAT, ISYMDM(1:NFMAT)                     1
                     1

 ITDIIS, energy, error norm, change in energy, scr.thr., difden:
@ DIIS iter.   4    -361.253723694        8.98256D-02   -1.06D-02  -20    F

 (DIIS_RED) Control Parameters C2DIIS =         F NEVC =    4


 (DIIS_RED) B matrix:

               Column   1     Column   2     Column   3     Column   4
       1      15.89795685
       2       0.70790660     1.37156309
       3       0.86140130    -0.01579917     0.14429710
       4       0.06243156     0.07317593     0.00733840     0.00806863
    ==== End of matrix output ====

 DIIS C vector; C2DIIS = F, LAMBDA = -4.51D-03
    0.000141   -0.055063   -0.030807    1.085729
* Read MO coefficients from SIRIUS.RST with label "NEWORB  " and header info:  2Dec18  DIIS   4
      Virial theorem: -V/T =      2.003311
@      MULPOP N      -0.38; H       0.34; H       0.25; H       0.33; H       0.29; O      -0.70; O      -0.67; O      -0.66; O      -0.67; H       0.34; 
@             H       0.41; H       0.40; H       0.31; H       0.37; H       0.32; H       0.37; H       0.35; 
   4  Level shift: doubly occupied orbital energies shifted by -1.25D-02

 DIIS Fock eigenvalues in symmetry 1
      -20.66708      -20.66028      -20.64468      -20.64038      -15.72618
       -1.44114       -1.42538       -1.41961       -1.41721       -1.34172
       -0.82934       -0.81959       -0.81152       -0.80546       -0.79492
       -0.78073       -0.77745       -0.67089       -0.66864       -0.65850
       -0.64337       -0.61793       -0.61178       -0.59841       -0.59541
       -0.00005        0.05989        0.09990        0.11652        0.12417
        0.17157        0.18088        0.19118        0.21584        0.22614
        0.24758        0.26810        0.28632        0.35641        0.38269
        0.39909        0.46849        0.48515        0.50270        0.50643
        0.51485        0.52673        0.54387        0.56428        0.62378
        0.78579        0.81813        0.83390        0.90600        0.90793
        0.93681        0.94599        0.98670        1.00443        1.00622
        1.02510        1.05413        1.07169        1.07985        1.10083
        1.18111        1.19796        1.21715        1.27217        1.32506
        1.37131        1.38176        1.42029        1.42863        1.43806
        1.45287        1.49237        1.52836        1.56506        1.60414
        1.62519        1.65178        1.68615        1.68885        1.71455
        1.73284        1.76755        1.79918        1.81513        1.85477
        1.89683        1.96490        1.98791        2.05828        2.13655
        2.18125        2.19050        2.22672        2.24471        2.26033
        2.28671        2.30085        2.30632        2.34262        2.39494
        2.50692        2.56093        2.59894        2.60213        2.61026
        2.66177        2.66676        2.67367        2.70503        2.76072
        2.78540        2.79549        2.95658        3.00190        3.15070
        3.26101        3.28097        3.31763        3.33946        3.36162
        3.38907        3.41951        3.42894        3.45444        3.47605
        3.48760        3.50721        3.55222        3.55871        3.58190
        3.91446        3.94428        4.01420        4.02513        4.06027
        4.12600        4.13648        4.13739        5.05452        5.10013
        5.11008        5.23211        5.26130        5.28322        5.33953
        5.58496        5.69485        5.71531        5.75232        5.97969
        6.04194        6.08199        6.12577       36.91109       51.41713
       51.42384       51.45358       51.46841
 Time used in FCKEIG, thr_jaco:   2.50D-02  2.80D-02  3.82D-06
 CPU and wall times used in FCKEIG, THR_FCKEIG:   2.50D-02  2.80D-02  8.98D-04
 -----------------------------------------------------------------------------

 *** DIIS iteration number    5
 RDSUPM called. NFMAT, ISYMDM(1:NFMAT)                     1
                     1

 ITDIIS, energy, error norm, change in energy, scr.thr., difden:
@ DIIS iter.   5    -361.254694500        2.95687D-02   -9.71D-04  -20    F

 (DIIS_RED) Control Parameters C2DIIS =         F NEVC =    5


 (DIIS_RED) B matrix:

               Column   1     Column   2     Column   3     Column   4     Column   5
       1      15.89795685
       2       0.70790660     1.37156309
       3       0.86140130    -0.01579917     0.14429710
       4       0.06243156     0.07317593     0.00733840     0.00806863
       5       0.02281343     0.00741571     0.00557543     0.00084167     0.00087431
    ==== End of matrix output ====

 DIIS C vector; C2DIIS = F, LAMBDA = -5.95D-04
    0.001348   -0.012311   -0.047641    0.120491    0.938114
* Read MO coefficients from SIRIUS.RST with label "NEWORB  " and header info:  2Dec18  DIIS   5
      Virial theorem: -V/T =      2.002948
@      MULPOP N      -0.37; H       0.34; H       0.25; H       0.33; H       0.28; O      -0.71; O      -0.68; O      -0.67; O      -0.68; H       0.35; 
@             H       0.42; H       0.41; H       0.32; H       0.38; H       0.32; H       0.38; H       0.35; 

 DIIS Fock eigenvalues in symmetry 1
      -20.64770      -20.64027      -20.62394      -20.62151      -15.71027
       -1.42614       -1.41020       -1.40489       -1.40182       -1.32767
       -0.81524       -0.80572       -0.79738       -0.79139       -0.78103
       -0.76637       -0.76300       -0.65613       -0.65395       -0.64372
       -0.62894       -0.60217       -0.59579       -0.58285       -0.57938
       -0.00005        0.06042        0.10026        0.11685        0.12459
        0.17190        0.18127        0.19181        0.21621        0.22647
        0.24825        0.26873        0.28726        0.35753        0.38371
        0.40013        0.46927        0.48587        0.50341        0.50702
        0.51555        0.52724        0.54458        0.56491        0.62480
        0.78730        0.81939        0.83535        0.90773        0.91006
        0.93863        0.94787        0.98828        1.00593        1.00759
        1.02666        1.05544        1.07334        1.08126        1.10214
        1.18233        1.19936        1.21857        1.27348        1.32668
        1.37292        1.38327        1.42081        1.42929        1.43874
        1.45347        1.49320        1.52916        1.56588        1.60483
        1.62594        1.65246        1.68672        1.68955        1.71510
        1.73326        1.76862        1.79962        1.81540        1.85523
        1.89777        1.96594        1.98892        2.05935        2.13743
        2.18219        2.19139        2.22740        2.24563        2.26128
        2.28752        2.30188        2.30747        2.34382        2.39591
        2.50771        2.56154        2.59948        2.60280        2.61109
        2.66218        2.66754        2.67456        2.70566        2.76092
        2.78565        2.79577        2.95794        3.00326        3.15205
        3.26297        3.28309        3.32005        3.34225        3.36384
        3.39106        3.42232        3.43184        3.45705        3.47883
        3.48988        3.50975        3.55445        3.56146        3.58482
        3.91717        3.94720        4.01668        4.02736        4.06302
        4.12847        4.13964        4.14038        5.05663        5.10232
        5.11211        5.23652        5.26540        5.28810        5.34372
        5.58890        5.69873        5.71947        5.75666        5.98367
        6.04622        6.08564        6.12901       36.91443       51.42446
       51.43071       51.46166       51.47475
 Time used in FCKEIG, thr_jaco:   2.40D-02  2.60D-02  1.26D-06
 CPU and wall times used in FCKEIG, THR_FCKEIG:   2.40D-02  2.60D-02  2.96D-04
 -----------------------------------------------------------------------------

 *** DIIS iteration number    6
 RDSUPM called. NFMAT, ISYMDM(1:NFMAT)                     1
                     1

 ITDIIS, energy, error norm, change in energy, scr.thr., difden:
@ DIIS iter.   6    -361.254776304        1.05754D-02   -8.18D-05  -20    F

 (DIIS_RED) Control Parameters C2DIIS =         F NEVC =    6


 (DIIS_RED) B matrix:

               Column   1     Column   2     Column   3     Column   4     Column   5     Column   6
       1      15.89795685
       2       0.70790660     1.37156309
       3       0.86140130    -0.01579917     0.14429710
       4       0.06243156     0.07317593     0.00733840     0.00806863
       5       0.02281343     0.00741571     0.00557543     0.00084167     0.00087431
       6      -0.00512534    -0.00014351     0.00070564     0.00054644     0.00001367     0.00011184
    ==== End of matrix output ====

 DIIS C vector; C2DIIS = F, LAMBDA = -3.36D-05
    0.000757    0.006030   -0.006516   -0.131444    0.119784    1.011389
* Read MO coefficients from SIRIUS.RST with label "NEWORB  " and header info:  2Dec18  DIIS   6
      Virial theorem: -V/T =      2.003202
@      MULPOP N      -0.36; H       0.34; H       0.24; H       0.33; H       0.28; O      -0.71; O      -0.68; O      -0.67; O      -0.68; H       0.35; 
@             H       0.42; H       0.41; H       0.32; H       0.38; H       0.32; H       0.38; H       0.35; 

 DIIS Fock eigenvalues in symmetry 1
      -20.64963      -20.64242      -20.62638      -20.62338      -15.71211
       -1.42665       -1.41078       -1.40544       -1.40252       -1.32815
       -0.81585       -0.80629       -0.79789       -0.79185       -0.78167
       -0.76697       -0.76375       -0.65683       -0.65477       -0.64455
       -0.62967       -0.60239       -0.59607       -0.58307       -0.57983
       -0.00005        0.06032        0.10011        0.11671        0.12444
        0.17177        0.18115        0.19170        0.21606        0.22631
        0.24816        0.26861        0.28712        0.35736        0.38354
        0.40002        0.46903        0.48566        0.50316        0.50675
        0.51528        0.52697        0.54430        0.56460        0.62467
        0.78696        0.81902        0.83503        0.90745        0.90987
        0.93841        0.94763        0.98789        1.00558        1.00718
        1.02624        1.05506        1.07300        1.08082        1.10170
        1.18204        1.19904        1.21824        1.27315        1.32631
        1.37254        1.38291        1.42045        1.42897        1.43841
        1.45307        1.49288        1.52882        1.56563        1.60452
        1.62563        1.65220        1.68642        1.68925        1.71483
        1.73302        1.76846        1.79936        1.81508        1.85494
        1.89757        1.96575        1.98874        2.05912        2.13696
        2.18162        2.19095        2.22690        2.24520        2.26084
        2.28710        2.30136        2.30719        2.34362        2.39565
        2.50750        2.56124        2.59917        2.60254        2.61089
        2.66195        2.66738        2.67443        2.70537        2.76057
        2.78530        2.79540        2.95746        3.00278        3.15185
        3.26233        3.28249        3.31940        3.34155        3.36320
        3.39045        3.42155        3.43101        3.45636        3.47800
        3.48917        3.50913        3.55381        3.56075        3.58397
        3.91640        3.94629        4.01597        4.02663        4.06230
        4.12773        4.13873        4.13958        5.05571        5.10147
        5.11122        5.23543        5.26436        5.28680        5.34272
        5.58787        5.69760        5.71830        5.75537        5.98248
        6.04485        6.08457        6.12794       36.91262       51.42237
       51.42878       51.45927       51.47288
 Time used in FCKEIG, thr_jaco:   2.40D-02  2.70D-02  4.50D-07
 CPU and wall times used in FCKEIG, THR_FCKEIG:   2.40D-02  2.70D-02  1.06D-04
 -----------------------------------------------------------------------------

 *** DIIS iteration number    7
 RDSUPM called. NFMAT, ISYMDM(1:NFMAT)                     1
                     1

 ITDIIS, energy, error norm, change in energy, scr.thr., difden:
@ DIIS iter.   7    -361.254787903        2.21328D-03   -1.16D-05  -20    F

 (DIIS_RED) Control Parameters C2DIIS =         F NEVC =    7


 (DIIS_RED) B matrix:

               Column   1     Column   2     Column   3     Column   4     Column   5     Column   6
       1      15.89795685
       2       0.70790660     1.37156309
       3       0.86140130    -0.01579917     0.14429710
       4       0.06243156     0.07317593     0.00733840     0.00806863
       5       0.02281343     0.00741571     0.00557543     0.00084167     0.00087431
       6      -0.00512534    -0.00014351     0.00070564     0.00054644     0.00001367     0.00011184
       7       0.00034174     0.00020523    -0.00000752     0.00000386     0.00004574     0.00000021

               Column   7
       7       0.00000490
    ==== End of matrix output ====

 DIIS C vector; C2DIIS = F, LAMBDA = -1.12D-06
   -0.000247   -0.000696    0.004849    0.023040   -0.100601   -0.135398    1.209053
* Read MO coefficients from SIRIUS.RST with label "NEWORB  " and header info:  2Dec18  DIIS   7
      Virial theorem: -V/T =      2.003139
@      MULPOP N      -0.36; H       0.34; H       0.24; H       0.33; H       0.28; O      -0.72; O      -0.68; O      -0.67; O      -0.69; H       0.35; 
@             H       0.42; H       0.41; H       0.32; H       0.38; H       0.32; H       0.38; H       0.35; 

 DIIS Fock eigenvalues in symmetry 1
      -20.64937      -20.64209      -20.62605      -20.62316      -15.71172
       -1.42652       -1.41061       -1.40531       -1.40236       -1.32796
       -0.81578       -0.80617       -0.79776       -0.79170       -0.78159
       -0.76685       -0.76365       -0.65678       -0.65472       -0.64449
       -0.62962       -0.60221       -0.59586       -0.58290       -0.57964
       -0.00005        0.06037        0.10014        0.11674        0.12448
        0.17180        0.18119        0.19175        0.21610        0.22634
        0.24822        0.26867        0.28720        0.35748        0.38365
        0.40012        0.46909        0.48570        0.50320        0.50679
        0.51534        0.52701        0.54434        0.56464        0.62479
        0.78710        0.81915        0.83514        0.90755        0.91001
        0.93853        0.94777        0.98800        1.00568        1.00726
        1.02631        1.05515        1.07311        1.08089        1.10176
        1.18214        1.19915        1.21836        1.27327        1.32644
        1.37267        1.38302        1.42047        1.42900        1.43844
        1.45308        1.49294        1.52887        1.56568        1.60457
        1.62568        1.65225        1.68645        1.68931        1.71488
        1.73304        1.76855        1.79939        1.81510        1.85498
        1.89766        1.96586        1.98884        2.05922        2.13701
        2.18166        2.19099        2.22695        2.24524        2.26089
        2.28714        2.30140        2.30730        2.34374        2.39575
        2.50756        2.56128        2.59921        2.60259        2.61095
        2.66196        2.66745        2.67452        2.70542        2.76059
        2.78532        2.79544        2.95763        3.00295        3.15198
        3.26250        3.28265        3.31955        3.34171        3.36334
        3.39063        3.42171        3.43118        3.45649        3.47816
        3.48929        3.50925        3.55392        3.56091        3.58412
        3.91655        3.94644        4.01609        4.02674        4.06244
        4.12786        4.13890        4.13975        5.05597        5.10172
        5.11148        5.23565        5.26455        5.28703        5.34290
        5.58803        5.69778        5.71850        5.75557        5.98268
        6.04505        6.08473        6.12808       36.91300       51.42269
       51.42904       51.45959       51.47310
 Time used in FCKEIG, thr_jaco:   2.30D-02  3.00D-02  9.42D-08
 CPU and wall times used in FCKEIG, THR_FCKEIG:   2.30D-02  3.00D-02  2.21D-05
 -----------------------------------------------------------------------------

 *** DIIS iteration number    8
 RDSUPM called. NFMAT, ISYMDM(1:NFMAT)                     1
                     1

 ITDIIS, energy, error norm, change in energy, scr.thr., difden:
@ DIIS iter.   8    -361.254788422        3.49775D-04   -5.19D-07  -20    F

 (DIIS_RED) Control Parameters C2DIIS =         F NEVC =    8


 (DIIS_RED) B matrix:

               Column   1     Column   2     Column   3     Column   4     Column   5     Column   6
       1      15.89795685
       2       0.70790660     1.37156309
       3       0.86140130    -0.01579917     0.14429710
       4       0.06243156     0.07317593     0.00733840     0.00806863
       5       0.02281343     0.00741571     0.00557543     0.00084167     0.00087431
       6      -0.00512534    -0.00014351     0.00070564     0.00054644     0.00001367     0.00011184
       7       0.00034174     0.00020523    -0.00000752     0.00000386     0.00004574     0.00000021
       8       0.00008190    -0.00004852     0.00001309     0.00000105     0.00000047     0.00000147

               Column   7     Column   8
       7       0.00000490
       8       0.00000034     0.00000012
    ==== End of matrix output ====

 DIIS C vector; C2DIIS = F, LAMBDA = -5.25D-08
    0.000027    0.000035   -0.000976   -0.001609    0.020363   -0.002699   -0.270770    1.255629
* Read MO coefficients from SIRIUS.RST with label "NEWORB  " and header info:  2Dec18  DIIS   8
      Virial theorem: -V/T =      2.003156
@      MULPOP N      -0.36; H       0.34; H       0.24; H       0.33; H       0.28; O      -0.72; O      -0.68; O      -0.67; O      -0.69; H       0.35; 
@             H       0.42; H       0.41; H       0.32; H       0.38; H       0.32; H       0.38; H       0.35; 

 DIIS Fock eigenvalues in symmetry 1
      -20.64937      -20.64212      -20.62606      -20.62313      -15.71176
       -1.42651       -1.41061       -1.40530       -1.40236       -1.32797
       -0.81578       -0.80617       -0.79777       -0.79171       -0.78158
       -0.76685       -0.76365       -0.65680       -0.65474       -0.64451
       -0.62963       -0.60220       -0.59587       -0.58288       -0.57964
       -0.00005        0.06037        0.10014        0.11674        0.12448
        0.17179        0.18118        0.19175        0.21610        0.22634
        0.24821        0.26867        0.28719        0.35747        0.38364
        0.40011        0.46909        0.48570        0.50320        0.50679
        0.51534        0.52700        0.54434        0.56464        0.62478
        0.78709        0.81914        0.83513        0.90754        0.91001
        0.93852        0.94776        0.98800        1.00567        1.00726
        1.02630        1.05515        1.07311        1.08088        1.10176
        1.18214        1.19914        1.21835        1.27326        1.32643
        1.37266        1.38301        1.42047        1.42900        1.43844
        1.45308        1.49293        1.52886        1.56567        1.60457
        1.62568        1.65224        1.68645        1.68930        1.71487
        1.73304        1.76855        1.79939        1.81510        1.85498
        1.89765        1.96585        1.98883        2.05921        2.13700
        2.18166        2.19099        2.22695        2.24523        2.26088
        2.28714        2.30140        2.30729        2.34373        2.39574
        2.50755        2.56128        2.59921        2.60258        2.61094
        2.66196        2.66744        2.67451        2.70542        2.76058
        2.78532        2.79544        2.95761        3.00293        3.15197
        3.26249        3.28264        3.31954        3.34170        3.36334
        3.39061        3.42170        3.43116        3.45649        3.47815
        3.48929        3.50925        3.55393        3.56090        3.58412
        3.91654        3.94643        4.01609        4.02675        4.06243
        4.12787        4.13889        4.13974        5.05594        5.10169
[...]
 | 1 1 1 1 |  13   1  10   1 |     1255        1 |       786886 |    0.073427  |
 | 1 1 1 1 |  26   1  10   1 |     1268        1 |       803279 |    0.097719  |
 | 1 1 1 1 |  28   1  10   1 |     1270        1 |       805816 |    0.100782  |
 | 1 1 1 1 |  31   1  10   1 |     1273        1 |       809629 |    0.067120  |
 | 1 1 1 1 |  32   1  10   1 |     1274        1 |       810902 |    0.080899  |
 | 1 1 1 1 |  27   1  11   1 |     1407        1 |       989122 |   -0.079456  |
 | 1 1 1 1 |  26   1  16   1 |     2096        1 |      2195561 |    0.074447  |
 | 1 1 1 1 |  27   1  17   1 |     2235        1 |      2496496 |    0.065213  |
 +=============================================================================+


          Norm of Printed Amplitude Vector :             0.8422

          Printed all single excitations greater than 0.382333

          Printed all double excitations greater than 0.064443



+======================================================================+
| contributions of excitation levels to right eigenvectors as computed |
| from the (RE|RE) self overlap                                        |
+----------------------------------------------------------------------+
| sym | multi | state |    E / eV  | % singles | % doubles | % triples |
+======================================================================+
|    1|   1   |   1   |  411.49956 |  88.2812  |  11.7188  |   0.0000  |
+======================================================================+





+======================================================================+
| contributions of excitation levels to excited states as computed     |
| from the (LE|RE) overlap                                             |
+----------------------------------------------------------------------+
| sym | multi | state |    E / eV  | % singles | % doubles | % triples |
+======================================================================+
|    1|   1   |   1   |  411.49956 |  79.2779  |  20.7221  |   0.0000  |
+======================================================================+



 --------------------------
 Symmetry class Nr.:     1
 Multiplicity      :     3
 --------------------------

 Length of Excitation vectors in this class is:   8404200
 No Excitation Energies calculated in this symmetry class
     

   *******************************************************************
   *                                                                 *
   *--------   OUTPUT FROM PROPERTY AND SYMMETRY ANALYSIS   ---------*
   *                                                                 *
   *******************************************************************



                         +-------------------------------+
                         ! REQUESTED PROPERTY OPERATORS: !
                         +-------------------------------+

             Index   Oper. Label  Symmetry  Transp.  PDBS  Atom
             --------------------------------------------------
                1     HAM0            1        1      T      0
                2     XDIPLEN         1        1      F      0
                3     YDIPLEN         1        1      F      0
                4     ZDIPLEN         1        1      F      0
             --------------------------------------------------




                         +-------------------------------+
                         ! REQUESTED EXPECTATION VALUES: !
                         +-------------------------------+

                       Index   Oper. Label  Symmetry
                       -----------------------------
                       -----------------------------




                       +------------------------------------+
                       ! REQUESTED EFFECTIVE FOCK MATRICES: !
                       +------------------------------------+

                       Index   Oper. Label  Symmetry
                       -----------------------------
                       -----------------------------




                        +----------------------------------+
                        ! REQUESTED FIRST ORDER M-VECTORS: !
                        +----------------------------------+

               Index   State Symmetry  Frequency
               --------------------------------------------------
                  1             1    1     1.512233D+01
               --------------------------------------------------


      

    *******************************************************************
    *          SOLVING COUPLED CLUSTER RESPONSE EQUATIONS             *
    *******************************************************************



 
 +======================================================================+
 !                     RHS & ETA VECTORS TO COMPUTE:                    !
 +======================================================================+
 | TYPE | # VEC. |  NEEDED FOR:                                         |
 +----------------------------------------------------------------------+
 +======================================================================+



 +======================================================================+
 !                       LINEAR EQUATIONS TO SOLVE:                     !
 +======================================================================+
 | TYPE | # VEC. |  EQUATION:                                           |
 +----------------------------------------------------------------------+
 |  M1  |    1   |  first-order ground - excited state multipliers      |
 +======================================================================+



 +======================================================================+
 !                F MATRIX TRANSFORMATIONS TO COMPUTE:                  !
 +======================================================================+
 | TYPE | # VEC. |  TRANSFORMED:                                        |
 +----------------------------------------------------------------------+
 |  FR  |    1   |  right eigenvectors (RE)                             |
 +======================================================================+





 Testing R1 list: 

 List nr.  Label     Symmetry      Frequency      T1-norm        T2-norm


 Testing L1 list: 

 List nr.  Label     Symmetry      Frequency      T1-norm        T2-norm
  Solvent 1-order response equations converged in                     0 
  solvent iterations
 SONIAPRI                     0
 CCEQ_STR: CVSEPARATION =  T
 CCEQ_STR: IONIZATION =  T
 CCEQ_STR: REMOVE_CORE =  F
 could not find required file CCM1_1___1
 IOPTSV is    33 ... program continues nevertheless.
 Vector nr.  1 of type M1  and symmetry  1 was not found on file.
     M1  start vector nr.  1 of symmetry  1 generated from gradient
 CCEQ_STR: freeze VALENCE OR VIRT
 CCEQ_SOL: CVSEPARA=     T
 CCEQ_SOL: LIONISAT=     T
 CCEQ_SOL: REMOVE_CORE =  F



 ----- COUPLED CLUSTER RESPONSE SOLVER -----

    Iter  #Vectors  time (min)   residual
    --------------------------------------
 CCRED CVS/IONIS sigma_                     1 
 project out valence occupied or virtual
      1       1         1.84     0.17E+01
 CCRED CVS/IONIS sigma_                     2 
 project out valence occupied or virtual
      2       1         1.84     0.31E+00
 CCRED CVS/IONIS sigma_                     3 
 project out valence occupied or virtual
      3       1         1.78     0.41E-01
 CCRED CVS/IONIS sigma_                     4 
 project out valence occupied or virtual
                    -1  vectors with norm le:  1.000000000000000E-035  REMOVED

 CCORT,**WARNING**  number vectors added is zero after check for vector norm , NBADD :    0

 CCORT, number vectors added is zero , NBADD :    0

 CCORT, number vectors added is zero , NBADD :    0

 CCORT, number vectors added is zero , NBADD :    0

 CCORT, number vectors added is zero , NBADD :    0

 *** MICROITERATIONS STOPPED DUE TO LINEAR DEPENDENCE BETWEEN ALL NEW TRIAL VECTORS
                     0  trial vectors converged
  LINEAR DEPENDENCE BETWEEN                     1  NON CONVERGED TRIAL VECTORS
      4       1         1.68     0.41E-02

 ***  CCEQ_SOL -MICROITERATIONS STOPPED  
     LINEAR DEPENDENCE BETWEEN ALL NEW TRIAL VECTORS
    --------------------------------------
    converged in  4 iterations
    threshold:    0.10E-08


         Routine          Time (min)
         ---------------------------
         CC_TRDRV            7.14
         CCRED               0.03
         CCNEX               0.05
         ---------------------------
         Total time          7.22


  Total CPU  time used in CCEQ_SOLV:  7 minutes 13 seconds
  Total wall time used in CCEQ_SOLV:  7 minutes 24 seconds


 xxxxxxxxxxxxxxxxxxxxxxxxxxxxxxxxxxxxx

 
 Solution of CC response equations completed.
 

 *******************************************************************
 *                                                                 *
 *--------  OUTPUT FROM COUPLED CLUSTER LINEAR RESPONSE   ---------*
 *                                                                 *
 *--------      CALCULATION OF SECOND ORDER RESIDUES      ---------*
 *                                                                 *
 *******************************************************************



                  +---------------------------------------------+
                  ! CC_SOPR: Calculation of CCSD       Residues !
                  +---------------------------------------------+

 Doing the Mf*CsiA
 Doing the Mf*CsiA
 Doing the Mf*CsiA


 CCSD  Right transition moments in atomic units:
 -----------------------------------------------

  1      15.122331  <XDIPLEN |f> =       0.00000002
  1      15.122331  <YDIPLEN |f> =      -0.00000003
  1      15.122331  <ZDIPLEN |f> =       0.00000000


 CCSD  Left  transition moments in atomic units:
 -----------------------------------------------

  1      15.122331  <f|XDIPLEN > =       0.00000001
  1      15.122331  <f|YDIPLEN > =      -0.00000001
  1      15.122331  <f|ZDIPLEN > =       0.00000000


 CCSD  linear response residue property in atomic units:
 -------------------------------------------------------

 RES{<<XDIPLEN ,XDIPLEN >>(15.122331)} =     0.00000000 (   0.00000002)
 RES{<<XDIPLEN ,YDIPLEN >>(15.122331)} =    -0.00000000 (  -0.00000002)
 RES{<<XDIPLEN ,ZDIPLEN >>(15.122331)} =     0.00000000 (   0.00000000)
 RES{<<YDIPLEN ,XDIPLEN >>(15.122331)} =    -0.00000000 (  -0.00000002)
 RES{<<YDIPLEN ,YDIPLEN >>(15.122331)} =     0.00000000 (   0.00000002)
 RES{<<YDIPLEN ,ZDIPLEN >>(15.122331)} =    -0.00000000 (  -0.00000000)
 RES{<<ZDIPLEN ,XDIPLEN >>(15.122331)} =     0.00000000 (   0.00000000)
 RES{<<ZDIPLEN ,YDIPLEN >>(15.122331)} =    -0.00000000 (  -0.00000000)
 RES{<<ZDIPLEN ,ZDIPLEN >>(15.122331)} =     0.00000000 (   0.00000000)


 CCSD  Transition strength matrix for state nr.  1 of symmetry 1
 CCSD  excitation energy:15.12233109

 Gauge: length

               Column   1     Column   2     Column   3
       1     2.586552D-16  -2.961486D-16   1.158218D-17
       2    -2.961486D-16   3.390726D-16  -1.326125D-17
       3     1.158218D-17  -1.326125D-17   5.186248D-19
    ==== End of matrix output ====

 Principal values of diagonalized transition strength matrix:

             a.u.               
 1       0.00000000
 2       0.00000000
 3       0.00000000

 Principal axis of diagonalized transition strength matrix:


               Column   1     Column   2     Column   3
       1       1.00000000     0.00000000     0.00000000
       2       0.00000000     1.00000000     0.00000000
       3       0.00000000     0.00000000     1.00000000
    ==== End of matrix output ====


 CCSD   oscillator strength matrix for state nr.  1 of symmetry 1
 CCSD  excitation energy:15.12233109


               Column   1     Column   2     Column   3
       1     2.607646D-15  -2.985638D-15   1.167664D-16
       2    -2.985638D-15   3.418378D-15  -1.336940D-16
       3     1.167664D-16  -1.336940D-16   5.228544D-18
    ==== End of matrix output ====

 Principal values of diagonalized oscillator strength matrix:

             a.u.               
 1       0.00000000
 2       0.00000000
 3       0.00000000

 Principal axis of diagonalized oscillator strength matrix:


               Column   1     Column   2     Column   3
       1       1.00000000     0.00000000     0.00000000
       2       0.00000000     1.00000000     0.00000000
       3       0.00000000     0.00000000     1.00000000
    ==== End of matrix output ====

  Total time for      9 linear response residues:       3.19 seconds.
  

 *******************************************************************************
 *******************************************************************************
 *                                                                             *
 *                                                                             *
 *                   SUMMARY OF COUPLED CLUSTER CALCULATION                    *
 *                                                                             *
 *                                                                             *
 *******************************************************************************
 *******************************************************************************

                                                                                
                                                                                
            Total SCF   energy:                  -361.2547884410                
            Total MP2   energy:                  -362.3576824945                
            Total CCSD  energy:                  -362.3988497172                
                                                                                
                                                                                
            Total SCF   energy:                  -361.2547884410                
            Total RSTAR energy:                  -362.3988497172                
            Total CCSD  energy:                  -362.3989766838                
                                                                                
                                                                                
            Total SCF   energy:                  -361.2547884410                
            Total RSTAR energy:                  -362.3989766838                
            Total CCSD  energy:                  -362.3989766016                
                                                                                
                                                                                
            Total SCF   energy:                  -361.2547884410                
            Total RSTAR energy:                  -362.3989766016                
            Total CCSD  energy:                  -362.3989766551                
                                                                                
                                                                                
            Total SCF   energy:                  -361.2547884410                
            Total RSTAR energy:                  -362.3989766551                
            Total CCSD  energy:                  -362.3989766555                
                                                                                
                                                                                
            Total SCF   energy:                  -361.2547884410                
            Total RSTAR energy:                  -362.3989766555                
            Total CCSD  energy:                  -362.3989766554                
            CCSD Total  energy:                  -362.8691404335                
            CCSD E(QM/MM)     :                    -0.4661391817                
                                                                                
                                                                                
                                                                                
 +=============================================================================+
 |  sym. | Exci.  |        CCSD       Excitation energies            | ||T1||  |
 |(spin, |        +------------------------------------------------------------+
 | spat) |        |     Hartree    |       eV.      |     cm-1       |    %    |
 +=============================================================================+
 | ^1A   |    1   |    15.1223311  |     411.49956  |   3318968.011  |  88.28  |
 +=============================================================================+
                                                                                
                                                                                
     Total energies in Hartree:                                                 
             1 ^1A       -347.2806701600                                        
                                                                                
                                                                                
 +=============================================================================+
 |  sym. | Exci.  |        CCSD       Length   Gauge Oscillator Strength       |
 |(spin, |        +------------------------------------------------------------+
 | spat) |        | Dipole Strength(a.u.) | Oscillator strength  | Direction   |
 +=============================================================================+
 | ^1A   |    1   |        0.0000000      |      0.0000000       |    -        |
 +=============================================================================+

  1 a.u. =        27.21138 eV.  
  1 a.u. =    219474.62934 cm-1.
  

 *******************************************************************************
 *******************************************************************************
 *                                                                             *
 *                                                                             *
 *                      END OF COUPLED CLUSTER CALCULATION                     *
 *                                                                             *
 *                                                                             *
 *******************************************************************************
 *******************************************************************************


 CPU and wall time for CC :    7857.092   11144.944

 
     Date and time (Linux)  : Sun Dec  2 20:12:53 2018
     Host name              : n-62-23-21                              


                      .-------------------------------------.
                      | End of Coupled Cluster Section (CC) |
                      `-------------------------------------'

  Total CPU  time used in DALTON:   2 hours 13 minutes 17 seconds
  Total wall time used in DALTON:   3 hours  9 minutes 12 seconds

 
     Date and time (Linux)  : Sun Dec  2 20:12:53 2018
     Host name              : n-62-23-21                              
  

 +---------------------------------------------------------+ 
 | List of selected calculated molecular properties (a.u.) | 
 +---------------------------------------------------------+ 

  Properties are read from unit number                      4

 CCSD       properties :
 #  1 1 CCSD/MM  Ground state Energy =    -362.8691404335
 #  2 1 E_QM/MM  Ground state Energy =      -0.4661391817
 #  3 1 Sy: 1 Sp: 1 Exc:  1 E_tot:   -347.2806701600 w:     15.1223310919 E_grs:   -362.4030012519
 #  4 1 Exctot   Excited state Energy =    -347.2806701600
 #  5 1 |<O|XDIPLEN |i(15.122331)>| =     0.00000002
 #  7 1 |<O|YDIPLEN |i(15.122331)>| =     0.00000002
 #  9 1 |<O|ZDIPLEN |i(15.122331)>| =     0.00000000

 THE_END   
