

     ************************************************************************
     *************** Dalton - An Electronic Structure Program ***************
     ************************************************************************

    This is output from DALTON release Dalton2017.alpha (2016)
         ( Web site: http://daltonprogram.org )

   ----------------------------------------------------------------------------

    NOTE:
     
    Dalton is an experimental code for the evaluation of molecular
    properties using (MC)SCF, DFT, CI, and CC wave functions.
    The authors accept no responsibility for the performance of
    the code or for the correctness of the results.
     
    The code (in whole or part) is provided under a licence and
    is not to be reproduced for further distribution without
    the written permission of the authors or their representatives.
     
    See the home page "http://daltonprogram.org" for further information.
     
    If results obtained with this code are published,
    the appropriate citations would be both of:
     
       K. Aidas, C. Angeli, K. L. Bak, V. Bakken, R. Bast,
       L. Boman, O. Christiansen, R. Cimiraglia, S. Coriani,
       P. Dahle, E. K. Dalskov, U. Ekstroem,
       T. Enevoldsen, J. J. Eriksen, P. Ettenhuber, B. Fernandez,
       L. Ferrighi, H. Fliegl, L. Frediani, K. Hald, A. Halkier,
       C. Haettig, H. Heiberg, T. Helgaker, A. C. Hennum,
       H. Hettema, E. Hjertenaes, S. Hoest, I.-M. Hoeyvik,
       M. F. Iozzi, B. Jansik, H. J. Aa. Jensen, D. Jonsson,
       P. Joergensen, J. Kauczor, S. Kirpekar,
       T. Kjaergaard, W. Klopper, S. Knecht, R. Kobayashi, H. Koch,
       J. Kongsted, A. Krapp, K. Kristensen, A. Ligabue,
       O. B. Lutnaes, J. I. Melo, K. V. Mikkelsen, R. H. Myhre,
       C. Neiss, C. B. Nielsen, P. Norman, J. Olsen,
       J. M. H. Olsen, A. Osted, M. J. Packer, F. Pawlowski,
       T. B. Pedersen, P. F. Provasi, S. Reine, Z. Rinkevicius,
       T. A. Ruden, K. Ruud, V. Rybkin, P. Salek, C. C. M. Samson,
       A. Sanchez de Meras, T. Saue, S. P. A. Sauer,
       B. Schimmelpfennig, K. Sneskov, A. H. Steindal,
       K. O. Sylvester-Hvid, P. R. Taylor, A. M. Teale,
       E. I. Tellgren, D. P. Tew, A. J. Thorvaldsen, L. Thoegersen,
       O. Vahtras, M. A. Watson, D. J. D. Wilson, M. Ziolkowski
       and H. Agren,
       "The Dalton quantum chemistry program system",
       WIREs Comput. Mol. Sci. 2014, 4:269–284 (doi: 10.1002/wcms.1172)
     
    and
     
       Dalton, a Molecular Electronic Structure Program,
       Release Dalton2017.alpha (2016), see http://daltonprogram.org
   ----------------------------------------------------------------------------

    Authors in alphabetical order (major contribution(s) in parenthesis):

  Kestutis Aidas,           Vilnius University,           Lithuania   (QM/MM)
  Celestino Angeli,         University of Ferrara,        Italy       (NEVPT2)
  Keld L. Bak,              UNI-C,                        Denmark     (AOSOPPA, non-adiabatic coupling, magnetic properties)
  Vebjoern Bakken,          University of Oslo,           Norway      (DALTON; geometry optimizer, symmetry detection)
  Radovan Bast,             UiT The Arctic U. of Norway,  Norway      (DALTON installation and execution frameworks)
  Pablo Baudin,             University of Valencia,       Spain       (Cholesky excitation energies)
  Linus Boman,              NTNU,                         Norway      (Cholesky decomposition and subsystems)
  Ove Christiansen,         Aarhus University,            Denmark     (CC module)
  Renzo Cimiraglia,         University of Ferrara,        Italy       (NEVPT2)
  Sonia Coriani,            University of Trieste,        Italy       (CC module, MCD in RESPONS)
  Janusz Cukras,            University of Trieste,        Italy       (MChD in RESPONS)
  Paal Dahle,               University of Oslo,           Norway      (Parallelization)
  Erik K. Dalskov,          UNI-C,                        Denmark     (SOPPA)
  Thomas Enevoldsen,        Univ. of Southern Denmark,    Denmark     (SOPPA)
  Janus J. Eriksen,         Aarhus University,            Denmark     (Polarizable embedding model, TDA)
  Rasmus Faber,             University of Copenhagen,     Denmark     (Vib.avg. NMR with SOPPA, parallel AO-SOPPA)
  Berta Fernandez,          U. of Santiago de Compostela, Spain       (doublet spin, ESR in RESPONS)
  Lara Ferrighi,            Aarhus University,            Denmark     (PCM Cubic response)
  Heike Fliegl,             University of Oslo,           Norway      (CCSD(R12))
  Luca Frediani,            UiT The Arctic U. of Norway,  Norway      (PCM)
  Bin Gao,                  UiT The Arctic U. of Norway,  Norway      (Gen1Int library)
  Christof Haettig,         Ruhr-University Bochum,       Germany     (CC module)
  Kasper Hald,              Aarhus University,            Denmark     (CC module)
  Asger Halkier,            Aarhus University,            Denmark     (CC module)
  Frederik Beyer Hansen,    University of Copenhagen,     Denmark     (Parallel AO-SOPPA)
  Erik D. Hedegaard,        Univ. of Southern Denmark,    Denmark     (Polarizable embedding model, QM/MM)
  Hanne Heiberg,            University of Oslo,           Norway      (geometry analysis, selected one-electron integrals)
  Trygve Helgaker,          University of Oslo,           Norway      (DALTON; ABACUS, ERI, DFT modules, London, and much more)
  Alf Christian Hennum,     University of Oslo,           Norway      (Parity violation)
  Hinne Hettema,            University of Auckland,       New Zealand (quadratic response in RESPONS; SIRIUS supersymmetry)
  Eirik Hjertenaes,         NTNU,                         Norway      (Cholesky decomposition)
  Pi A. B. Haase,           University of Copenhagen,     Denmark     (Triplet AO-SOPPA)
  Maria Francesca Iozzi,    University of Oslo,           Norway      (RPA)
  Brano Jansik              Technical Univ. of Ostrava    Czech Rep.  (DFT cubic response)
  Hans Joergen Aa. Jensen,  Univ. of Southern Denmark,    Denmark     (DALTON; SIRIUS, RESPONS, ABACUS modules, London, and much more)
  Dan Jonsson,              UiT The Arctic U. of Norway,  Norway      (cubic response in RESPONS module)
  Poul Joergensen,          Aarhus University,            Denmark     (RESPONS, ABACUS, and CC modules)
  Maciej Kaminski,          University of Warsaw,         Poland      (CPPh in RESPONS)
  Joanna Kauczor,           Linkoeping University,        Sweden      (Complex polarization propagator (CPP) module)
  Sheela Kirpekar,          Univ. of Southern Denmark,    Denmark     (Mass-velocity & Darwin integrals)
  Wim Klopper,              KIT Karlsruhe,                Germany     (R12 code in CC, SIRIUS, and ABACUS modules)
  Stefan Knecht,            ETH Zurich,                   Switzerland (Parallel CI and MCSCF)
  Rika Kobayashi,           Australian National Univ.,    Australia   (DIIS in CC, London in MCSCF)
  Henrik Koch,              NTNU,                         Norway      (CC module, Cholesky decomposition)
  Jacob Kongsted,           Univ. of Southern Denmark,    Denmark     (Polarizable embedding model, QM/MM)
  Andrea Ligabue,           University of Modena,         Italy       (CTOCD, AOSOPPA)
  Nanna H. List             Univ. of Southern Denmark,    Denmark     (Polarizable embedding model)
  Ola B. Lutnaes,           University of Oslo,           Norway      (DFT Hessian)
  Juan I. Melo,             University of Buenos Aires,   Argentina   (LRESC, Relativistic Effects on NMR Shieldings)
  Kurt V. Mikkelsen,        University of Copenhagen,     Denmark     (MC-SCRF and QM/MM)
  Rolf H. Myhre,            NTNU,                         Norway      (Cholesky, subsystems and ECC2)
  Christian Neiss,          Univ. Erlangen-Nuernberg,     Germany     (CCSD(R12))
  Christian B. Nielsen,     University of Copenhagen,     Denmark     (QM/MM)
  Patrick Norman,           Linkoeping University,        Sweden      (Cubic response and complex frequency response in RESPONS)
  Jeppe Olsen,              Aarhus University,            Denmark     (SIRIUS CI/density modules)
  Jogvan Magnus H. Olsen,   Univ. of Southern Denmark,    Denmark     (Polarizable embedding model, QM/MM)
  Anders Osted,             Copenhagen University,        Denmark     (QM/MM)
  Martin J. Packer,         University of Sheffield,      UK          (SOPPA)
  Filip Pawlowski,          Kazimierz Wielki University,  Poland      (CC3)
  Morten N. Pedersen,       Univ. of Southern Denmark,    Denmark     (Polarizable embedding model)
  Thomas B. Pedersen,       University of Oslo,           Norway      (Cholesky decomposition)
  Patricio F. Provasi,      University of Northeastern,   Argentina   (Analysis of coupling constants in localized orbitals)
  Zilvinas Rinkevicius,     KTH Stockholm,                Sweden      (open-shell DFT, ESR)
  Elias Rudberg,            KTH Stockholm,                Sweden      (DFT grid and basis info)
  Torgeir A. Ruden,         University of Oslo,           Norway      (Numerical derivatives in ABACUS)
  Kenneth Ruud,             UiT The Arctic U. of Norway,  Norway      (DALTON; ABACUS magnetic properties and much more)
  Pawel Salek,              KTH Stockholm,                Sweden      (DALTON; DFT code)
  Claire C. M. Samson       University of Karlsruhe       Germany     (Boys localization, r12 integrals in ERI)
  Alfredo Sanchez de Meras, University of Valencia,       Spain       (CC module, Cholesky decomposition)
  Trond Saue,               Paul Sabatier University,     France      (direct Fock matrix construction)
  Stephan P. A. Sauer,      University of Copenhagen,     Denmark     (SOPPA(CCSD), SOPPA prop., AOSOPPA, vibrational g-factors)
  Bernd Schimmelpfennig,    Forschungszentrum Karlsruhe,  Germany     (AMFI module)
  Kristian Sneskov,         Aarhus University,            Denmark     (Polarizable embedding model, QM/MM)
  Arnfinn H. Steindal,      UiT The Arctic U. of Norway,  Norway      (parallel QM/MM, Polarizable embedding model)
  Casper Steinmann,         Univ. of Southern Denmark,    Denmark     (QFIT, Polarizable embedding model)
  K. O. Sylvester-Hvid,     University of Copenhagen,     Denmark     (MC-SCRF)
  Peter R. Taylor,          VLSCI/Univ. of Melbourne,     Australia   (Symmetry handling ABACUS, integral transformation)
  Andrew M. Teale,          University of Nottingham,     England     (DFT-AC, DFT-D)
  David P. Tew,             University of Bristol,        England     (CCSD(R12))
  Olav Vahtras,             KTH Stockholm,                Sweden      (triplet response, spin-orbit, ESR, TDDFT, open-shell DFT)
  David J. Wilson,          La Trobe University,          Australia   (DFT Hessian and DFT magnetizabilities)
  Hans Agren,               KTH Stockholm,                Sweden      (SIRIUS module, RESPONS, MC-SCRF solvation model)
 --------------------------------------------------------------------------------

     Date and time (Linux)  : Mon Dec  3 12:41:43 2018
     Host name              : n-62-29-4                               

 * Work memory size             :  1280000000 =  9.537 gigabytes.

 * Directories for basis set searches:
   1) /zhome/d7/7/119775/My_Codes/dalton-private/build2016/basis/diffs
   2) /zhome/37/3/129401/NH3NH4/CCSD/AIMD_SAMPLING/nh4_4h2o_nd
   3) /zhome/9a/4/124800/source/dalton/build-mlcc/basis


Compilation information
-----------------------

 Who compiled             | rfaber
 Host                     | hpclogin1
 System                   | Linux-2.6.32-696.1.1.el6.x86_64
 CMake generator          | Unix Makefiles
 Processor                | x86_64
 64-bit integers          | ON
 MPI                      | OFF
 Fortran compiler         | /opt/intel/2016update2/compilers_and_libraries_201
                          | 6.2.181/linux/bin/intel64/ifort
 Fortran compiler version | ifort (IFORT) 16.0.2 20160204
 C compiler               | /opt/intel/2016update2/compilers_and_libraries_201
                          | 6.2.181/linux/bin/intel64/icc
 C compiler version       | icc (ICC) 16.0.2 20160204
 C++ compiler             | /opt/intel/2016update2/compilers_and_libraries_201
                          | 6.2.181/linux/bin/intel64/icpc
 C++ compiler version     | icpc (ICC) 16.0.2 20160204
 Static linking           | OFF
 Last Git revision        | bb4d1599ca5680a9f3980451fc8bbefdba436d59
 Git branch               | mlcc
 Configuration time       | 2017-06-13 16:11:03.928841


   Content of the .dal input file
 ----------------------------------

**DALTON
.RUN WAVE FUNCTIONS
*QMMM
.QMMM
**INTEGRALS
.DIPLEN
**WAVE FUNCTIONS
.CC
*PRINT
!To check the origin of excit
.PRINTL
   0 11
*SCF INP
.THRESH
1.0D-7
!*ORBITAL INPUT
!.MOSTART
!NEWORB
*CC INP
!.RESTART
.CCSD
.THRLEQ
 1.0D-9
.THRENR
 1.0D-10
.FROIMP
4
0
.PRINT
 1
.MAX IT
 1200
.MAXRED
 1200
.MXLRV
1199
*CCSLV
.CCMM
.MXSLIT
200
.MXINIT
4 5
*CCEXCI
.NCCEXC
 1
.IONISATION
1
1
.CVSEPARA
1
1
*CCLRSD
.DIPOLE
**END OF DALTON INPUT


   Content of the .mol file
 ----------------------------

ATOMBASIS


Atomtypes=5 Charge=1 Nosymm Angstrom
   7.00000    1    Basis=6-311G**
N          0.000000        0.000000        0.000000
   1.00000    4    Basis=6-311G**
H          0.173916        0.931203       -0.380323
H          0.707349       -0.680401       -0.432519
H         -0.944239       -0.470053       -0.173167
H          0.318568       -0.076044        0.990823
   8.00000    4    Basis=6-311G**
O         -0.021384        2.462351       -1.493614
O         -2.643350       -0.925662       -0.631666
O          1.694064        0.011517        2.432826
O          1.776636       -1.841116       -1.007878
   1.00000    8    Basis=6-311G**
H         -0.297631        2.026212       -2.341794
H          0.876336        2.829420       -1.700419
H         -2.735353       -1.862202       -0.441940
H         -3.541580       -0.566307       -0.512882
H          1.956360        0.939284        2.121224
H          1.628319        0.158125        3.439218
H          1.781951       -2.718266       -0.504619
H          2.746726       -1.552875       -1.125731
   0.00000    1    Basis=diffs
X          0.000000        0.000000        0.000000


       *******************************************************************
       *********** Output from DALTON general input processing ***********
       *******************************************************************

 --------------------------------------------------------------------------------
   Overall default print level:    0
   Print level for DALTON.STAT:    1

    HERMIT 1- and 2-electron integral sections will be executed
    "Old" integral transformation used (limited to max 255 basis functions)
    Wave function sections will be executed (SIRIUS module)
 --------------------------------------------------------------------------------


 Changes of defaults for *QMMM  :
 --------------------------------

 +------------------+
 |  WORD: | CHANGE: |
 +------------------+
 |   QMMM |       T |
 +------------------+
 


   ****************************************************************************
   *************** Output of molecule and basis set information ***************
   ****************************************************************************


    The two title cards from your ".mol" input:
    ------------------------------------------------------------------------
 1:                                                                         
 2:                                                                         
    ------------------------------------------------------------------------

  Coordinates are entered in Angstrom and converted to atomic units.
          - Conversion factor : 1 bohr = 0.52917721 A

  Atomic type no.    1
  --------------------
  Nuclear charge:   7.00000
  Number of symmetry independent centers:    1
  Number of basis sets to read;    2
  The basis set is "6-311G**" from the basis set library.
  Basis set file used for this atomic type with Z =   7 :
     "/zhome/9a/4/124800/source/dalton/build-mlcc/basis/6-311G**"

  Info about the basis set file: your basis has no documentation.
  Basis set: 6-311G**                                                                        

  Atomic type no.    2
  --------------------
  Nuclear charge:   1.00000
  Number of symmetry independent centers:    4
  Number of basis sets to read;    2
  The basis set is "6-311G**" from the basis set library.
  Basis set file used for this atomic type with Z =   1 :
     "/zhome/9a/4/124800/source/dalton/build-mlcc/basis/6-311G**"

  Info about the basis set file: your basis has no documentation.
  Basis set: 6-311G**                                                                        

  Atomic type no.    3
  --------------------
  Nuclear charge:   8.00000
  Number of symmetry independent centers:    4
  Number of basis sets to read;    2
  The basis set is "6-311G**" from the basis set library.
  Basis set file used for this atomic type with Z =   8 :
     "/zhome/9a/4/124800/source/dalton/build-mlcc/basis/6-311G**"

  Info about the basis set file: your basis has no documentation.
  Basis set: 6-311G**                                                                        

  Atomic type no.    4
  --------------------
  Nuclear charge:   1.00000
  Number of symmetry independent centers:    8
  Number of basis sets to read;    2
  The basis set is "6-311G**" from the basis set library.
  Basis set file used for this atomic type with Z =   1 :
     "/zhome/9a/4/124800/source/dalton/build-mlcc/basis/6-311G**"

  Info about the basis set file: your basis has no documentation.
  Basis set: 6-311G**                                                                        

  Atomic type no.    5
  --------------------
  Nuclear charge:   0.00000
  Number of symmetry independent centers:    1
  Number of basis sets to read;    2
  The basis set is "diffs" from the basis set library.
  Basis set file used for this atomic type with Z =   0 :
     "/zhome/9a/4/124800/source/dalton/build-mlcc/basis/diffs"

  Info about the basis set file: your basis has no documentation.
  Basis set: diffs                                                                           


                         SYMGRP: Point group information
                         -------------------------------

@    Point group: C1 


                                 Isotopic Masses
                                 ---------------

                           N          14.003074
                           H           1.007825
                           H           1.007825
                           H           1.007825
                           H           1.007825
                           O          15.994915
                           O          15.994915
                           O          15.994915
                           O          15.994915
                           H           1.007825
                           H           1.007825
                           H           1.007825
                           H           1.007825
                           H           1.007825
                           H           1.007825
                           H           1.007825
                           H           1.007825

                       Total mass:    90.076634 amu
                       Natural abundance:  98.500 %

 Center-of-mass coordinates (a.u.):    0.326917   -0.120318   -0.257459


  Atoms and basis sets
  --------------------

  Number of atom types :    5
  Total number of atoms:   18

  label    atoms   charge   prim   cont     basis
  ----------------------------------------------------------------------
  N           1    7.0000    31    18      [11s5p1d|4s3p1d]                                   
  H           4    1.0000     8     6      [5s1p|3s1p]                                        
  O           4    8.0000    31    18      [11s5p1d|4s3p1d]                                   
  H           8    1.0000     8     6      [5s1p|3s1p]                                        
  X           1    0.0000     1     1      [1s|1s]                                            
  ----------------------------------------------------------------------
  total:     18   51.0000   252   163
  ----------------------------------------------------------------------
  Spherical harmonic basis used.

  Threshold for neglecting AO integrals:  1.00D-12


  Cartesian Coordinates (a.u.)
  ----------------------------

  Total number of coordinates:   54
  N       :     1  x   0.0000000000    2  y   0.0000000000    3  z   0.0000000000
  H       :     4  x   0.3286536088    5  y   1.7597186368    6  z  -0.7187063090
  H       :     7  x   1.3366958848    8  y  -1.2857715452    9  z  -0.8173424539
  H       :    10  x  -1.7843531065   11  y  -0.8882714342   12  z  -0.3272382039
  H       :    13  x   0.6020062722   14  y  -0.1437023334   15  z   1.8723841083
  O       :    16  x  -0.0404099035   17  y   4.6531690136   18  z  -2.8225213965
  O       :    19  x  -4.9952075525   20  y  -1.7492476643   21  z  -1.1936757425
  O       :    22  x   3.2013169982   23  y   0.0217639758   24  z   4.5973748498
  O       :    25  x   3.3573554638   26  y  -3.4792050043   27  z  -1.9046133874
  H       :    28  x  -0.5624410763   29  y   3.8289857512   30  z  -4.4253493012
  H       :    31  x   1.6560350335   32  y   5.3468288926   33  z  -3.2133262077
  H       :    34  x  -5.1690680252   35  y  -3.5190517694   36  z  -0.8351455637
  H       :    37  x  -6.6926162498   38  y  -1.0701651327   39  z  -0.9692065144
  H       :    40  x   3.6969846019   41  y   1.7749895136   42  z   4.0085324098
  H       :    43  x   3.0770769541   44  y   0.2988129435   45  z   6.4991801041
  H       :    46  x   3.3673993582   47  y  -5.1367782749   48  z  -0.9535917075
  H       :    49  x   5.1905598804   50  y  -2.9345084563   51  z  -2.1273232804
  X       :    52  x   0.0000000000   53  y   0.0000000000   54  z   0.0000000000

  Max    interatomic separation is    6.5477 Angstrom (   12.3733 Bohr)
  between atoms   15 and   13, "H     " and "H     ".

  Min HX interatomic separation is    0.9600 Angstrom (    1.8141 Bohr)

  Min YX interatomic separation is    2.7499 Angstrom (    5.1966 Bohr)


  Bond distances (Angstrom):
  --------------------------

                  atom 1     atom 2       distance
                  ------     ------       --------
  bond distance:  H          N            1.020799
  bond distance:  H          N            1.072549
  bond distance:  H          N            1.068889
  bond distance:  H          N            1.043551
  bond distance:  H          O            0.992945
  bond distance:  H          O            0.991670
  bond distance:  H          O            0.959983
  bond distance:  H          O            0.974712
  bond distance:  H          O            1.013236
  bond distance:  H          O            1.019137
  bond distance:  H          O            1.011281
  bond distance:  H          O            1.018846


  Bond angles (degrees):
  ----------------------

                  atom 1     atom 2     atom 3         angle
                  ------     ------     ------         -----
  bond angle:     H          N          H            108.427
  bond angle:     H          N          H            119.426
  bond angle:     H          N          H            111.605
  bond angle:     H          N          H            103.786
  bond angle:     H          N          H             97.778
  bond angle:     H          N          H            113.045
  bond angle:     H          O          H            103.668
  bond angle:     H          O          H            104.316
  bond angle:     H          O          H            100.875
  bond angle:     H          O          H            107.334




 Principal moments of inertia (u*A**2) and principal axes
 --------------------------------------------------------

   IA     319.277273          0.811473   -0.201123    0.548690
   IB     426.442158          0.283253    0.956613   -0.068262
   IC     489.993174         -0.511155    0.210811    0.833234


 Rotational constants
 --------------------

               A                   B                   C

           1582.8844           1185.1056           1031.4001 MHz
            0.052799            0.039531            0.034404 cm-1


@  Nuclear repulsion energy :  198.188986525179 Hartree

  Number of floating/multiple basis set orbitals :    1


                     .---------------------------------------.
                     | Starting in Integral Section (HERMIT) |
                     `---------------------------------------'



 ***************************************************************************************
 ****************** Output from **INTEGRALS input processing (HERMIT) ******************
 ***************************************************************************************



    *************************************************************************
    ****************** Output from HERMIT input processing ******************
    *************************************************************************


 Default print level:        1

 * Nuclear model: Point charge

 Calculation of one- and two-electron Hamiltonian integrals.

 The following one-electron property integrals are calculated as requested:
          - overlap integrals
          - dipole length integrals

 Center of mass  (bohr):      0.326916753461     -0.120317774920     -0.257459441582
 Operator center (bohr):      0.000000000000      0.000000000000      0.000000000000
 Gauge origin    (bohr):      0.000000000000      0.000000000000      0.000000000000
 Dipole origin   (bohr):      0.000000000000      0.000000000000      0.000000000000
 
  *********************************** 
  QMMM electrostatic potential: 
  Multipole order                                    0
  Isotropic polarization  
  *********************************** 
 
  ---------------- 
  QMMM information 
  ---------------- 
 
  MM coordinates in au 
  -------------------- 
     1      9.582669      8.154733     -9.170079
     2      7.935155      8.911599     -9.631945
     3      9.233221      6.190121     -9.024567
     4      5.291949      5.420657     -4.534162
     5      6.132373      6.770515     -3.512226
     6      6.378619      4.039322     -4.678087
     7      7.763968      9.255820     -2.073647
     8      8.506608      8.624818     -0.487238
     9      9.260635      9.123180     -3.211448
    10      8.367651     -4.607525    -10.546752
    11      8.196916     -5.458808    -12.169989
    12     10.129221     -4.061774    -10.381229
    13      4.386052      4.752217      1.831821
    14      3.915962      6.534510      2.000999
    15      6.146465      4.782326      1.540626
    16    -11.117476      9.417116     -4.662569
    17    -12.016045      9.483800     -6.418525
    18    -10.456779     11.191051     -4.475480
    19     -0.996379     -5.013190      3.760084
    20     -2.684433     -5.637087      4.107006
    21     -0.370694     -4.272176      5.373686
    22      5.535992     -0.788628    -10.131408
    23      4.464450     -1.597437     -8.746314
    24      6.729415     -2.169870    -10.633636
    25      7.743860    -11.298695      5.240409
    26      9.227829    -10.901779      4.166514
    27      8.224615    -12.546992      6.456459
    28     -2.009756      7.780163    -10.095473
    29     -1.532730      8.832603    -11.687123
    30     -3.240287      6.603850    -10.703346
    31     -9.427284      1.560713     -1.331539
    32    -10.800921      1.361179      0.018032
    33     -8.968534      3.381742     -1.115760
    34      5.438600     -8.107390     -7.704814
    35      6.809216     -6.841513     -8.255492
    36      5.588432     -8.333229     -5.961901
    37      2.139724     -2.302788     -7.026971
    38      0.649083     -3.162360     -7.795801
    39      2.198515     -2.533754     -5.178944
    40    -11.194995     -0.225185     -6.178577
    41    -10.337337     -1.253389     -7.492976
    42    -10.004460      0.245303     -4.825151
    43      9.224224     -6.688799     -2.359285
    44      7.688132     -7.569442     -2.952457
    45      9.056792     -4.785762     -2.453787
    46      9.925354      6.933879      2.449928
    47     11.490523      7.874999      2.687748
    48      9.387538      6.927367      4.314184
    49      5.838473     11.037138    -11.044268
    50      4.428050      9.958964    -10.461427
    51      5.798972     12.541897     -9.786281
    52     -3.913895      8.485312     -1.951008
    53     -2.463436      7.192645     -2.168960
    54     -5.314050      7.544985     -1.335209
    55      9.868520      1.748972      1.834988
    56      9.343001      1.159275      3.557003
    57     10.209030      3.580570      2.003157
    58     -0.664932     -9.007261     -5.901942
    59      1.055992     -9.276883     -6.429377
    60     -1.735449    -10.543094     -6.477569
    61     -8.791643     -2.000528      8.937027
    62    -10.290914     -2.165063      7.836883
    63     -7.215496     -1.552607      7.915063
    64     -4.759731     -0.406304      5.470118
    65     -3.383035      0.833469      5.665750
    66     -3.953617     -1.790748      4.527296
    67     -1.555316      3.197048      7.151353
    68     -0.155133      2.533650      8.269973
    69     -0.904735      4.868862      6.518629
    70     -9.580804     -9.226350     -3.650696
    71     -8.915788     -8.833113     -5.358320
    72    -11.121770     -8.132119     -3.464140
    73     -4.125694     11.138579     -7.098779
    74     -4.631749     10.186204     -5.630611
    75     -3.442888      9.848225     -8.388067
    76    -10.933859     -4.077509      3.910459
    77    -12.689348     -3.173251      3.579463
    78     -9.823465     -3.251586      2.692593
    79     -5.445839     -7.230546     11.286637
    80     -4.893493     -8.687404     10.142483
    81     -6.474145     -8.030062     12.626676
    82      3.709445     10.409702      2.923112
    83      5.263740     11.321601      3.680098
    84      2.725788     11.828569      2.146113
    85     -5.362818     -1.019154     -6.874376
    86     -4.749912     -2.723643     -7.156359
    87     -5.672289     -1.099469     -5.126525
    88      2.408908     -7.191389     11.219123
    89      1.559088     -8.952035     10.974908
    90      3.036786     -7.183989     13.046059
    91      2.307788      0.292819      9.426035
    92      0.884163     -1.007067      9.373550
    93      3.271615     -0.096049     10.994882
    94      4.710637      4.994813      9.859249
    95      4.189500      5.220520     11.673326
    96      4.096660      3.341070      9.370005
    97     -7.571209      9.078677      8.502008
    98     -9.050361      9.487482      9.534651
    99     -6.789588      7.568597      9.571557
   100     -6.006406     -6.493524      4.700715
   101     -6.526489     -6.256796      2.842677
   102     -7.251495     -5.470230      5.636314
   103     -8.371347    -10.028332     -8.585818
   104     -9.474227    -10.947826     -9.771776
   105     -6.910201    -11.033236     -8.089808
   106      6.683307     -6.728051      8.187452
   107      7.446436     -8.257419      7.493246
   108      5.113423     -7.196740      9.176100
   109    -11.294016     10.803933     11.402292
   110    -11.965697      9.509363     12.584678
   111    -12.858205     10.933432     10.429070
   112     -5.968449     -6.766153     -0.422159
   113     -4.536363     -8.046497     -0.071938
   114     -7.034530     -7.878446     -1.561600
   115      9.384408      0.436867      6.757082
   116     10.543918      1.473057      7.875192
   117      7.872839      0.133621      7.691036
   118      6.242865     -4.705666      3.403263
   119      6.059571     -5.546023      5.090917
   120      5.288637     -3.119361      3.611858
   121     -0.310854     11.622553     10.220544
   122     -1.524992     12.275489      8.878504
   123      0.663515     10.339179      9.298641
   124      7.803690     -0.828853     -2.815320
   125      8.279242     -0.021418     -1.197017
   126      9.267591     -0.589330     -3.858755
   127     -5.189541      4.167290     10.637060
   128     -3.896517      3.473027      9.462618
   129     -5.134919      2.914704     11.930419
   130    -11.450461      3.927114      9.879959
   131    -12.633269      3.603687     11.321973
   132     -9.792933      3.484029     10.547956
   133      9.287887      2.785396     -9.108667
   134      7.777752      1.615013     -9.259743
   135     10.310954      2.038999     -7.631396
   136      1.454845      7.811413      6.974554
   137      2.409473      8.571720      5.505332
   138      2.906308      6.964087      7.739390
   139     -0.953452      2.124526     -7.362721
   140      0.515797      1.055507     -7.251457
   141     -2.446190      1.164340     -6.947880
   142     -0.919756     -3.670806      9.073991
   143      0.063446     -4.926412     10.139157
   144     -2.682799     -3.722995      9.655308
   145     -2.159800     -4.985184     -8.365553
   146     -1.495178     -6.522906     -7.611550
   147     -3.281375     -5.299472     -9.769262
   148    -10.240857     -3.676354     -9.879896
   149     -9.505989     -5.259731     -9.481306
   150     -9.226671     -3.321798    -11.520931
   151      3.392338      6.384636     -9.196314
   152      1.622137      6.492916     -8.657616
   153      4.074308      6.351334     -7.376319
   154      8.995495      7.510635      7.438826
   155      7.489854      6.725225      8.154463
   156     10.415874      6.699181      8.408079
   157      5.052239    -10.118899     -2.820896
   158      4.246305     -9.680897     -1.171369
   159      6.111930    -11.683339     -2.503303
   160      3.153596     -7.807148      1.002511
   161      4.581361     -6.948483      2.047972
   162      1.487116     -7.288844      1.791700
   163    -11.410701     -9.667935      2.394096
   164    -12.070293     -9.297708      0.777176
   165    -10.807933     -7.928629      2.796698
   166     -8.358516      6.887581     -1.080126
   167     -9.582962      8.001106     -2.176347
   168     -8.723178      7.529893      0.569480
   169     -4.476465    -10.331730      7.693708
   170     -5.245164    -12.049453      7.581309
   171     -5.431343     -9.198964      6.643315
   172     -9.221087      9.061577      3.650713
   173     -9.215971     10.861195      3.352006
   174     -8.707548      8.869847      5.458827
   175     -2.014790    -10.478994     -0.547756
   176     -2.795389    -12.149244     -1.117550
   177     -1.159855     -9.662689     -1.934318
 
  MM charges 
  ---------- 
     1     -0.674440
     2      0.337220
     3      0.337220
     4     -0.674440
     5      0.337220
     6      0.337220
     7     -0.674440
     8      0.337220
     9      0.337220
    10     -0.674440
    11      0.337220
    12      0.337220
    13     -0.674440
    14      0.337220
    15      0.337220
    16     -0.674440
    17      0.337220
    18      0.337220
    19     -0.674440
    20      0.337220
    21      0.337220
    22     -0.674440
    23      0.337220
    24      0.337220
    25     -0.674440
    26      0.337220
    27      0.337220
    28     -0.674440
    29      0.337220
    30      0.337220
    31     -0.674440
    32      0.337220
    33      0.337220
    34     -0.674440
    35      0.337220
    36      0.337220
    37     -0.674440
    38      0.337220
    39      0.337220
    40     -0.674440
    41      0.337220
    42      0.337220
    43     -0.674440
    44      0.337220
    45      0.337220
    46     -0.674440
    47      0.337220
    48      0.337220
    49     -0.674440
    50      0.337220
    51      0.337220
    52     -0.674440
    53      0.337220
    54      0.337220
    55     -0.674440
    56      0.337220
    57      0.337220
    58     -0.674440
    59      0.337220
    60      0.337220
    61     -0.674440
    62      0.337220
    63      0.337220
    64     -0.674440
    65      0.337220
    66      0.337220
    67     -0.674440
    68      0.337220
    69      0.337220
    70     -0.674440
    71      0.337220
    72      0.337220
    73     -0.674440
    74      0.337220
    75      0.337220
    76     -0.674440
    77      0.337220
    78      0.337220
    79     -0.674440
    80      0.337220
    81      0.337220
    82     -0.674440
    83      0.337220
    84      0.337220
    85     -0.674440
    86      0.337220
    87      0.337220
    88     -0.674440
    89      0.337220
    90      0.337220
    91     -0.674440
    92      0.337220
    93      0.337220
    94     -0.674440
    95      0.337220
    96      0.337220
    97     -0.674440
    98      0.337220
    99      0.337220
   100     -0.674440
   101      0.337220
   102      0.337220
   103     -0.674440
   104      0.337220
   105      0.337220
   106     -0.674440
   107      0.337220
   108      0.337220
   109     -0.674440
   110      0.337220
   111      0.337220
   112     -0.674440
   113      0.337220
   114      0.337220
   115     -0.674440
   116      0.337220
   117      0.337220
   118     -0.674440
   119      0.337220
   120      0.337220
   121     -0.674440
   122      0.337220
   123      0.337220
   124     -0.674440
   125      0.337220
   126      0.337220
   127     -0.674440
   128      0.337220
   129      0.337220
   130     -0.674440
   131      0.337220
   132      0.337220
   133     -0.674440
   134      0.337220
   135      0.337220
   136     -0.674440
   137      0.337220
   138      0.337220
   139     -0.674440
   140      0.337220
   141      0.337220
   142     -0.674440
   143      0.337220
   144      0.337220
   145     -0.674440
   146      0.337220
   147      0.337220
   148     -0.674440
   149      0.337220
   150      0.337220
   151     -0.674440
   152      0.337220
   153      0.337220
   154     -0.674440
   155      0.337220
   156      0.337220
   157     -0.674440
   158      0.337220
   159      0.337220
   160     -0.674440
   161      0.337220
   162      0.337220
   163     -0.674440
   164      0.337220
   165      0.337220
   166     -0.674440
   167      0.337220
   168      0.337220
   169     -0.674440
   170      0.337220
   171      0.337220
   172     -0.674440
   173      0.337220
   174      0.337220
   175     -0.674440
   176      0.337220
   177      0.337220
 
  MM isotropic polarizabilities in au 
  ----------------------------------- 
     1      5.739350
     2      2.308390
     3      2.308390
     4      5.739350
     5      2.308390
     6      2.308390
     7      5.739350
     8      2.308390
     9      2.308390
    10      5.739350
    11      2.308390
    12      2.308390
    13      5.739350
    14      2.308390
    15      2.308390
    16      5.739350
    17      2.308390
    18      2.308390
    19      5.739350
    20      2.308390
    21      2.308390
    22      5.739350
    23      2.308390
    24      2.308390
    25      5.739350
    26      2.308390
    27      2.308390
    28      5.739350
    29      2.308390
    30      2.308390
    31      5.739350
    32      2.308390
    33      2.308390
    34      5.739350
    35      2.308390
    36      2.308390
    37      5.739350
    38      2.308390
    39      2.308390
    40      5.739350
    41      2.308390
    42      2.308390
    43      5.739350
    44      2.308390
    45      2.308390
    46      5.739350
    47      2.308390
    48      2.308390
    49      5.739350
    50      2.308390
    51      2.308390
    52      5.739350
    53      2.308390
    54      2.308390
    55      5.739350
    56      2.308390
    57      2.308390
    58      5.739350
    59      2.308390
    60      2.308390
    61      5.739350
    62      2.308390
    63      2.308390
    64      5.739350
    65      2.308390
    66      2.308390
    67      5.739350
    68      2.308390
    69      2.308390
    70      5.739350
    71      2.308390
    72      2.308390
    73      5.739350
    74      2.308390
    75      2.308390
    76      5.739350
    77      2.308390
    78      2.308390
    79      5.739350
    80      2.308390
    81      2.308390
    82      5.739350
    83      2.308390
    84      2.308390
    85      5.739350
    86      2.308390
    87      2.308390
    88      5.739350
    89      2.308390
    90      2.308390
    91      5.739350
    92      2.308390
    93      2.308390
    94      5.739350
    95      2.308390
    96      2.308390
    97      5.739350
    98      2.308390
    99      2.308390
   100      5.739350
   101      2.308390
   102      2.308390
   103      5.739350
   104      2.308390
   105      2.308390
   106      5.739350
   107      2.308390
   108      2.308390
   109      5.739350
   110      2.308390
   111      2.308390
   112      5.739350
   113      2.308390
   114      2.308390
   115      5.739350
   116      2.308390
   117      2.308390
   118      5.739350
   119      2.308390
   120      2.308390
   121      5.739350
   122      2.308390
   123      2.308390
   124      5.739350
   125      2.308390
   126      2.308390
   127      5.739350
   128      2.308390
   129      2.308390
   130      5.739350
   131      2.308390
   132      2.308390
   133      5.739350
   134      2.308390
   135      2.308390
   136      5.739350
   137      2.308390
   138      2.308390
   139      5.739350
   140      2.308390
   141      2.308390
   142      5.739350
   143      2.308390
   144      2.308390
   145      5.739350
   146      2.308390
   147      2.308390
   148      5.739350
   149      2.308390
   150      2.308390
   151      5.739350
   152      2.308390
   153      2.308390
   154      5.739350
   155      2.308390
   156      2.308390
   157      5.739350
   158      2.308390
   159      2.308390
   160      5.739350
   161      2.308390
   162      2.308390
   163      5.739350
   164      2.308390
   165      2.308390
   166      5.739350
   167      2.308390
   168      2.308390
   169      5.739350
   170      2.308390
   171      2.308390
   172      5.739350
   173      2.308390
   174      2.308390
   175      5.739350
   176      2.308390
   177      2.308390


     ************************************************************************
     ************************** Output from HERINT **************************
     ************************************************************************



                      Nuclear contribution to dipole moments
                      --------------------------------------

                 au               Debye          C m (/(10**-30)

      x     17.23137318        43.79777917       146.09366580
      y     -6.39707064       -16.25973069       -54.23662355
      z    -12.59461833       -32.01232464      -106.78162104



 Threshold for neglecting two-electron integrals:  1.00D-12
 HERMIT - Number of two-electron integrals written:    36579529 ( 40.9% )
 HERMIT - Megabytes written:                            418.853

  Time used in TWOINT     is       6.71 seconds
  Total CPU  time used in HERMIT:   6.92 seconds
  Total wall time used in HERMIT:   7.69 seconds


                        .----------------------------------.
                        | End of Integral Section (HERMIT) |
                        `----------------------------------'



                   .--------------------------------------------.
                   | Starting in Wave Function Section (SIRIUS) |
                   `--------------------------------------------'

NCCEXCI for singlet:    1
 CCSD_INPUT: core-val requested
 Requested number of virtual orbs per sym
                     1
 Indices of requested virtual orbs
                     1
 CCSD_INPUT: core-val requested
 Requested number of core orbs per sym
                     1
 Indices of requested core orbs
                     1

 *** Output from Huckel module :

     Using EWMO model:          T
     Using EHT  model:          F
     Number of Huckel orbitals each symmetry:   37

 EWMO - Energy Weighted Maximum Overlap - is a Huckel type method,
        which normally is better than Extended Huckel Theory.
 Reference: Linderberg and Ohrn, Propagators in Quantum Chemistry (Wiley, 1973)

 Huckel EWMO eigenvalues for symmetry :  1
          -20.684896     -20.684503     -20.684296     -20.684140     -15.675203
           -1.799442      -1.619002      -1.604045      -1.585154      -1.479698
           -0.829079      -0.808085      -0.781966      -0.776892      -0.769837
           -0.757985      -0.740926      -0.689814      -0.679798      -0.649853
           -0.645153      -0.612315      -0.580756      -0.569660      -0.553150
           -0.263770      -0.247832      -0.243431      -0.235953      -0.187597
           -0.186020      -0.179692      -0.178507      -0.171359      -0.151198
           -0.147171      -0.137620

 **********************************************************************
 *SIRIUS* a direct, restricted step, second order MCSCF program       *
 **********************************************************************

 
     Date and time (Linux)  : Mon Dec  3 12:41:51 2018
     Host name              : n-62-29-4                               

 Title lines from ".mol" input file:
                                                                             
                                                                             

 Print level on unit LUPRI =   2 is   0
 Print level on unit LUW4  =   2 is  11

@    (Integral direct) CC calculation.

@    This is a combination run starting with
@              a restricted, closed shell Hartree-Fock calculation


 Initial molecular orbitals are obtained according to
 ".MOSTART EWMO  " input option

@    QM part is embedded in an environment :

@         Model: QMMM

     Wave function specification
     ============================

     For the specification of the Coupled Cluster: see later.

@    Wave function type        --- CC ---
@    Number of closed shell electrons          50
@    Number of electrons in active shells       0
@    Total charge of the molecule               1

@    Spin multiplicity and 2 M_S                1         0
@    Total number of symmetries                 1 (point group: C1 )
@    Reference state symmetry                   1 (irrep name : A  )

     Orbital specifications
     ======================
@    Abelian symmetry species          All |    1
@                                          |  A  
                                       --- |  ---
@    Occupied SCF orbitals              25 |   25
@    Secondary orbitals                138 |  138
@    Total number of orbitals          163 |  163
@    Number of basis functions         163 |  163

     Optimization information
     ========================
@    Number of configurations                 1
@    Number of orbital rotations           3450
     ------------------------------------------
@    Total number of variables             3451

     Maximum number of Fock   iterations      0
     Maximum number of DIIS   iterations     60
     Maximum number of QC-SCF iterations     60
     Threshold for SCF convergence     1.00D-07


 Changes of defaults for CC:
 ---------------------------


 -Implicit frozen core calculation
 -Excitation energies calculated
 -One-photon absorption strengths will be calculated
 -Oscillator strengths calculated
  
* Read MO coefficients from SIRIUS.RST with label "NEWORB  " and header info:  3Dec18  REORTHO 


 ***********************************************
 ***** DIIS acceleration of SCF iterations *****
 ***********************************************

 C1-DIIS algorithm; max error vectors =    8
 -----------------------------------------------------------------------------

 *** DIIS iteration number    1
 RDSUPM called. NFMAT, ISYMDM(1:NFMAT)                     1
                     1

Calculating AOSUPINT
     (Precalculated two-electron integrals are transformed to P-supermatrix elements.
      Threshold for discarding integrals :  1.00D-12 )
  CPU  time used in FORMSUP    is   5.63 seconds
  WALL time used in FORMSUP    is  13.52 seconds

 ITDIIS, energy, error norm, change in energy, scr.thr., difden:
@ DIIS iter.   1    -360.233197222        3.97443D+00   -3.60D+02  -20    F

 (DIIS_RED) Control Parameters C2DIIS =         F NEVC =    1


 (DIIS_RED) B matrix:

               Column   1
       1      15.79612797
    ==== End of matrix output ====

 DIIS C vector; C2DIIS = F, LAMBDA = -1.58D+01
    1.000000
* Read MO coefficients from SIRIUS.RST with label "NEWORB  " and header info:  3Dec18  DIIS   1
      Virial theorem: -V/T =      2.003171
@      MULPOP N       0.11; H       0.16; H       0.18; H       0.16; H       0.16; O      -0.60; O      -0.57; O      -0.60; O      -0.56; H       0.33; 
@             H       0.33; H       0.32; H       0.31; H       0.33; H       0.31; H       0.31; H       0.31; 
   1  Level shift: doubly occupied orbital energies shifted by -2.00D-01

 DIIS Fock eigenvalues in symmetry 1
      -20.82915      -20.82750      -20.81429      -20.78193      -16.43249
       -1.70646       -1.65042       -1.63279       -1.62685       -1.60155
       -1.19412       -1.17945       -1.16050       -1.02329       -1.00205
       -1.00084       -0.97622       -0.89354       -0.88940       -0.88625
       -0.85053       -0.84852       -0.84641       -0.84458       -0.81137
       -0.00005        0.00293        0.05256        0.07457        0.09329
        0.12207        0.15017        0.17377        0.18256        0.19929
        0.20156        0.20731        0.22373        0.23745        0.28472
        0.31354        0.41776        0.45610        0.47144        0.48272
        0.48458        0.49629        0.50625        0.51983        0.54506
        0.69783        0.71842        0.72912        0.82122        0.85392
        0.88917        0.90576        0.94517        0.95740        0.98241
        0.99061        1.01352        1.02174        1.03440        1.04467
        1.07321        1.08306        1.12080        1.24019        1.29231
        1.32518        1.35816        1.36978        1.37535        1.38261
        1.38548        1.39045        1.41109        1.43483        1.47184
        1.52200        1.53258        1.54836        1.55993        1.57778
        1.65834        1.71629        1.76446        1.78007        1.79825
        1.82285        1.91671        1.98164        2.02944        2.05069
        2.08019        2.10964        2.12184        2.13894        2.16643
        2.18600        2.20463        2.23941        2.26331        2.29057
        2.41584        2.47038        2.47543        2.49156        2.52501
        2.54244        2.57570        2.64010        2.66943        2.67397
        2.70460        2.71588        2.72516        2.75099        2.98437
        3.00999        3.07031        3.11963        3.32587        3.36178
        3.36619        3.37090        3.37909        3.41184        3.41359
        3.41978        3.49456        3.50939        3.57439        3.57789
        3.82720        3.86676        3.88296        3.90330        4.05882
        4.11064        4.13647        4.13935        4.63528        4.76000
        4.85857        5.22596        5.24697        5.27144        5.33098
        5.68421        5.71957        5.77055        5.78767        5.88340
        5.92223        5.99542        6.03245       36.37256       51.43573
       51.45220       51.47975       51.49494
 Time used in FCKEIG, thr_jaco:   5.00D-02  5.40D-02  1.69D-04
 CPU and wall times used in FCKEIG, THR_FCKEIG:   5.00D-02  5.40D-02  3.97D-02
 -----------------------------------------------------------------------------

 *** DIIS iteration number    2
 RDSUPM called. NFMAT, ISYMDM(1:NFMAT)                     1
                     1

 ITDIIS, energy, error norm, change in energy, scr.thr., difden:
@ DIIS iter.   2    -361.121554759        1.13182D+00   -8.88D-01  -20    F

 (DIIS_RED) Control Parameters C2DIIS =         F NEVC =    2


 (DIIS_RED) B matrix:

               Column   1     Column   2
       1      15.79612797
       2       0.72494260     1.28100584
    ==== End of matrix output ====

 DIIS C vector; C2DIIS = F, LAMBDA = -1.26D+00
    0.035583    0.964417
* Read MO coefficients from SIRIUS.RST with label "NEWORB  " and header info:  3Dec18  DIIS   2
      Virial theorem: -V/T =      2.002766
@      MULPOP N      -0.55; H       0.33; H       0.34; H       0.34; H       0.31; O      -0.56; O      -0.56; O      -0.56; O      -0.59; H       0.32; 
@             H       0.30; H       0.31; H       0.31; H       0.30; H       0.30; H       0.33; H       0.34; 
   2  Level shift: doubly occupied orbital energies shifted by -1.00D-01

 DIIS Fock eigenvalues in symmetry 1
      -20.79255      -20.77445      -20.75238      -20.73903      -15.62651
       -1.53378       -1.53286       -1.52194       -1.49647       -1.36824
       -0.89728       -0.88750       -0.88202       -0.87246       -0.86394
       -0.85351       -0.84715       -0.79146       -0.76765       -0.75670
       -0.74639       -0.72661       -0.71565       -0.70202       -0.68228
       -0.00005        0.05887        0.09201        0.11414        0.13218
        0.16799        0.18577        0.20228        0.21316        0.22028
        0.25674        0.29111        0.30365        0.34496        0.37103
        0.39520        0.45317        0.49594        0.51025        0.51978
        0.52071        0.53914        0.55174        0.58293        0.61444
        0.83948        0.84692        0.85920        0.86572        0.89190
        0.92310        0.94352        0.98551        0.99502        1.01454
        1.03635        1.05021        1.06238        1.08143        1.08470
        1.17115        1.19850        1.23215        1.27719        1.33704
        1.36937        1.40668        1.42442        1.42719        1.43770
        1.44308        1.44571        1.46824        1.48504        1.52433
        1.59178        1.62619        1.63221        1.65242        1.65616
        1.75489        1.78912        1.82984        1.84404        1.86249
        1.88432        2.01796        2.07212        2.08782        2.11924
        2.13917        2.16848        2.17338        2.23798        2.24466
        2.26698        2.30533        2.31807        2.33315        2.41592
        2.51225        2.53765        2.55240        2.60147        2.61496
        2.64514        2.69670        2.74001        2.75348        2.76348
        2.77228        2.79116        2.91085        2.94808        3.15431
        3.24601        3.26393        3.34013        3.36335        3.38719
        3.39511        3.40170        3.42273        3.44151        3.47138
        3.49502        3.52612        3.55370        3.60167        3.61056
        3.83779        3.88859        3.91508        3.92259        4.08184
        4.12120        4.15545        4.16967        5.00618        5.13732
        5.22388        5.24181        5.25653        5.27467        5.32696
        5.67461        5.72550        5.77513        5.79642        5.88244
        5.93656        6.00747        6.06448       37.06241       51.36095
       51.40687       51.44038       51.45829
 Time used in FCKEIG, thr_jaco:   3.70D-02  4.50D-02  4.82D-05
 CPU and wall times used in FCKEIG, THR_FCKEIG:   3.70D-02  4.50D-02  1.13D-02
 -----------------------------------------------------------------------------

 *** DIIS iteration number    3
 RDSUPM called. NFMAT, ISYMDM(1:NFMAT)                     1
                     1

 ITDIIS, energy, error norm, change in energy, scr.thr., difden:
@ DIIS iter.   3    -361.195888103        3.75357D-01   -7.43D-02  -20    F

 (DIIS_RED) Control Parameters C2DIIS =         F NEVC =    3


 (DIIS_RED) B matrix:

               Column   1     Column   2     Column   3
       1      15.79612797
       2       0.72494260     1.28100584
       3       0.80489073    -0.00543605     0.14089298
    ==== End of matrix output ====

 DIIS C vector; C2DIIS = F, LAMBDA = -9.45D-02
   -0.046828    0.104300    0.942529
* Read MO coefficients from SIRIUS.RST with label "NEWORB  " and header info:  3Dec18  DIIS   3
      Virial theorem: -V/T =      2.003453
@      MULPOP N      -0.37; H       0.31; H       0.30; H       0.31; H       0.26; O      -0.63; O      -0.62; O      -0.63; O      -0.67; H       0.35; 
@             H       0.32; H       0.33; H       0.33; H       0.33; H       0.33; H       0.36; H       0.37; 
   3  Level shift: doubly occupied orbital energies shifted by -5.00D-02

 DIIS Fock eigenvalues in symmetry 1
      -20.69093      -20.67619      -20.67113      -20.64672      -15.78346
       -1.46810       -1.46097       -1.44939       -1.42856       -1.36879
       -0.85966       -0.84878       -0.82444       -0.82094       -0.80832
       -0.80476       -0.78407       -0.72002       -0.70487       -0.69213
       -0.67699       -0.64868       -0.64111       -0.63238       -0.60916
       -0.00005        0.06489        0.09781        0.12095        0.13780
        0.17342        0.18894        0.20621        0.21962        0.22499
        0.25999        0.29223        0.30354        0.34303        0.37254
        0.39570        0.46507        0.50612        0.52064        0.53076
        0.53299        0.54916        0.56224        0.59250        0.61325
        0.82683        0.84265        0.85476        0.87330        0.90514
        0.93367        0.95324        1.00172        1.00877        1.02845
        1.04772        1.06286        1.07845        1.09527        1.09787
        1.16974        1.19424        1.22679        1.29116        1.34847
        1.38373        1.41794        1.44031        1.44092        1.45100
        1.45607        1.45960        1.48240        1.49686        1.53505
        1.60158        1.63521        1.63627        1.65853        1.66216
        1.76285        1.79822        1.84031        1.85510        1.87367
        1.89575        2.02026        2.08002        2.10046        2.13346
        2.14798        2.18227        2.18824        2.25524        2.26170
        2.26664        2.30575        2.32942        2.34749        2.41275
        2.52190        2.55128        2.56080        2.60859        2.62077
        2.64996        2.70148        2.74748        2.76474        2.77311
        2.78393        2.80169        2.88040        2.91673        3.14789
        3.22861        3.23428        3.33970        3.37031        3.41050
        3.42119        3.42292        3.44196        3.46217        3.48336
        3.50936        3.55538        3.56702        3.62721        3.63437
        3.86673        3.91795        3.93794        3.94748        4.11368
        4.15194        4.18258        4.19450        4.93010        5.05952
        5.15495        5.26792        5.28250        5.30346        5.35825
        5.71023        5.76052        5.80445        5.82437        5.91934
        5.97311        6.03920        6.09140       36.86164       51.41248
       51.45495       51.48292       51.48995
 Time used in FCKEIG, thr_jaco:   3.30D-02  4.20D-02  1.60D-05
 CPU and wall times used in FCKEIG, THR_FCKEIG:   3.40D-02  4.20D-02  3.75D-03
 -----------------------------------------------------------------------------

 *** DIIS iteration number    4
 RDSUPM called. NFMAT, ISYMDM(1:NFMAT)                     1
                     1

 ITDIIS, energy, error norm, change in energy, scr.thr., difden:
@ DIIS iter.   4    -361.206032296        9.41491D-02   -1.01D-02  -20    F

 (DIIS_RED) Control Parameters C2DIIS =         F NEVC =    4


 (DIIS_RED) B matrix:

               Column   1     Column   2     Column   3     Column   4
       1      15.79612797
       2       0.72494260     1.28100584
       3       0.80489073    -0.00543605     0.14089298
       4       0.04877565     0.07875761     0.00324871     0.00886405
    ==== End of matrix output ====

 DIIS C vector; C2DIIS = F, LAMBDA = -4.54D-03
   -0.000650   -0.060728    0.009345    1.052033
* Read MO coefficients from SIRIUS.RST with label "NEWORB  " and header info:  3Dec18  DIIS   4
      Virial theorem: -V/T =      2.003462
@      MULPOP N      -0.45; H       0.32; H       0.32; H       0.33; H       0.28; O      -0.64; O      -0.63; O      -0.63; O      -0.68; H       0.36; 
@             H       0.33; H       0.34; H       0.34; H       0.33; H       0.34; H       0.37; H       0.37; 
   4  Level shift: doubly occupied orbital energies shifted by -2.50D-02

 DIIS Fock eigenvalues in symmetry 1
      -20.68116      -20.66851      -20.65596      -20.63482      -15.72404
       -1.44632       -1.44117       -1.42965       -1.40782       -1.33094
       -0.82392       -0.81444       -0.80035       -0.78986       -0.78746
       -0.77935       -0.76229       -0.69773       -0.67989       -0.66770
       -0.65375       -0.62470       -0.61547       -0.60749       -0.58398
       -0.00005        0.06526        0.09772        0.12029        0.13734
        0.17370        0.19010        0.20689        0.21941        0.22561
        0.26243        0.29552        0.30846        0.35042        0.37823
        0.40160        0.46474        0.50635        0.52006        0.53048
        0.53190        0.54887        0.56136        0.59181        0.61881
        0.83440        0.84989        0.86169        0.87414        0.90743
        0.93516        0.95484        1.00104        1.00856        1.02795
        1.04823        1.06252        1.07637        1.09340        1.09676
        1.17480        1.19943        1.23303        1.29145        1.35014
        1.38282        1.41873        1.43871        1.43971        1.45071
        1.45540        1.45840        1.48061        1.49689        1.53548
        1.60183        1.63663        1.64167        1.66209        1.66444
        1.76751        1.79992        1.84068        1.85556        1.87320
        1.89545        2.02560        2.08406        2.10018        2.13268
        2.14984        2.18128        2.18649        2.25303        2.25990
        2.27085        2.31125        2.32903        2.34567        2.41899
        2.52334        2.54979        2.56223        2.61262        2.62458
        2.65498        2.70628        2.75043        2.76381        2.77426
        2.78413        2.80156        2.89209        2.92830        3.15635
        3.23827        3.24481        3.35064        3.36697        3.40806
        3.41697        3.42067        3.44121        3.45998        3.48381
        3.50947        3.55178        3.56567        3.62451        3.63277
        3.86260        3.91328        3.93572        3.94426        4.10904
        4.14802        4.17962        4.19272        4.94789        5.07841
        5.17333        5.26367        5.27578        5.29633        5.35221
        5.70330        5.75283        5.79925        5.81978        5.91152
        5.96435        6.03263        6.08657       36.89564       51.39760
       51.43820       51.47008       51.48037
 Time used in FCKEIG, thr_jaco:   2.70D-02  4.20D-02  4.01D-06
 CPU and wall times used in FCKEIG, THR_FCKEIG:   2.70D-02  4.20D-02  9.41D-04
 -----------------------------------------------------------------------------

 *** DIIS iteration number    5
 RDSUPM called. NFMAT, ISYMDM(1:NFMAT)                     1
                     1

 ITDIIS, energy, error norm, change in energy, scr.thr., difden:
@ DIIS iter.   5    -361.207020118        2.99465D-02   -9.88D-04  -20    F

 (DIIS_RED) Control Parameters C2DIIS =         F NEVC =    5


 (DIIS_RED) B matrix:

               Column   1     Column   2     Column   3     Column   4     Column   5
       1      15.79612797
       2       0.72494260     1.28100584
       3       0.80489073    -0.00543605     0.14089298
       4       0.04877565     0.07875761     0.00324871     0.00886405
       5       0.02243902     0.00803305     0.00569198     0.00083238     0.00089680
    ==== End of matrix output ====

 DIIS C vector; C2DIIS = F, LAMBDA = -6.16D-04
    0.001175   -0.012575   -0.043692    0.101237    0.953854
* Read MO coefficients from SIRIUS.RST with label "NEWORB  " and header info:  3Dec18  DIIS   5
      Virial theorem: -V/T =      2.003099
@      MULPOP N      -0.44; H       0.32; H       0.32; H       0.33; H       0.28; O      -0.65; O      -0.64; O      -0.65; O      -0.70; H       0.36; 
@             H       0.33; H       0.34; H       0.34; H       0.34; H       0.35; H       0.37; H       0.38; 
   5  Level shift: doubly occupied orbital energies shifted by -1.25D-02

 DIIS Fock eigenvalues in symmetry 1
      -20.66140      -20.64649      -20.63805      -20.61587      -15.70745
       -1.43182       -1.42597       -1.41369       -1.39300       -1.31663
       -0.80989       -0.80019       -0.78637       -0.77534       -0.77254
       -0.76481       -0.74817       -0.68319       -0.66566       -0.65249
       -0.63937       -0.60876       -0.59993       -0.59124       -0.56841
       -0.00005        0.06579        0.09810        0.12072        0.13770
        0.17417        0.19068        0.20736        0.21988        0.22607
        0.26325        0.29630        0.30956        0.35186        0.37939
        0.40284        0.46561        0.50717        0.52080        0.53112
        0.53270        0.54960        0.56189        0.59236        0.62004
        0.83582        0.85162        0.86303        0.87632        0.90926
        0.93729        0.95661        1.00292        1.01012        1.02927
        1.04987        1.06393        1.07813        1.09453        1.09822
        1.17625        1.20087        1.23459        1.29316        1.35160
        1.38390        1.41991        1.43942        1.44037        1.45188
        1.45615        1.45908        1.48106        1.49831        1.53648
        1.60266        1.63744        1.64261        1.66316        1.66530
        1.76866        1.80079        1.84124        1.85616        1.87350
        1.89577        2.02680        2.08518        2.10130        2.13389
        2.15091        2.18214        2.18724        2.25411        2.26127
        2.27214        2.31249        2.33001        2.34648        2.42010
        2.52406        2.55018        2.56298        2.61357        2.62562
        2.65586        2.70741        2.75117        2.76401        2.77465
        2.78448        2.80185        2.89373        2.92989        3.15796
        3.24043        3.24695        3.35269        3.36985        3.41073
        3.42054        3.42323        3.44335        3.46229        3.48590
        3.51276        3.55459        3.56905        3.62688        3.63476
        3.86543        3.91675        3.93774        3.94662        4.11284
        4.15101        4.18219        4.19490        4.95055        5.08092
        5.17583        5.26709        5.28054        5.30155        5.35614
        5.70750        5.75800        5.80271        5.82306        5.91544
        5.96943        6.03598        6.08936       36.89965       51.40479
       51.44748       51.47651       51.48574
 Time used in FCKEIG, thr_jaco:   2.60D-02  4.00D-02  1.27D-06
 CPU and wall times used in FCKEIG, THR_FCKEIG:   2.60D-02  4.00D-02  2.99D-04
 -----------------------------------------------------------------------------

 *** DIIS iteration number    6
 RDSUPM called. NFMAT, ISYMDM(1:NFMAT)                     1
                     1

 ITDIIS, energy, error norm, change in energy, scr.thr., difden:
@ DIIS iter.   6    -361.207110471        1.08289D-02   -9.04D-05  -20    F

 (DIIS_RED) Control Parameters C2DIIS =         F NEVC =    6


 (DIIS_RED) B matrix:

               Column   1     Column   2     Column   3     Column   4     Column   5     Column   6
       1      15.79612797
       2       0.72494260     1.28100584
       3       0.80489073    -0.00543605     0.14089298
       4       0.04877565     0.07875761     0.00324871     0.00886405
       5       0.02243902     0.00803305     0.00569198     0.00083238     0.00089680
       6      -0.00455148    -0.00012433     0.00080002     0.00055223     0.00003707     0.00011727
    ==== End of matrix output ====

 DIIS C vector; C2DIIS = F, LAMBDA = -3.68D-05
    0.000797    0.007218   -0.011184   -0.134621    0.109892    1.027899
* Read MO coefficients from SIRIUS.RST with label "NEWORB  " and header info:  3Dec18  DIIS   6
      Virial theorem: -V/T =      2.003346
@      MULPOP N      -0.43; H       0.32; H       0.32; H       0.33; H       0.27; O      -0.65; O      -0.64; O      -0.65; O      -0.70; H       0.36; 
@             H       0.33; H       0.35; H       0.34; H       0.34; H       0.35; H       0.37; H       0.38; 

 DIIS Fock eigenvalues in symmetry 1
      -20.65087      -20.63677      -20.62692      -20.60518      -15.69698
       -1.41965       -1.41392       -1.40194       -1.38099       -1.30463
       -0.79791       -0.78817       -0.77433       -0.76337       -0.76077
       -0.75277       -0.73623       -0.67145       -0.65384       -0.64079
       -0.62764       -0.59645       -0.58756       -0.57918       -0.55611
       -0.00005        0.06570        0.09799        0.12057        0.13755
        0.17410        0.19058        0.20727        0.21976        0.22599
        0.26315        0.29622        0.30945        0.35165        0.37928
        0.40266        0.46542        0.50695        0.52060        0.53092
        0.53243        0.54937        0.56168        0.59211        0.61989
        0.83551        0.85133        0.86269        0.87609        0.90920
        0.93702        0.95634        1.00250        1.00982        1.02896
        1.04953        1.06358        1.07769        1.09422        1.09790
        1.17602        1.20060        1.23434        1.29289        1.35133
        1.38364        1.41963        1.43908        1.44010        1.45156
        1.45586        1.45879        1.48072        1.49795        1.53618
        1.60241        1.63718        1.64245        1.66289        1.66510
        1.76858        1.80055        1.84104        1.85594        1.87325
        1.89553        2.02664        2.08499        2.10100        2.13342
        2.15063        2.18176        2.18686        2.25373        2.26078
        2.27184        2.31226        2.32965        2.34613        2.41983
        2.52382        2.54990        2.56272        2.61342        2.62542
        2.65568        2.70724        2.75098        2.76374        2.77439
        2.78422        2.80158        2.89327        2.92939        3.15770
        3.23983        3.24633        3.35206        3.36926        3.41011
        3.41959        3.42262        3.44283        3.46165        3.48538
        3.51192        3.55396        3.56818        3.62624        3.63428
        3.86479        3.91581        3.93722        3.94595        4.11184
        4.15035        4.18150        4.19436        4.94959        5.07997
        5.17485        5.26638        5.27942        5.30026        5.35518
        5.70645        5.75657        5.80176        5.82221        5.91439
        5.96792        6.03495        6.08858       36.89766       51.40284
       51.44478       51.47470       51.48437
 Time used in FCKEIG, thr_jaco:   2.60D-02  3.90D-02  4.61D-07
 CPU and wall times used in FCKEIG, THR_FCKEIG:   2.60D-02  3.90D-02  1.08D-04
 -----------------------------------------------------------------------------

 *** DIIS iteration number    7
 RDSUPM called. NFMAT, ISYMDM(1:NFMAT)                     1
                     1

 ITDIIS, energy, error norm, change in energy, scr.thr., difden:
@ DIIS iter.   7    -361.207123844        2.33702D-03   -1.34D-05  -20    F

 (DIIS_RED) Control Parameters C2DIIS =         F NEVC =    7


 (DIIS_RED) B matrix:

               Column   1     Column   2     Column   3     Column   4     Column   5     Column   6
       1      15.79612797
       2       0.72494260     1.28100584
       3       0.80489073    -0.00543605     0.14089298
       4       0.04877565     0.07875761     0.00324871     0.00886405
       5       0.02243902     0.00803305     0.00569198     0.00083238     0.00089680
       6      -0.00455148    -0.00012433     0.00080002     0.00055223     0.00003707     0.00011727
       7       0.00039083     0.00019229     0.00000238     0.00000814     0.00004896     0.00000134

               Column   7
       7       0.00000546
    ==== End of matrix output ====

 DIIS C vector; C2DIIS = F, LAMBDA = -1.28D-06
   -0.000248   -0.000809    0.005768    0.023293   -0.103797   -0.129559    1.205352
* Read MO coefficients from SIRIUS.RST with label "NEWORB  " and header info:  3Dec18  DIIS   7
      Virial theorem: -V/T =      2.003288
@      MULPOP N      -0.43; H       0.32; H       0.32; H       0.33; H       0.27; O      -0.65; O      -0.65; O      -0.65; O      -0.70; H       0.37; 
@             H       0.33; H       0.35; H       0.34; H       0.34; H       0.35; H       0.38; H       0.38; 

 DIIS Fock eigenvalues in symmetry 1
      -20.65053      -20.63628      -20.62683      -20.60496      -15.69654
       -1.41956       -1.41375       -1.40171       -1.38086       -1.30441
       -0.79774       -0.78801       -0.77425       -0.76322       -0.76062
       -0.75261       -0.73616       -0.67142       -0.65381       -0.64067
       -0.62762       -0.59624       -0.58740       -0.57895       -0.55593
       -0.00005        0.06576        0.09803        0.12061        0.13759
        0.17414        0.19063        0.20732        0.21980        0.22603
        0.26322        0.29630        0.30955        0.35180        0.37941
        0.40279        0.46549        0.50702        0.52066        0.53097
        0.53249        0.54943        0.56172        0.59214        0.62003
        0.83567        0.85150        0.86283        0.87622        0.90931
        0.93716        0.95645        1.00263        1.00993        1.02905
        1.04965        1.06367        1.07779        1.09426        1.09798
        1.17615        1.20074        1.23449        1.29303        1.35145
        1.38371        1.41971        1.43911        1.44014        1.45164
        1.45589        1.45882        1.48072        1.49805        1.53626
        1.60247        1.63725        1.64257        1.66299        1.66518
        1.76869        1.80063        1.84109        1.85600        1.87327
        1.89555        2.02677        2.08510        2.10108        2.13351
        2.15072        2.18181        2.18690        2.25380        2.26086
        2.27197        2.31239        2.32970        2.34616        2.41996
        2.52389        2.54992        2.56279        2.61350        2.62552
        2.65579        2.70735        2.75104        2.76376        2.77442
        2.78426        2.80161        2.89347        2.92959        3.15788
        3.24005        3.24655        3.35227        3.36943        3.41026
        3.41980        3.42275        3.44294        3.46176        3.48550
        3.51214        3.55414        3.56841        3.62636        3.63437
        3.86495        3.91601        3.93730        3.94605        4.11208
        4.15053        4.18163        4.19446        4.94988        5.08026
        5.17514        5.26649        5.27968        5.30055        5.35534
        5.70667        5.75686        5.80190        5.82233        5.91459
        5.96821        6.03508        6.08867       36.89809       51.40317
       51.44525       51.47492       51.48447
 Time used in FCKEIG, thr_jaco:   2.80D-02  3.20D-02  9.95D-08
 CPU and wall times used in FCKEIG, THR_FCKEIG:   2.80D-02  3.20D-02  2.34D-05
 -----------------------------------------------------------------------------

 *** DIIS iteration number    8
 RDSUPM called. NFMAT, ISYMDM(1:NFMAT)                     1
                     1

 ITDIIS, energy, error norm, change in energy, scr.thr., difden:
@ DIIS iter.   8    -361.207124437        3.78361D-04   -5.93D-07  -20    F

 (DIIS_RED) Control Parameters C2DIIS =         F NEVC =    8


 (DIIS_RED) B matrix:

               Column   1     Column   2     Column   3     Column   4     Column   5     Column   6
       1      15.79612797
       2       0.72494260     1.28100584
       3       0.80489073    -0.00543605     0.14089298
       4       0.04877565     0.07875761     0.00324871     0.00886405
       5       0.02243902     0.00803305     0.00569198     0.00083238     0.00089680
       6      -0.00455148    -0.00012433     0.00080002     0.00055223     0.00003707     0.00011727
       7       0.00039083     0.00019229     0.00000238     0.00000814     0.00004896     0.00000134
       8       0.00010475    -0.00004347     0.00000740     0.00000139     0.00000024     0.00000164

               Column   7     Column   8
       7       0.00000546
       8       0.00000034     0.00000014
    ==== End of matrix output ====

 DIIS C vector; C2DIIS = F, LAMBDA = -8.72D-08
   -0.000001   -0.000031   -0.000468    0.000247    0.012357   -0.015626   -0.162594    1.166118
* Read MO coefficients from SIRIUS.RST with label "NEWORB  " and header info:  3Dec18  DIIS   8
      Virial theorem: -V/T =      2.003304
@      MULPOP N      -0.43; H       0.32; H       0.32; H       0.33; H       0.27; O      -0.65; O      -0.65; O      -0.65; O      -0.70; H       0.37; 
@             H       0.33; H       0.35; H       0.34; H       0.34; H       0.35; H       0.38; H       0.38; 

 DIIS Fock eigenvalues in symmetry 1
      -20.65057      -20.63636      -20.62673      -20.60494      -15.69657
       -1.41952       -1.41376       -1.40173       -1.38085       -1.30442
       -0.79775       -0.78802       -0.77422       -0.76322       -0.76063
       -0.75261       -0.73615       -0.67145       -0.65381       -0.64070
       -0.62764       -0.59624       -0.58738       -0.57896       -0.55591
       -0.00005        0.06576        0.09803        0.12061        0.13759
        0.17415        0.19063        0.20732        0.21981        0.22603
        0.26322        0.29630        0.30955        0.35179        0.37941
        0.40278        0.46549        0.50702        0.52066        0.53098
        0.53248        0.54943        0.56172        0.59214        0.62002
        0.83566        0.85149        0.86282        0.87620        0.90932
        0.93715        0.95644        1.00262        1.00993        1.02906
        1.04965        1.06368        1.07778        1.09427        1.09798
        1.17614        1.20073        1.23449        1.29302        1.35145
        1.38371        1.41971        1.43910        1.44014        1.45164
        1.45589        1.45882        1.48072        1.49804        1.53625
        1.60247        1.63725        1.64256        1.66299        1.66518
        1.76868        1.80063        1.84109        1.85599        1.87327
        1.89555        2.02676        2.08509        2.10108        2.13350
        2.15072        2.18181        2.18690        2.25379        2.26085
        2.27196        2.31238        2.32970        2.34617        2.41995
        2.52388        2.54993        2.56278        2.61349        2.62551
        2.65578        2.70734        2.75104        2.76376        2.77442
        2.78425        2.80161        2.89346        2.92958        3.15786
        3.24003        3.24654        3.35226        3.36941        3.41025
        3.41978        3.42275        3.44296        3.46177        3.48552
        3.51212        3.55413        3.56839        3.62637        3.63440
        3.86493        3.91598        3.93733        3.94605        4.11205
[...]
 | 1 1 1 1 |  27   1  10   1 |     1269        1 |       804547 |   -0.103843  |
 | 1 1 1 1 |  26   1  12   1 |     1544        1 |      1191197 |   -0.090401  |
 | 1 1 1 1 |  27   1  12   1 |     1545        1 |      1192741 |   -0.065389  |
 | 1 1 1 1 |  26   1  15   1 |     1958        1 |      1915904 |    0.066879  |
 | 1 1 1 1 |  14   1  16   1 |     2084        1 |      2170487 |   -0.073305  |
 | 1 1 1 1 |  27   1  16   1 |     2097        1 |      2197657 |   -0.088687  |
 | 1 1 1 1 |  14   1  20   1 |     2636        1 |      3472931 |    0.073766  |
 | 1 1 1 1 |  27   1  20   1 |     2649        1 |      3507277 |    0.080732  |
 +=============================================================================+


          Norm of Printed Amplitude Vector :             0.8436

          Printed all single excitations greater than 0.380806

          Printed all double excitations greater than 0.064803



+======================================================================+
| contributions of excitation levels to right eigenvectors as computed |
| from the (RE|RE) self overlap                                        |
+----------------------------------------------------------------------+
| sym | multi | state |    E / eV  | % singles | % doubles | % triples |
+======================================================================+
|    1|   1   |   1   |  410.95716 |  88.1162  |  11.8838  |   0.0000  |
+======================================================================+





+======================================================================+
| contributions of excitation levels to excited states as computed     |
| from the (LE|RE) overlap                                             |
+----------------------------------------------------------------------+
| sym | multi | state |    E / eV  | % singles | % doubles | % triples |
+======================================================================+
|    1|   1   |   1   |  410.95716 |  78.9908  |  21.0092  |   0.0000  |
+======================================================================+



 --------------------------
 Symmetry class Nr.:     1
 Multiplicity      :     3
 --------------------------

 Length of Excitation vectors in this class is:   8404200
 No Excitation Energies calculated in this symmetry class
     

   *******************************************************************
   *                                                                 *
   *--------   OUTPUT FROM PROPERTY AND SYMMETRY ANALYSIS   ---------*
   *                                                                 *
   *******************************************************************



                         +-------------------------------+
                         ! REQUESTED PROPERTY OPERATORS: !
                         +-------------------------------+

             Index   Oper. Label  Symmetry  Transp.  PDBS  Atom
             --------------------------------------------------
                1     HAM0            1        1      T      0
                2     XDIPLEN         1        1      F      0
                3     YDIPLEN         1        1      F      0
                4     ZDIPLEN         1        1      F      0
             --------------------------------------------------




                         +-------------------------------+
                         ! REQUESTED EXPECTATION VALUES: !
                         +-------------------------------+

                       Index   Oper. Label  Symmetry
                       -----------------------------
                       -----------------------------




                       +------------------------------------+
                       ! REQUESTED EFFECTIVE FOCK MATRICES: !
                       +------------------------------------+

                       Index   Oper. Label  Symmetry
                       -----------------------------
                       -----------------------------




                        +----------------------------------+
                        ! REQUESTED FIRST ORDER M-VECTORS: !
                        +----------------------------------+

               Index   State Symmetry  Frequency
               --------------------------------------------------
                  1             1    1     1.510240D+01
               --------------------------------------------------


      

    *******************************************************************
    *          SOLVING COUPLED CLUSTER RESPONSE EQUATIONS             *
    *******************************************************************



 
 +======================================================================+
 !                     RHS & ETA VECTORS TO COMPUTE:                    !
 +======================================================================+
 | TYPE | # VEC. |  NEEDED FOR:                                         |
 +----------------------------------------------------------------------+
 +======================================================================+



 +======================================================================+
 !                       LINEAR EQUATIONS TO SOLVE:                     !
 +======================================================================+
 | TYPE | # VEC. |  EQUATION:                                           |
 +----------------------------------------------------------------------+
 |  M1  |    1   |  first-order ground - excited state multipliers      |
 +======================================================================+



 +======================================================================+
 !                F MATRIX TRANSFORMATIONS TO COMPUTE:                  !
 +======================================================================+
 | TYPE | # VEC. |  TRANSFORMED:                                        |
 +----------------------------------------------------------------------+
 |  FR  |    1   |  right eigenvectors (RE)                             |
 +======================================================================+





 Testing R1 list: 

 List nr.  Label     Symmetry      Frequency      T1-norm        T2-norm


 Testing L1 list: 

 List nr.  Label     Symmetry      Frequency      T1-norm        T2-norm
  Solvent 1-order response equations converged in                     0 
  solvent iterations
 SONIAPRI                     0
 CCEQ_STR: CVSEPARATION =  T
 CCEQ_STR: IONIZATION =  T
 CCEQ_STR: REMOVE_CORE =  F
 could not find required file CCM1_1___1
 IOPTSV is    33 ... program continues nevertheless.
 Vector nr.  1 of type M1  and symmetry  1 was not found on file.
     M1  start vector nr.  1 of symmetry  1 generated from gradient
 CCEQ_STR: freeze VALENCE OR VIRT
 CCEQ_SOL: CVSEPARA=     T
 CCEQ_SOL: LIONISAT=     T
 CCEQ_SOL: REMOVE_CORE =  F



 ----- COUPLED CLUSTER RESPONSE SOLVER -----

    Iter  #Vectors  time (min)   residual
    --------------------------------------
 CCRED CVS/IONIS sigma_                     1 
 project out valence occupied or virtual
      1       1         1.52     0.14E+01
 CCRED CVS/IONIS sigma_                     2 
 project out valence occupied or virtual
      2       1         1.48     0.25E+00
 CCRED CVS/IONIS sigma_                     3 
 project out valence occupied or virtual
      3       1         1.37     0.33E-01
 CCRED CVS/IONIS sigma_                     4 
 project out valence occupied or virtual
                    -1  vectors with norm le:  1.000000000000000E-035  REMOVED

 CCORT,**WARNING**  number vectors added is zero after check for vector norm , NBADD :    0

 CCORT, number vectors added is zero , NBADD :    0

 CCORT, number vectors added is zero , NBADD :    0

 CCORT, number vectors added is zero , NBADD :    0

 CCORT, number vectors added is zero , NBADD :    0

 *** MICROITERATIONS STOPPED DUE TO LINEAR DEPENDENCE BETWEEN ALL NEW TRIAL VECTORS
                     0  trial vectors converged
  LINEAR DEPENDENCE BETWEEN                     1  NON CONVERGED TRIAL VECTORS
      4       1         1.33     0.30E-02

 ***  CCEQ_SOL -MICROITERATIONS STOPPED  
     LINEAR DEPENDENCE BETWEEN ALL NEW TRIAL VECTORS
    --------------------------------------
    converged in  4 iterations
    threshold:    0.10E-08


         Routine          Time (min)
         ---------------------------
         CC_TRDRV            5.71
         CCRED               0.04
         CCNEX               0.06
         ---------------------------
         Total time          5.81


  Total CPU  time used in CCEQ_SOLV:  5 minutes 48 seconds
  Total wall time used in CCEQ_SOLV:  6 minutes 24 seconds


 xxxxxxxxxxxxxxxxxxxxxxxxxxxxxxxxxxxxx

 
 Solution of CC response equations completed.
 

 *******************************************************************
 *                                                                 *
 *--------  OUTPUT FROM COUPLED CLUSTER LINEAR RESPONSE   ---------*
 *                                                                 *
 *--------      CALCULATION OF SECOND ORDER RESIDUES      ---------*
 *                                                                 *
 *******************************************************************



                  +---------------------------------------------+
                  ! CC_SOPR: Calculation of CCSD       Residues !
                  +---------------------------------------------+

 Doing the Mf*CsiA
 Doing the Mf*CsiA
 Doing the Mf*CsiA


 CCSD  Right transition moments in atomic units:
 -----------------------------------------------

  1      15.102398  <XDIPLEN |f> =       0.00000000
  1      15.102398  <YDIPLEN |f> =      -0.00000002
  1      15.102398  <ZDIPLEN |f> =       0.00000003


 CCSD  Left  transition moments in atomic units:
 -----------------------------------------------

  1      15.102398  <f|XDIPLEN > =       0.00000000
  1      15.102398  <f|YDIPLEN > =      -0.00000001
  1      15.102398  <f|ZDIPLEN > =       0.00000001


 CCSD  linear response residue property in atomic units:
 -------------------------------------------------------

 RES{<<XDIPLEN ,XDIPLEN >>(15.102398)} =     0.00000000 (   0.00000000)
 RES{<<XDIPLEN ,YDIPLEN >>(15.102398)} =    -0.00000000 (  -0.00000001)
 RES{<<XDIPLEN ,ZDIPLEN >>(15.102398)} =     0.00000000 (   0.00000001)
 RES{<<YDIPLEN ,XDIPLEN >>(15.102398)} =    -0.00000000 (  -0.00000001)
 RES{<<YDIPLEN ,YDIPLEN >>(15.102398)} =     0.00000000 (   0.00000001)
 RES{<<YDIPLEN ,ZDIPLEN >>(15.102398)} =    -0.00000000 (  -0.00000001)
 RES{<<ZDIPLEN ,XDIPLEN >>(15.102398)} =     0.00000000 (   0.00000001)
 RES{<<ZDIPLEN ,YDIPLEN >>(15.102398)} =    -0.00000000 (  -0.00000001)
 RES{<<ZDIPLEN ,ZDIPLEN >>(15.102398)} =     0.00000000 (   0.00000002)


 CCSD  Transition strength matrix for state nr.  1 of symmetry 1
 CCSD  excitation energy:15.10239818

 Gauge: length

               Column   1     Column   2     Column   3
       1     5.896613D-18  -2.502688D-17   5.087089D-17
       2    -2.502688D-17   1.062189D-16  -2.159007D-16
       3     5.087089D-17  -2.159007D-16   4.388274D-16
    ==== End of matrix output ====

 Principal values of diagonalized transition strength matrix:

             a.u.               
 1       0.00000000
 2       0.00000000
 3       0.00000000

 Principal axis of diagonalized transition strength matrix:


               Column   1     Column   2     Column   3
       1       1.00000000     0.00000000     0.00000000
       2       0.00000000     1.00000000     0.00000000
       3       0.00000000     0.00000000     1.00000000
    ==== End of matrix output ====


 CCSD   oscillator strength matrix for state nr.  1 of symmetry 1
 CCSD  excitation energy:15.10239818


               Column   1     Column   2     Column   3
       1     5.936866D-17  -2.519772D-16   5.121816D-16
       2    -2.519772D-16   1.069440D-15  -2.173746D-15
       3     5.121816D-16  -2.173746D-15   4.418230D-15
    ==== End of matrix output ====

 Principal values of diagonalized oscillator strength matrix:

             a.u.               
 1       0.00000000
 2       0.00000000
 3       0.00000000

 Principal axis of diagonalized oscillator strength matrix:


               Column   1     Column   2     Column   3
       1       1.00000000     0.00000000     0.00000000
       2       0.00000000     1.00000000     0.00000000
       3       0.00000000     0.00000000     1.00000000
    ==== End of matrix output ====

  Total time for      9 linear response residues:       3.09 seconds.
  

 *******************************************************************************
 *******************************************************************************
 *                                                                             *
 *                                                                             *
 *                   SUMMARY OF COUPLED CLUSTER CALCULATION                    *
 *                                                                             *
 *                                                                             *
 *******************************************************************************
 *******************************************************************************

                                                                                
                                                                                
            Total SCF   energy:                  -361.2071244557                
            Total MP2   energy:                  -362.3173815649                
            Total CCSD  energy:                  -362.3577138996                
                                                                                
                                                                                
            Total SCF   energy:                  -361.2071244557                
            Total RSTAR energy:                  -362.3577138996                
            Total CCSD  energy:                  -362.3578547613                
                                                                                
                                                                                
            Total SCF   energy:                  -361.2071244557                
            Total RSTAR energy:                  -362.3578547613                
            Total CCSD  energy:                  -362.3578549080                
                                                                                
                                                                                
            Total SCF   energy:                  -361.2071244557                
            Total RSTAR energy:                  -362.3578549080                
            Total CCSD  energy:                  -362.3578549844                
                                                                                
                                                                                
            Total SCF   energy:                  -361.2071244557                
            Total RSTAR energy:                  -362.3578549844                
            Total CCSD  energy:                  -362.3578549855                
                                                                                
                                                                                
            Total SCF   energy:                  -361.2071244557                
            Total RSTAR energy:                  -362.3578549855                
            Total CCSD  energy:                  -362.3578549855                
            CCSD Total  energy:                  -362.7703545767                
            CCSD E(QM/MM)     :                    -0.4084721583                
                                                                                
                                                                                
                                                                                
 +=============================================================================+
 |  sym. | Exci.  |        CCSD       Excitation energies            | ||T1||  |
 |(spin, |        +------------------------------------------------------------+
 | spat) |        |     Hartree    |       eV.      |     cm-1       |    %    |
 +=============================================================================+
 | ^1A   |    1   |    15.1023982  |     410.95716  |   3314593.244  |  88.12  |
 +=============================================================================+
                                                                                
                                                                                
     Total energies in Hartree:                                                 
             1 ^1A       -347.2594842341                                        
                                                                                
                                                                                
 +=============================================================================+
 |  sym. | Exci.  |        CCSD       Length   Gauge Oscillator Strength       |
 |(spin, |        +------------------------------------------------------------+
 | spat) |        | Dipole Strength(a.u.) | Oscillator strength  | Direction   |
 +=============================================================================+
 | ^1A   |    1   |        0.0000000      |      0.0000000       |    -        |
 +=============================================================================+

  1 a.u. =        27.21138 eV.  
  1 a.u. =    219474.62934 cm-1.
  

 *******************************************************************************
 *******************************************************************************
 *                                                                             *
 *                                                                             *
 *                      END OF COUPLED CLUSTER CALCULATION                     *
 *                                                                             *
 *                                                                             *
 *******************************************************************************
 *******************************************************************************


 CPU and wall time for CC :    6771.230    8656.661

 
     Date and time (Linux)  : Mon Dec  3 15:09:17 2018
     Host name              : n-62-29-4                               


                      .-------------------------------------.
                      | End of Coupled Cluster Section (CC) |
                      `-------------------------------------'

  Total CPU  time used in DALTON:   1 hour  55 minutes  1 second 
  Total wall time used in DALTON:   2 hours 27 minutes 34 seconds

 
     Date and time (Linux)  : Mon Dec  3 15:09:17 2018
     Host name              : n-62-29-4                               
  

 +---------------------------------------------------------+ 
 | List of selected calculated molecular properties (a.u.) | 
 +---------------------------------------------------------+ 

  Properties are read from unit number                      4

 CCSD       properties :
 #  1 1 CCSD/MM  Ground state Energy =    -362.7703545767
 #  2 1 E_QM/MM  Ground state Energy =      -0.4084721583
 #  3 1 Sy: 1 Sp: 1 Exc:  1 E_tot:   -347.2594842341 w:     15.1023981843 E_grs:   -362.3618824184
 #  4 1 Exctot   Excited state Energy =    -347.2594842341
 #  5 1 |<O|XDIPLEN |i(15.102398)>| =     0.00000000
 #  7 1 |<O|YDIPLEN |i(15.102398)>| =     0.00000001
 #  9 1 |<O|ZDIPLEN |i(15.102398)>| =     0.00000002

 THE_END   
