

     ************************************************************************
     *************** Dalton - An Electronic Structure Program ***************
     ************************************************************************

    This is output from DALTON release Dalton2017.alpha (2016)
         ( Web site: http://daltonprogram.org )

   ----------------------------------------------------------------------------

    NOTE:
     
    Dalton is an experimental code for the evaluation of molecular
    properties using (MC)SCF, DFT, CI, and CC wave functions.
    The authors accept no responsibility for the performance of
    the code or for the correctness of the results.
     
    The code (in whole or part) is provided under a licence and
    is not to be reproduced for further distribution without
    the written permission of the authors or their representatives.
     
    See the home page "http://daltonprogram.org" for further information.
     
    If results obtained with this code are published,
    the appropriate citations would be both of:
     
       K. Aidas, C. Angeli, K. L. Bak, V. Bakken, R. Bast,
       L. Boman, O. Christiansen, R. Cimiraglia, S. Coriani,
       P. Dahle, E. K. Dalskov, U. Ekstroem,
       T. Enevoldsen, J. J. Eriksen, P. Ettenhuber, B. Fernandez,
       L. Ferrighi, H. Fliegl, L. Frediani, K. Hald, A. Halkier,
       C. Haettig, H. Heiberg, T. Helgaker, A. C. Hennum,
       H. Hettema, E. Hjertenaes, S. Hoest, I.-M. Hoeyvik,
       M. F. Iozzi, B. Jansik, H. J. Aa. Jensen, D. Jonsson,
       P. Joergensen, J. Kauczor, S. Kirpekar,
       T. Kjaergaard, W. Klopper, S. Knecht, R. Kobayashi, H. Koch,
       J. Kongsted, A. Krapp, K. Kristensen, A. Ligabue,
       O. B. Lutnaes, J. I. Melo, K. V. Mikkelsen, R. H. Myhre,
       C. Neiss, C. B. Nielsen, P. Norman, J. Olsen,
       J. M. H. Olsen, A. Osted, M. J. Packer, F. Pawlowski,
       T. B. Pedersen, P. F. Provasi, S. Reine, Z. Rinkevicius,
       T. A. Ruden, K. Ruud, V. Rybkin, P. Salek, C. C. M. Samson,
       A. Sanchez de Meras, T. Saue, S. P. A. Sauer,
       B. Schimmelpfennig, K. Sneskov, A. H. Steindal,
       K. O. Sylvester-Hvid, P. R. Taylor, A. M. Teale,
       E. I. Tellgren, D. P. Tew, A. J. Thorvaldsen, L. Thoegersen,
       O. Vahtras, M. A. Watson, D. J. D. Wilson, M. Ziolkowski
       and H. Agren,
       "The Dalton quantum chemistry program system",
       WIREs Comput. Mol. Sci. 2014, 4:269–284 (doi: 10.1002/wcms.1172)
     
    and
     
       Dalton, a Molecular Electronic Structure Program,
       Release Dalton2017.alpha (2016), see http://daltonprogram.org
   ----------------------------------------------------------------------------

    Authors in alphabetical order (major contribution(s) in parenthesis):

  Kestutis Aidas,           Vilnius University,           Lithuania   (QM/MM)
  Celestino Angeli,         University of Ferrara,        Italy       (NEVPT2)
  Keld L. Bak,              UNI-C,                        Denmark     (AOSOPPA, non-adiabatic coupling, magnetic properties)
  Vebjoern Bakken,          University of Oslo,           Norway      (DALTON; geometry optimizer, symmetry detection)
  Radovan Bast,             UiT The Arctic U. of Norway,  Norway      (DALTON installation and execution frameworks)
  Pablo Baudin,             University of Valencia,       Spain       (Cholesky excitation energies)
  Linus Boman,              NTNU,                         Norway      (Cholesky decomposition and subsystems)
  Ove Christiansen,         Aarhus University,            Denmark     (CC module)
  Renzo Cimiraglia,         University of Ferrara,        Italy       (NEVPT2)
  Sonia Coriani,            University of Trieste,        Italy       (CC module, MCD in RESPONS)
  Janusz Cukras,            University of Trieste,        Italy       (MChD in RESPONS)
  Paal Dahle,               University of Oslo,           Norway      (Parallelization)
  Erik K. Dalskov,          UNI-C,                        Denmark     (SOPPA)
  Thomas Enevoldsen,        Univ. of Southern Denmark,    Denmark     (SOPPA)
  Janus J. Eriksen,         Aarhus University,            Denmark     (Polarizable embedding model, TDA)
  Rasmus Faber,             University of Copenhagen,     Denmark     (Vib.avg. NMR with SOPPA, parallel AO-SOPPA)
  Berta Fernandez,          U. of Santiago de Compostela, Spain       (doublet spin, ESR in RESPONS)
  Lara Ferrighi,            Aarhus University,            Denmark     (PCM Cubic response)
  Heike Fliegl,             University of Oslo,           Norway      (CCSD(R12))
  Luca Frediani,            UiT The Arctic U. of Norway,  Norway      (PCM)
  Bin Gao,                  UiT The Arctic U. of Norway,  Norway      (Gen1Int library)
  Christof Haettig,         Ruhr-University Bochum,       Germany     (CC module)
  Kasper Hald,              Aarhus University,            Denmark     (CC module)
  Asger Halkier,            Aarhus University,            Denmark     (CC module)
  Frederik Beyer Hansen,    University of Copenhagen,     Denmark     (Parallel AO-SOPPA)
  Erik D. Hedegaard,        Univ. of Southern Denmark,    Denmark     (Polarizable embedding model, QM/MM)
  Hanne Heiberg,            University of Oslo,           Norway      (geometry analysis, selected one-electron integrals)
  Trygve Helgaker,          University of Oslo,           Norway      (DALTON; ABACUS, ERI, DFT modules, London, and much more)
  Alf Christian Hennum,     University of Oslo,           Norway      (Parity violation)
  Hinne Hettema,            University of Auckland,       New Zealand (quadratic response in RESPONS; SIRIUS supersymmetry)
  Eirik Hjertenaes,         NTNU,                         Norway      (Cholesky decomposition)
  Pi A. B. Haase,           University of Copenhagen,     Denmark     (Triplet AO-SOPPA)
  Maria Francesca Iozzi,    University of Oslo,           Norway      (RPA)
  Brano Jansik              Technical Univ. of Ostrava    Czech Rep.  (DFT cubic response)
  Hans Joergen Aa. Jensen,  Univ. of Southern Denmark,    Denmark     (DALTON; SIRIUS, RESPONS, ABACUS modules, London, and much more)
  Dan Jonsson,              UiT The Arctic U. of Norway,  Norway      (cubic response in RESPONS module)
  Poul Joergensen,          Aarhus University,            Denmark     (RESPONS, ABACUS, and CC modules)
  Maciej Kaminski,          University of Warsaw,         Poland      (CPPh in RESPONS)
  Joanna Kauczor,           Linkoeping University,        Sweden      (Complex polarization propagator (CPP) module)
  Sheela Kirpekar,          Univ. of Southern Denmark,    Denmark     (Mass-velocity & Darwin integrals)
  Wim Klopper,              KIT Karlsruhe,                Germany     (R12 code in CC, SIRIUS, and ABACUS modules)
  Stefan Knecht,            ETH Zurich,                   Switzerland (Parallel CI and MCSCF)
  Rika Kobayashi,           Australian National Univ.,    Australia   (DIIS in CC, London in MCSCF)
  Henrik Koch,              NTNU,                         Norway      (CC module, Cholesky decomposition)
  Jacob Kongsted,           Univ. of Southern Denmark,    Denmark     (Polarizable embedding model, QM/MM)
  Andrea Ligabue,           University of Modena,         Italy       (CTOCD, AOSOPPA)
  Nanna H. List             Univ. of Southern Denmark,    Denmark     (Polarizable embedding model)
  Ola B. Lutnaes,           University of Oslo,           Norway      (DFT Hessian)
  Juan I. Melo,             University of Buenos Aires,   Argentina   (LRESC, Relativistic Effects on NMR Shieldings)
  Kurt V. Mikkelsen,        University of Copenhagen,     Denmark     (MC-SCRF and QM/MM)
  Rolf H. Myhre,            NTNU,                         Norway      (Cholesky, subsystems and ECC2)
  Christian Neiss,          Univ. Erlangen-Nuernberg,     Germany     (CCSD(R12))
  Christian B. Nielsen,     University of Copenhagen,     Denmark     (QM/MM)
  Patrick Norman,           Linkoeping University,        Sweden      (Cubic response and complex frequency response in RESPONS)
  Jeppe Olsen,              Aarhus University,            Denmark     (SIRIUS CI/density modules)
  Jogvan Magnus H. Olsen,   Univ. of Southern Denmark,    Denmark     (Polarizable embedding model, QM/MM)
  Anders Osted,             Copenhagen University,        Denmark     (QM/MM)
  Martin J. Packer,         University of Sheffield,      UK          (SOPPA)
  Filip Pawlowski,          Kazimierz Wielki University,  Poland      (CC3)
  Morten N. Pedersen,       Univ. of Southern Denmark,    Denmark     (Polarizable embedding model)
  Thomas B. Pedersen,       University of Oslo,           Norway      (Cholesky decomposition)
  Patricio F. Provasi,      University of Northeastern,   Argentina   (Analysis of coupling constants in localized orbitals)
  Zilvinas Rinkevicius,     KTH Stockholm,                Sweden      (open-shell DFT, ESR)
  Elias Rudberg,            KTH Stockholm,                Sweden      (DFT grid and basis info)
  Torgeir A. Ruden,         University of Oslo,           Norway      (Numerical derivatives in ABACUS)
  Kenneth Ruud,             UiT The Arctic U. of Norway,  Norway      (DALTON; ABACUS magnetic properties and much more)
  Pawel Salek,              KTH Stockholm,                Sweden      (DALTON; DFT code)
  Claire C. M. Samson       University of Karlsruhe       Germany     (Boys localization, r12 integrals in ERI)
  Alfredo Sanchez de Meras, University of Valencia,       Spain       (CC module, Cholesky decomposition)
  Trond Saue,               Paul Sabatier University,     France      (direct Fock matrix construction)
  Stephan P. A. Sauer,      University of Copenhagen,     Denmark     (SOPPA(CCSD), SOPPA prop., AOSOPPA, vibrational g-factors)
  Bernd Schimmelpfennig,    Forschungszentrum Karlsruhe,  Germany     (AMFI module)
  Kristian Sneskov,         Aarhus University,            Denmark     (Polarizable embedding model, QM/MM)
  Arnfinn H. Steindal,      UiT The Arctic U. of Norway,  Norway      (parallel QM/MM, Polarizable embedding model)
  Casper Steinmann,         Univ. of Southern Denmark,    Denmark     (QFIT, Polarizable embedding model)
  K. O. Sylvester-Hvid,     University of Copenhagen,     Denmark     (MC-SCRF)
  Peter R. Taylor,          VLSCI/Univ. of Melbourne,     Australia   (Symmetry handling ABACUS, integral transformation)
  Andrew M. Teale,          University of Nottingham,     England     (DFT-AC, DFT-D)
  David P. Tew,             University of Bristol,        England     (CCSD(R12))
  Olav Vahtras,             KTH Stockholm,                Sweden      (triplet response, spin-orbit, ESR, TDDFT, open-shell DFT)
  David J. Wilson,          La Trobe University,          Australia   (DFT Hessian and DFT magnetizabilities)
  Hans Agren,               KTH Stockholm,                Sweden      (SIRIUS module, RESPONS, MC-SCRF solvation model)
 --------------------------------------------------------------------------------

     Date and time (Linux)  : Wed Nov 28 21:23:24 2018
     Host name              : n-62-23-19                              

 * Work memory size             :  1280000000 =  9.537 gigabytes.

 * Directories for basis set searches:
   1) /zhome/d7/7/119775/My_Codes/dalton-private/build2016/basis/diffs
   2) /zhome/37/3/129401/NH3NH4/CCSD/AIMD_SAMPLING/nh4_4h2o_nd
   3) /zhome/9a/4/124800/source/dalton/build-mlcc/basis


Compilation information
-----------------------

 Who compiled             | rfaber
 Host                     | hpclogin1
 System                   | Linux-2.6.32-696.1.1.el6.x86_64
 CMake generator          | Unix Makefiles
 Processor                | x86_64
 64-bit integers          | ON
 MPI                      | OFF
 Fortran compiler         | /opt/intel/2016update2/compilers_and_libraries_201
                          | 6.2.181/linux/bin/intel64/ifort
 Fortran compiler version | ifort (IFORT) 16.0.2 20160204
 C compiler               | /opt/intel/2016update2/compilers_and_libraries_201
                          | 6.2.181/linux/bin/intel64/icc
 C compiler version       | icc (ICC) 16.0.2 20160204
 C++ compiler             | /opt/intel/2016update2/compilers_and_libraries_201
                          | 6.2.181/linux/bin/intel64/icpc
 C++ compiler version     | icpc (ICC) 16.0.2 20160204
 Static linking           | OFF
 Last Git revision        | bb4d1599ca5680a9f3980451fc8bbefdba436d59
 Git branch               | mlcc
 Configuration time       | 2017-06-13 16:11:03.928841


   Content of the .dal input file
 ----------------------------------

**DALTON
.RUN WAVE FUNCTIONS
*QMMM
.QMMM
**INTEGRALS
.DIPLEN
**WAVE FUNCTIONS
.CC
*PRINT
!To check the origin of excit
.PRINTL
   0 11
*SCF INP
.THRESH
1.0D-7
!*ORBITAL INPUT
!.MOSTART
!NEWORB
*CC INP
!.RESTART
.CCSD
.THRLEQ
 1.0D-9
.THRENR
 1.0D-10
.FROIMP
4
0
.PRINT
 1
.MAX IT
 1200
.MAXRED
 1200
.MXLRV
1199
*CCSLV
.CCMM
.MXSLIT
200
.MXINIT
4 5
*CCEXCI
.NCCEXC
 1
.IONISATION
1
1
.CVSEPARA
1
1
*CCLRSD
.DIPOLE
**END OF DALTON INPUT


   Content of the .mol file
 ----------------------------

ATOMBASIS


Atomtypes=5 Charge=1 Nosymm Angstrom
   7.00000    1    Basis=6-311G**
N          0.000000        0.000000        0.000000
   1.00000    4    Basis=6-311G**
H         -0.228244        0.847465       -0.599269
H          0.990568       -0.256388       -0.287004
H         -0.721529       -0.665502       -0.336066
H         -0.057381        0.095245        1.007669
   8.00000    4    Basis=6-311G**
O         -2.015522       -1.269841       -1.200364
O         -1.114867        1.994247       -1.682823
O         -0.514149       -0.877980        2.732826
O          2.405295       -1.528956       -0.835900
   1.00000    8    Basis=6-311G**
H         -2.615441       -1.954536       -0.850135
H         -2.644318       -0.525578       -1.311836
H         -0.511168        1.608587       -2.484361
H         -1.888933        2.419209       -1.936056
H         -0.165147       -1.784801        2.818133
H          0.124282       -0.338887        3.235845
H          2.299636       -2.398151       -0.385276
H          3.312568       -1.247774       -0.771075
   0.00000    1    Basis=diffs
X          0.000000        0.000000        0.000000


       *******************************************************************
       *********** Output from DALTON general input processing ***********
       *******************************************************************

 --------------------------------------------------------------------------------
   Overall default print level:    0
   Print level for DALTON.STAT:    1

    HERMIT 1- and 2-electron integral sections will be executed
    "Old" integral transformation used (limited to max 255 basis functions)
    Wave function sections will be executed (SIRIUS module)
 --------------------------------------------------------------------------------


 Changes of defaults for *QMMM  :
 --------------------------------

 +------------------+
 |  WORD: | CHANGE: |
 +------------------+
 |   QMMM |       T |
 +------------------+
 


   ****************************************************************************
   *************** Output of molecule and basis set information ***************
   ****************************************************************************


    The two title cards from your ".mol" input:
    ------------------------------------------------------------------------
 1:                                                                         
 2:                                                                         
    ------------------------------------------------------------------------

  Coordinates are entered in Angstrom and converted to atomic units.
          - Conversion factor : 1 bohr = 0.52917721 A

  Atomic type no.    1
  --------------------
  Nuclear charge:   7.00000
  Number of symmetry independent centers:    1
  Number of basis sets to read;    2
  The basis set is "6-311G**" from the basis set library.
  Basis set file used for this atomic type with Z =   7 :
     "/zhome/9a/4/124800/source/dalton/build-mlcc/basis/6-311G**"

  Info about the basis set file: your basis has no documentation.
  Basis set: 6-311G**                                                                        

  Atomic type no.    2
  --------------------
  Nuclear charge:   1.00000
  Number of symmetry independent centers:    4
  Number of basis sets to read;    2
  The basis set is "6-311G**" from the basis set library.
  Basis set file used for this atomic type with Z =   1 :
     "/zhome/9a/4/124800/source/dalton/build-mlcc/basis/6-311G**"

  Info about the basis set file: your basis has no documentation.
  Basis set: 6-311G**                                                                        

  Atomic type no.    3
  --------------------
  Nuclear charge:   8.00000
  Number of symmetry independent centers:    4
  Number of basis sets to read;    2
  The basis set is "6-311G**" from the basis set library.
  Basis set file used for this atomic type with Z =   8 :
     "/zhome/9a/4/124800/source/dalton/build-mlcc/basis/6-311G**"

  Info about the basis set file: your basis has no documentation.
  Basis set: 6-311G**                                                                        

  Atomic type no.    4
  --------------------
  Nuclear charge:   1.00000
  Number of symmetry independent centers:    8
  Number of basis sets to read;    2
  The basis set is "6-311G**" from the basis set library.
  Basis set file used for this atomic type with Z =   1 :
     "/zhome/9a/4/124800/source/dalton/build-mlcc/basis/6-311G**"

  Info about the basis set file: your basis has no documentation.
  Basis set: 6-311G**                                                                        

  Atomic type no.    5
  --------------------
  Nuclear charge:   0.00000
  Number of symmetry independent centers:    1
  Number of basis sets to read;    2
  The basis set is "diffs" from the basis set library.
  Basis set file used for this atomic type with Z =   0 :
     "/zhome/9a/4/124800/source/dalton/build-mlcc/basis/diffs"

  Info about the basis set file: your basis has no documentation.
  Basis set: diffs                                                                           


                         SYMGRP: Point group information
                         -------------------------------

@    Point group: C1 


                                 Isotopic Masses
                                 ---------------

                           N          14.003074
                           H           1.007825
                           H           1.007825
                           H           1.007825
                           H           1.007825
                           O          15.994915
                           O          15.994915
                           O          15.994915
                           O          15.994915
                           H           1.007825
                           H           1.007825
                           H           1.007825
                           H           1.007825
                           H           1.007825
                           H           1.007825
                           H           1.007825
                           H           1.007825

                       Total mass:    90.076634 amu
                       Natural abundance:  98.500 %

 Center-of-mass coordinates (a.u.):   -0.460348   -0.653413   -0.371109


  Atoms and basis sets
  --------------------

  Number of atom types :    5
  Total number of atoms:   18

  label    atoms   charge   prim   cont     basis
  ----------------------------------------------------------------------
  N           1    7.0000    31    18      [11s5p1d|4s3p1d]                                   
  H           4    1.0000     8     6      [5s1p|3s1p]                                        
  O           4    8.0000    31    18      [11s5p1d|4s3p1d]                                   
  H           8    1.0000     8     6      [5s1p|3s1p]                                        
  X           1    0.0000     1     1      [1s|1s]                                            
  ----------------------------------------------------------------------
  total:     18   51.0000   252   163
  ----------------------------------------------------------------------
  Spherical harmonic basis used.

  Threshold for neglecting AO integrals:  1.00D-12


  Cartesian Coordinates (a.u.)
  ----------------------------

  Total number of coordinates:   54
  N       :     1  x   0.0000000000    2  y   0.0000000000    3  z   0.0000000000
  H       :     4  x  -0.4313186497    5  y   1.6014767505    6  z  -1.1324542852
  H       :     7  x   1.8719022282    8  y  -0.4845031017    9  z  -0.5423589568
  H       :    10  x  -1.3634922012   11  y  -1.2576165156   12  z  -0.6350726999
  H       :    13  x  -0.1084343748   14  y   0.1799869648   15  z   1.9042184346
  O       :    16  x  -3.8087845789   17  y  -2.3996517123   18  z  -2.2683592103
  O       :    19  x  -2.1067932958   20  y   3.7685806556   21  z  -3.1800745868
  O       :    22  x  -0.9716007974   23  y  -1.6591417432   24  z   5.1642926873
  O       :    25  x   4.5453487998   26  y  -2.8893080972   27  z  -1.5796220679
  H       :    28  x  -4.9424671861   29  y  -3.6935377414   30  z  -1.6065223193
  H       :    31  x  -4.9970368074   32  y  -0.9931984773   33  z  -2.4790107609
  H       :    34  x  -0.9659675239   35  y   3.0397888782   36  z  -4.6947618856
  H       :    37  x  -3.5695660385   38  y   4.5716424491   39  z  -3.6586156027
  H       :    40  x  -0.3120826004   41  y  -3.3727850776   42  z   5.3254995538
  H       :    43  x   0.2348589423   44  y  -0.6404036173   45  z   6.1148608329
  H       :    46  x   4.3456822272   47  y  -4.5318485964   48  z  -0.7280661225
  H       :    49  x   6.2598462904   50  y  -2.3579511259   51  z  -1.4571205718
  X       :    52  x   0.0000000000   53  y   0.0000000000   54  z   0.0000000000

  Max    interatomic separation is    6.5763 Angstrom (   12.4274 Bohr)
  between atoms   14 and   13, "H     " and "H     ".

  Min HX interatomic separation is    0.9186 Angstrom (    1.7360 Bohr)

  Min YX interatomic separation is    2.6675 Angstrom (    5.0409 Bohr)


  Bond distances (Angstrom):
  --------------------------

                  atom 1     atom 2       distance
                  ------     ------       --------
  bond distance:  H          N            1.062740
  bond distance:  H          N            1.062700
  bond distance:  H          N            1.037515
  bond distance:  H          N            1.013785
  bond distance:  H          O            0.975382
  bond distance:  H          O            0.980682
  bond distance:  H          O            1.075011
  bond distance:  H          O            0.918639
  bond distance:  H          O            0.975399
  bond distance:  H          O            0.975317
  bond distance:  H          O            0.984747
  bond distance:  H          O            0.952056


  Bond angles (degrees):
  ----------------------

                  atom 1     atom 2     atom 3         angle
                  ------     ------     ------         -----
  bond angle:     H          N          H            103.904
  bond angle:     H          N          H            100.340
  bond angle:     H          N          H            118.256
  bond angle:     H          N          H            113.954
  bond angle:     H          N          H            110.113
  bond angle:     H          N          H            110.051
  bond angle:     H          O          H            100.323
  bond angle:     H          O          H            115.697
  bond angle:     H          O          H            103.565
  bond angle:     H          O          H            109.377




 Principal moments of inertia (u*A**2) and principal axes
 --------------------------------------------------------

   IA     299.229414          0.535206   -0.531706    0.656386
   IB     390.935177          0.743687   -0.071920   -0.664648
   IC     497.545406          0.400605    0.843870    0.356931


 Rotational constants
 --------------------

               A                   B                   C

           1688.9349           1292.7437           1015.7445 MHz
            0.056337            0.043121            0.033882 cm-1


@  Nuclear repulsion energy :  202.279721706080 Hartree

  Number of floating/multiple basis set orbitals :    1


                     .---------------------------------------.
                     | Starting in Integral Section (HERMIT) |
                     `---------------------------------------'



 ***************************************************************************************
 ****************** Output from **INTEGRALS input processing (HERMIT) ******************
 ***************************************************************************************



    *************************************************************************
    ****************** Output from HERMIT input processing ******************
    *************************************************************************


 Default print level:        1

 * Nuclear model: Point charge

 Calculation of one- and two-electron Hamiltonian integrals.

 The following one-electron property integrals are calculated as requested:
          - overlap integrals
          - dipole length integrals

 Center of mass  (bohr):     -0.460347728893     -0.653412937010     -0.371108728164
 Operator center (bohr):      0.000000000000      0.000000000000      0.000000000000
 Gauge origin    (bohr):      0.000000000000      0.000000000000      0.000000000000
 Dipole origin   (bohr):      0.000000000000      0.000000000000      0.000000000000
 
  *********************************** 
  QMMM electrostatic potential: 
  Multipole order                                    0
  Isotropic polarization  
  *********************************** 
 
  ---------------- 
  QMMM information 
  ---------------- 
 
  MM coordinates in au 
  -------------------- 
     1      1.612859      2.168888     -6.285412
     2      2.313482      0.493177     -6.613051
     3      2.875383      3.285706     -5.433881
     4     10.368083      7.557531     -9.053859
     5      8.783730      8.518746     -9.273625
     6      9.956557      5.739588     -8.780616
     7      5.386135      5.769821     -5.129251
     8      6.243083      6.824232     -3.832937
     9      6.870678      4.867337     -5.872804
    10      8.053229      8.401711     -1.837876
    11      8.415385      7.652625     -0.215459
    12      9.627136      8.795375     -2.600414
    13    -10.231130     -7.720650     -9.118040
    14     -9.022894     -9.036789     -9.613364
    15     -9.249973     -6.156646     -9.505801
    16      5.545333      2.136042      1.303609
    17      5.131587      4.004350      1.592245
    18      7.356383      2.050988      1.127439
    19    -11.093599      9.365326     -4.477744
    20    -11.963782      9.196396     -6.254650
    21    -10.367740     11.184968     -4.413436
    22     -1.952165    -10.408765      1.242542
    23     -1.378139    -12.142936      0.980018
    24     -2.800317    -10.326134      2.931370
    25      6.821972     -1.362247     -9.290553
    26      5.702160     -2.253032     -8.099049
    27      8.076376     -2.468528     -9.977839
    28      7.139429      9.994336      4.723781
    29      8.654167     10.920402      4.065778
    30      7.918699      8.945400      6.107368
    31     -0.641441      5.838983     -9.773913
    32     -1.493830      5.248433    -11.436254
    33      0.163331      4.287675     -9.019956
    34     -7.949609      1.229760     -1.767172
    35     -8.740605      0.834473     -0.069088
    36     -8.088631      3.126355     -1.878284
    37      7.879708    -10.153181     -8.914711
    38      9.653885     -9.510674     -8.633851
    39      6.989447     -9.918260     -7.304122
    40      3.107443     -3.184387     -6.250547
    41      2.208260     -4.746988     -6.606590
    42      3.662662     -3.060644     -4.454544
    43    -11.073967     -0.813028     -5.658651
    44     -9.772273     -1.763205     -6.674927
    45    -10.255358     -0.011106     -4.051939
    46     10.262676     -8.091437     -1.146523
    47      9.022838     -8.976243     -2.125326
    48      9.840809     -6.316274     -1.275282
    49     10.790958      5.735587      2.141498
    50     12.156020      6.991373      1.738985
    51     10.487177      5.870810      4.076234
    52      5.218607     11.670127      9.784683
    53      3.952423     10.584245      8.695599
    54      5.601549     10.833106     11.381803
    55    -11.297276      0.873940      2.132061
    56    -11.089897      0.011123      3.741144
    57    -11.643842      2.775979      2.311490
    58      0.420538     11.039217     -6.178420
    59      1.523102     10.180403     -7.379689
    60     -1.352825     10.520323     -6.668949
    61     -5.817977      0.391827     10.937937
    62     -4.208086      0.106314     11.879342
    63     -5.696644     -1.211898      9.801771
    64     -4.749182     -4.028896      8.391843
    65     -3.607389     -3.137892      7.227811
    66     -3.977135     -5.286428      9.369245
    67     -8.927355     -9.230802     -4.181716
    68     -9.064323     -8.386123     -5.802138
    69    -10.628982     -8.581337     -3.255395
    70     -4.397704      8.305887     -7.196648
    71     -5.567487      7.613871     -5.894324
    72     -3.907867      6.856663     -8.286899
    73      9.479545     -4.842113     10.844027
    74     10.106278     -3.577675      9.532327
    75     10.789790     -6.229739     10.890749
    76     -2.662560     -7.843229     10.715820
    77     -3.861058     -9.091720     11.366438
    78     -1.484316     -7.593989     12.134255
    79      3.809677      6.829727      2.059594
    80      4.884417      8.318421      2.328634
    81      2.667906      7.236234      0.679865
    82     -3.117836     -3.952232     -7.457470
    83     -1.798953     -5.419353     -7.588645
    84     -3.103612     -3.294033     -5.624811
    85      5.964595     -1.760320      5.611746
    86      5.466350     -0.597989      4.143589
    87      4.623481     -1.352609      6.842158
    88      4.168488     -7.011370    -11.389973
    89      4.286343     -8.440484    -12.450878
    90      6.061778     -6.672581    -11.175674
    91      3.126578     -2.338092     10.226533
    92      2.911964     -4.221223     10.151065
    93      4.336980     -2.121707     11.654833
    94      6.283661      4.365018     10.706175
    95      5.273107      5.792440     11.383945
    96      5.357506      2.903033     11.234985
    97     -6.599073      7.505593      6.634794
    98     -8.065842      7.979057      7.705861
    99     -5.698981      6.032680      7.479434
   100     -6.812230     -7.245862      4.542225
   101     -6.248971     -6.848539      2.811446
   102     -6.176162     -5.905165      5.701256
   103     -6.332342    -11.183919    -10.728924
   104     -7.432159    -12.357949    -11.670295
   105     -5.674768    -12.322258     -9.343804
   106     10.562936    -10.016015      8.998655
   107      8.861848    -10.555122      9.048026
   108     10.962256     -9.634069      7.128319
   109    -10.053326      9.756958     10.355234
   110    -11.127730      8.849982     11.681690
   111    -11.152238     11.088711      9.586671
   112     -5.634011     -6.989194     -0.702653
   113     -4.025827     -7.976708     -0.724317
   114     -6.635008     -7.922560     -1.990294
   115     10.801240     -1.402164      7.386250
   116     10.847463     -0.075744      8.585375
   117      9.038707     -1.087847      6.877284
   118      5.982346     -6.731781      4.465285
   119      7.028260     -7.777829      5.633030
   120      6.326622     -4.903599      4.817711
   121      1.553370      9.789469      6.819160
   122      2.083160      9.476200      5.106611
   123     -0.119828     10.619673      6.911554
   124      9.920476     -2.942122     -1.333527
   125     10.863658     -1.758424     -0.241422
   126     10.735570     -2.568688     -3.044353
   127     -3.178140      4.181004      8.970216
   128     -1.747267      3.390208      8.037859
   129     -4.094211      2.638827      9.491476
   130    -10.950536      2.539414     10.618590
   131    -11.705166      2.799240     12.233206
   132     -9.226399      2.269083     11.074249
   133      9.370398      2.894138     -7.317399
   134      8.450525      1.344965     -7.700014
   135     10.909270      1.910502     -6.874338
   136      2.135387      2.867642      6.517252
   137      2.365255      4.327426      5.380050
   138      3.023707      3.201706      8.101566
   139     -1.296450     -0.090646    -10.114406
   140      0.033390     -0.634944    -11.158965
   141     -1.926126     -1.465683     -9.014455
   142      0.637151     -6.348524      6.752069
   143      2.428279     -6.967571      6.623951
   144     -0.264983     -7.325693      8.077725
   145      0.528109     -7.727757     -8.142909
   146      0.791113     -9.236104     -7.078903
   147      2.239788     -7.560658     -8.926728
   148     -7.809800     -3.089271     -8.784296
   149     -7.459401     -1.881502    -10.164345
   150     -6.032563     -3.731676     -8.451256
   151      4.080183      7.892241     -9.951483
   152      2.162109      7.488336    -10.235484
   153      4.366248      7.300968     -8.219566
   154     10.221207      6.297724      7.325387
   155      8.869983      5.353320      8.184270
   156     11.574113      5.220423      8.057427
   157      5.729693    -10.676446     -3.523553
   158      4.813618     -9.693125     -2.259149
   159      5.950033    -12.308346     -2.845680
   160      3.404245     -7.725081      0.197801
   161      4.200109     -7.705024      1.953438
   162      1.557495     -7.652782      0.618385
   163    -11.359692    -10.136294      3.613472
   164    -12.055755     -9.440758      2.174294
   165     -9.904599     -9.125947      3.794716
   166     -6.921281      6.538262     -3.051609
   167     -8.603071      7.294505     -3.611257
   168     -6.780832      7.376472     -1.300969
   169     -4.149763    -11.611330      6.238799
   170     -5.080103    -13.150706      6.429096
   171     -5.215347    -10.168255      6.342773
   172     -8.266197      8.580704      1.828714
   173     -8.644654     10.362377      2.045908
   174     -7.574389      7.899373      3.497656
   175     -0.175340      8.546177     -0.949191
   176     -0.928139      6.980703     -1.567649
   177     -0.325396      9.556230     -2.514146
 
  MM charges 
  ---------- 
     1     -0.674440
     2      0.337220
     3      0.337220
     4     -0.674440
     5      0.337220
     6      0.337220
     7     -0.674440
     8      0.337220
     9      0.337220
    10     -0.674440
    11      0.337220
    12      0.337220
    13     -0.674440
    14      0.337220
    15      0.337220
    16     -0.674440
    17      0.337220
    18      0.337220
    19     -0.674440
    20      0.337220
    21      0.337220
    22     -0.674440
    23      0.337220
    24      0.337220
    25     -0.674440
    26      0.337220
    27      0.337220
    28     -0.674440
    29      0.337220
    30      0.337220
    31     -0.674440
    32      0.337220
    33      0.337220
    34     -0.674440
    35      0.337220
    36      0.337220
    37     -0.674440
    38      0.337220
    39      0.337220
    40     -0.674440
    41      0.337220
    42      0.337220
    43     -0.674440
    44      0.337220
    45      0.337220
    46     -0.674440
    47      0.337220
    48      0.337220
    49     -0.674440
    50      0.337220
    51      0.337220
    52     -0.674440
    53      0.337220
    54      0.337220
    55     -0.674440
    56      0.337220
    57      0.337220
    58     -0.674440
    59      0.337220
    60      0.337220
    61     -0.674440
    62      0.337220
    63      0.337220
    64     -0.674440
    65      0.337220
    66      0.337220
    67     -0.674440
    68      0.337220
    69      0.337220
    70     -0.674440
    71      0.337220
    72      0.337220
    73     -0.674440
    74      0.337220
    75      0.337220
    76     -0.674440
    77      0.337220
    78      0.337220
    79     -0.674440
    80      0.337220
    81      0.337220
    82     -0.674440
    83      0.337220
    84      0.337220
    85     -0.674440
    86      0.337220
    87      0.337220
    88     -0.674440
    89      0.337220
    90      0.337220
    91     -0.674440
    92      0.337220
    93      0.337220
    94     -0.674440
    95      0.337220
    96      0.337220
    97     -0.674440
    98      0.337220
    99      0.337220
   100     -0.674440
   101      0.337220
   102      0.337220
   103     -0.674440
   104      0.337220
   105      0.337220
   106     -0.674440
   107      0.337220
   108      0.337220
   109     -0.674440
   110      0.337220
   111      0.337220
   112     -0.674440
   113      0.337220
   114      0.337220
   115     -0.674440
   116      0.337220
   117      0.337220
   118     -0.674440
   119      0.337220
   120      0.337220
   121     -0.674440
   122      0.337220
   123      0.337220
   124     -0.674440
   125      0.337220
   126      0.337220
   127     -0.674440
   128      0.337220
   129      0.337220
   130     -0.674440
   131      0.337220
   132      0.337220
   133     -0.674440
   134      0.337220
   135      0.337220
   136     -0.674440
   137      0.337220
   138      0.337220
   139     -0.674440
   140      0.337220
   141      0.337220
   142     -0.674440
   143      0.337220
   144      0.337220
   145     -0.674440
   146      0.337220
   147      0.337220
   148     -0.674440
   149      0.337220
   150      0.337220
   151     -0.674440
   152      0.337220
   153      0.337220
   154     -0.674440
   155      0.337220
   156      0.337220
   157     -0.674440
   158      0.337220
   159      0.337220
   160     -0.674440
   161      0.337220
   162      0.337220
   163     -0.674440
   164      0.337220
   165      0.337220
   166     -0.674440
   167      0.337220
   168      0.337220
   169     -0.674440
   170      0.337220
   171      0.337220
   172     -0.674440
   173      0.337220
   174      0.337220
   175     -0.674440
   176      0.337220
   177      0.337220
 
  MM isotropic polarizabilities in au 
  ----------------------------------- 
     1      5.739350
     2      2.308390
     3      2.308390
     4      5.739350
     5      2.308390
     6      2.308390
     7      5.739350
     8      2.308390
     9      2.308390
    10      5.739350
    11      2.308390
    12      2.308390
    13      5.739350
    14      2.308390
    15      2.308390
    16      5.739350
    17      2.308390
    18      2.308390
    19      5.739350
    20      2.308390
    21      2.308390
    22      5.739350
    23      2.308390
    24      2.308390
    25      5.739350
    26      2.308390
    27      2.308390
    28      5.739350
    29      2.308390
    30      2.308390
    31      5.739350
    32      2.308390
    33      2.308390
    34      5.739350
    35      2.308390
    36      2.308390
    37      5.739350
    38      2.308390
    39      2.308390
    40      5.739350
    41      2.308390
    42      2.308390
    43      5.739350
    44      2.308390
    45      2.308390
    46      5.739350
    47      2.308390
    48      2.308390
    49      5.739350
    50      2.308390
    51      2.308390
    52      5.739350
    53      2.308390
    54      2.308390
    55      5.739350
    56      2.308390
    57      2.308390
    58      5.739350
    59      2.308390
    60      2.308390
    61      5.739350
    62      2.308390
    63      2.308390
    64      5.739350
    65      2.308390
    66      2.308390
    67      5.739350
    68      2.308390
    69      2.308390
    70      5.739350
    71      2.308390
    72      2.308390
    73      5.739350
    74      2.308390
    75      2.308390
    76      5.739350
    77      2.308390
    78      2.308390
    79      5.739350
    80      2.308390
    81      2.308390
    82      5.739350
    83      2.308390
    84      2.308390
    85      5.739350
    86      2.308390
    87      2.308390
    88      5.739350
    89      2.308390
    90      2.308390
    91      5.739350
    92      2.308390
    93      2.308390
    94      5.739350
    95      2.308390
    96      2.308390
    97      5.739350
    98      2.308390
    99      2.308390
   100      5.739350
   101      2.308390
   102      2.308390
   103      5.739350
   104      2.308390
   105      2.308390
   106      5.739350
   107      2.308390
   108      2.308390
   109      5.739350
   110      2.308390
   111      2.308390
   112      5.739350
   113      2.308390
   114      2.308390
   115      5.739350
   116      2.308390
   117      2.308390
   118      5.739350
   119      2.308390
   120      2.308390
   121      5.739350
   122      2.308390
   123      2.308390
   124      5.739350
   125      2.308390
   126      2.308390
   127      5.739350
   128      2.308390
   129      2.308390
   130      5.739350
   131      2.308390
   132      2.308390
   133      5.739350
   134      2.308390
   135      2.308390
   136      5.739350
   137      2.308390
   138      2.308390
   139      5.739350
   140      2.308390
   141      2.308390
   142      5.739350
   143      2.308390
   144      2.308390
   145      5.739350
   146      2.308390
   147      2.308390
   148      5.739350
   149      2.308390
   150      2.308390
   151      5.739350
   152      2.308390
   153      2.308390
   154      5.739350
   155      2.308390
   156      2.308390
   157      5.739350
   158      2.308390
   159      2.308390
   160      5.739350
   161      2.308390
   162      2.308390
   163      5.739350
   164      2.308390
   165      2.308390
   166      5.739350
   167      2.308390
   168      2.308390
   169      5.739350
   170      2.308390
   171      2.308390
   172      5.739350
   173      2.308390
   174      2.308390
   175      5.739350
   176      2.308390
   177      2.308390


     ************************************************************************
     ************************** Output from HERINT **************************
     ************************************************************************



                      Nuclear contribution to dipole moments
                      --------------------------------------

                 au               Debye          C m (/(10**-30)

      x    -22.71271467       -57.72995866      -192.56641425
      y    -33.37511639       -84.83107885      -282.96602060
      z    -18.49950981       -47.02106074      -156.84537582



 Threshold for neglecting two-electron integrals:  1.00D-12
 HERMIT - Number of two-electron integrals written:    38851626 ( 43.5% )
 HERMIT - Megabytes written:                            444.871

  Time used in TWOINT     is       8.44 seconds
  Total CPU  time used in HERMIT:   8.66 seconds
  Total wall time used in HERMIT:  11.20 seconds


                        .----------------------------------.
                        | End of Integral Section (HERMIT) |
                        `----------------------------------'



                   .--------------------------------------------.
                   | Starting in Wave Function Section (SIRIUS) |
                   `--------------------------------------------'

NCCEXCI for singlet:    1
 CCSD_INPUT: core-val requested
 Requested number of virtual orbs per sym
                     1
 Indices of requested virtual orbs
                     1
 CCSD_INPUT: core-val requested
 Requested number of core orbs per sym
                     1
 Indices of requested core orbs
                     1

 *** Output from Huckel module :

     Using EWMO model:          T
     Using EHT  model:          F
     Number of Huckel orbitals each symmetry:   37

 EWMO - Energy Weighted Maximum Overlap - is a Huckel type method,
        which normally is better than Extended Huckel Theory.
 Reference: Linderberg and Ohrn, Propagators in Quantum Chemistry (Wiley, 1973)

 Huckel EWMO eigenvalues for symmetry :  1
          -20.684931     -20.684838     -20.684722     -20.684513     -15.675462
           -1.821027      -1.624861      -1.609853      -1.589643      -1.491435
           -0.844657      -0.808403      -0.795876      -0.782342      -0.765270
           -0.753563      -0.735743      -0.687679      -0.662512      -0.658317
           -0.633187      -0.612220      -0.578275      -0.570824      -0.557393
           -0.266801      -0.243595      -0.235460      -0.233000      -0.180256
           -0.175544      -0.174099      -0.170590      -0.169005      -0.152079
           -0.140687      -0.137139

 **********************************************************************
 *SIRIUS* a direct, restricted step, second order MCSCF program       *
 **********************************************************************

 
     Date and time (Linux)  : Wed Nov 28 21:23:37 2018
     Host name              : n-62-23-19                              

 Title lines from ".mol" input file:
                                                                             
                                                                             

 Print level on unit LUPRI =   2 is   0
 Print level on unit LUW4  =   2 is  11

@    (Integral direct) CC calculation.

@    This is a combination run starting with
@              a restricted, closed shell Hartree-Fock calculation


 Initial molecular orbitals are obtained according to
 ".MOSTART EWMO  " input option

@    QM part is embedded in an environment :

@         Model: QMMM

     Wave function specification
     ============================

     For the specification of the Coupled Cluster: see later.

@    Wave function type        --- CC ---
@    Number of closed shell electrons          50
@    Number of electrons in active shells       0
@    Total charge of the molecule               1

@    Spin multiplicity and 2 M_S                1         0
@    Total number of symmetries                 1 (point group: C1 )
@    Reference state symmetry                   1 (irrep name : A  )

     Orbital specifications
     ======================
@    Abelian symmetry species          All |    1
@                                          |  A  
                                       --- |  ---
@    Occupied SCF orbitals              25 |   25
@    Secondary orbitals                138 |  138
@    Total number of orbitals          163 |  163
@    Number of basis functions         163 |  163

     Optimization information
     ========================
@    Number of configurations                 1
@    Number of orbital rotations           3450
     ------------------------------------------
@    Total number of variables             3451

     Maximum number of Fock   iterations      0
     Maximum number of DIIS   iterations     60
     Maximum number of QC-SCF iterations     60
     Threshold for SCF convergence     1.00D-07


 Changes of defaults for CC:
 ---------------------------


 -Implicit frozen core calculation
 -Excitation energies calculated
 -One-photon absorption strengths will be calculated
 -Oscillator strengths calculated
  
* Read MO coefficients from SIRIUS.RST with label "NEWORB  " and header info: 28Nov18  REORTHO 


 ***********************************************
 ***** DIIS acceleration of SCF iterations *****
 ***********************************************

 C1-DIIS algorithm; max error vectors =    8
 -----------------------------------------------------------------------------

 *** DIIS iteration number    1
 RDSUPM called. NFMAT, ISYMDM(1:NFMAT)                     1
                     1

Calculating AOSUPINT
     (Precalculated two-electron integrals are transformed to P-supermatrix elements.
      Threshold for discarding integrals :  1.00D-12 )
  CPU  time used in FORMSUP    is   6.27 seconds
  WALL time used in FORMSUP    is  16.33 seconds

 ITDIIS, energy, error norm, change in energy, scr.thr., difden:
@ DIIS iter.   1    -360.205594942        4.04034D+00   -3.60D+02  -20    F

 (DIIS_RED) Control Parameters C2DIIS =         F NEVC =    1


 (DIIS_RED) B matrix:

               Column   1
       1      16.32434095
    ==== End of matrix output ====

 DIIS C vector; C2DIIS = F, LAMBDA = -1.63D+01
    1.000000
* Read MO coefficients from SIRIUS.RST with label "NEWORB  " and header info: 28Nov18  DIIS   1
      Virial theorem: -V/T =      2.002774
@      MULPOP N       0.11; H       0.17; H       0.15; H       0.19; H       0.16; O      -0.58; O      -0.56; O      -0.62; O      -0.59; H       0.31; 
@             H       0.32; H       0.32; H       0.30; H       0.33; H       0.33; H       0.32; H       0.32; 
   1  Level shift: doubly occupied orbital energies shifted by -2.00D-01

 DIIS Fock eigenvalues in symmetry 1
      -20.86873      -20.84636      -20.84499      -20.79508      -16.46280
       -1.73165       -1.68563       -1.67774       -1.66486       -1.60973
       -1.22545       -1.20681       -1.17704       -1.07070       -1.05260
       -1.02582       -1.00069       -0.93212       -0.91577       -0.91301
       -0.89117       -0.87926       -0.87282       -0.84864       -0.82081
       -0.01359       -0.00005        0.04402        0.05620        0.08128
        0.10647        0.12989        0.14326        0.16389        0.17261
        0.19209        0.19902        0.22491        0.24582        0.27272
        0.30105        0.41830        0.42278        0.43510        0.46125
        0.46913        0.48088        0.49529        0.52398        0.56142
        0.66167        0.69598        0.70149        0.80268        0.83973
        0.85354        0.88141        0.90795        0.94324        0.94864
        0.97093        0.98724        0.99617        1.01696        1.03384
        1.06245        1.09323        1.11488        1.20752        1.25324
        1.27945        1.31371        1.32747        1.33353        1.34961
        1.37766        1.39165        1.40304        1.44733        1.50095
        1.51778        1.54146        1.55823        1.57411        1.58862
        1.66994        1.71366        1.71839        1.75134        1.75520
        1.83641        1.86605        1.92658        1.96868        2.06731
        2.09208        2.10453        2.12009        2.13066        2.16492
        2.19737        2.20852        2.21981        2.25002        2.27140
        2.34848        2.43336        2.46981        2.48698        2.49667
        2.57371        2.60353        2.62511        2.63632        2.67629
        2.69150        2.71323        2.73843        2.74674        2.94426
        3.01067        3.04918        3.08512        3.27827        3.28764
        3.33058        3.35879        3.36886        3.37857        3.44735
        3.48567        3.49849        3.50882        3.53545        3.54324
        3.84244        3.84894        3.87064        3.94856        4.05516
        4.09740        4.12999        4.14189        4.60769        4.76870
        4.84045        5.20024        5.24653        5.26169        5.27233
        5.64317        5.66719        5.68175        5.77092        5.95847
        5.97548        6.02641        6.11540       36.35247       51.42686
       51.43607       51.45643       51.51890
 Time used in FCKEIG, thr_jaco:   4.50D-02  4.70D-02  1.72D-04
 CPU and wall times used in FCKEIG, THR_FCKEIG:   4.50D-02  4.70D-02  4.04D-02
 -----------------------------------------------------------------------------

 *** DIIS iteration number    2
 RDSUPM called. NFMAT, ISYMDM(1:NFMAT)                     1
                     1

 ITDIIS, energy, error norm, change in energy, scr.thr., difden:
@ DIIS iter.   2    -361.125208181        1.15282D+00   -9.20D-01  -20    F

 (DIIS_RED) Control Parameters C2DIIS =         F NEVC =    2


 (DIIS_RED) B matrix:

               Column   1     Column   2
       1      16.32434095
       2       0.84855125     1.32899740
    ==== End of matrix output ====

 DIIS C vector; C2DIIS = F, LAMBDA = -1.31D+00
    0.030110    0.969890
* Read MO coefficients from SIRIUS.RST with label "NEWORB  " and header info: 28Nov18  DIIS   2
      Virial theorem: -V/T =      2.001544
@      MULPOP N      -0.55; H       0.35; H       0.34; H       0.34; H       0.32; O      -0.59; O      -0.60; O      -0.56; O      -0.60; H       0.33; 
@             H       0.33; H       0.36; H       0.31; H       0.31; H       0.29; H       0.32; H       0.31; 
   2  Level shift: doubly occupied orbital energies shifted by -1.00D-01

 DIIS Fock eigenvalues in symmetry 1
      -20.79372      -20.78852      -20.77438      -20.73904      -15.63582
       -1.56847       -1.56474       -1.54930       -1.50421       -1.38656
       -0.93990       -0.92542       -0.91259       -0.89942       -0.88500
       -0.87725       -0.84357       -0.80943       -0.80364       -0.78687
       -0.75397       -0.74409       -0.73027       -0.72031       -0.69440
       -0.00005        0.04342        0.08429        0.10191        0.12602
        0.14860        0.17249        0.18189        0.20172        0.23776
        0.25041        0.25520        0.28384        0.33365        0.37123
        0.38406        0.46233        0.46781        0.48017        0.50346
        0.51101        0.52750        0.54686        0.57819        0.62567
        0.79174        0.82244        0.84541        0.85456        0.87447
        0.90192        0.95096        0.95662        0.97967        1.01059
        1.01382        1.01988        1.02537        1.06205        1.11745
        1.14716        1.15971        1.20491        1.26241        1.30598
        1.34282        1.37383        1.38966        1.39230        1.41556
        1.42514        1.45207        1.45910        1.49902        1.57638
        1.61509        1.61519        1.63748        1.66027        1.69637
        1.72634        1.78374        1.79647        1.81155        1.82763
        1.91407        1.97109        2.02784        2.06658        2.12324
        2.14913        2.15932        2.17188        2.25335        2.26579
        2.27293        2.29499        2.30534        2.31980        2.38156
        2.44977        2.54057        2.56062        2.56439        2.59498
        2.66005        2.68856        2.69496        2.69957        2.75900
        2.78488        2.81136        2.93567        2.96470        3.11553
        3.25427        3.27414        3.30271        3.32645        3.35998
        3.37462        3.39850        3.40132        3.41480        3.51300
        3.53828        3.54507        3.55561        3.56546        3.58333
        3.87535        3.87701        3.90630        3.97199        4.09227
        4.12237        4.16281        4.16967        4.99559        5.13213
        5.21243        5.22527        5.26186        5.28093        5.30129
        5.64954        5.68202        5.68772        5.78980        5.98733
        5.99664        6.06133        6.13244       37.06266       51.39061
       51.40986       51.42915       51.47718
 Time used in FCKEIG, thr_jaco:   3.00D-02  6.10D-02  4.91D-05
 CPU and wall times used in FCKEIG, THR_FCKEIG:   3.00D-02  6.10D-02  1.15D-02
 -----------------------------------------------------------------------------

 *** DIIS iteration number    3
 RDSUPM called. NFMAT, ISYMDM(1:NFMAT)                     1
                     1

 ITDIIS, energy, error norm, change in energy, scr.thr., difden:
@ DIIS iter.   3    -361.203189914        3.79422D-01   -7.80D-02  -20    F

 (DIIS_RED) Control Parameters C2DIIS =         F NEVC =    3


 (DIIS_RED) B matrix:

               Column   1     Column   2     Column   3
       1      16.32434095
       2       0.84855125     1.32899740
       3       0.83515305     0.00057206     0.14396113
    ==== End of matrix output ====

 DIIS C vector; C2DIIS = F, LAMBDA = -9.62D-02
   -0.047795    0.102515    0.945280
* Read MO coefficients from SIRIUS.RST with label "NEWORB  " and header info: 28Nov18  DIIS   3
      Virial theorem: -V/T =      2.002801
@      MULPOP N      -0.35; H       0.31; H       0.30; H       0.31; H       0.27; O      -0.66; O      -0.68; O      -0.61; O      -0.65; H       0.36; 
@             H       0.35; H       0.39; H       0.34; H       0.33; H       0.31; H       0.35; H       0.33; 
   3  Level shift: doubly occupied orbital energies shifted by -5.00D-02

 DIIS Fock eigenvalues in symmetry 1
      -20.71442      -20.70752      -20.68410      -20.65081      -15.80148
       -1.50637       -1.49910       -1.48041       -1.43674       -1.38981
       -0.88838       -0.87662       -0.86819       -0.85627       -0.83978
       -0.82238       -0.80121       -0.74688       -0.73874       -0.72390
       -0.68354       -0.67405       -0.66345       -0.65170       -0.61820
       -0.00005        0.04751        0.08928        0.10809        0.12944
        0.15394        0.17343        0.18573        0.20553        0.24205
        0.25334        0.25720        0.28196        0.33387        0.37001
        0.38212        0.47151        0.47853        0.48725        0.51238
        0.52066        0.53744        0.55415        0.58621        0.62872
        0.78276        0.81998        0.83632        0.85266        0.88554
        0.91066        0.95769        0.96713        0.98977        1.02111
        1.02553        1.03236        1.03773        1.07371        1.12302
        1.14908        1.16012        1.20520        1.27059        1.31508
        1.35115        1.38549        1.39863        1.40471        1.42849
        1.43848        1.46358        1.47080        1.50835        1.58592
        1.61885        1.62496        1.64498        1.66526        1.69723
        1.73652        1.79369        1.80396        1.82285        1.83588
        1.92267        1.96975        2.02890        2.06871        2.13838
        2.16487        2.17243        2.18580        2.24961        2.27739
        2.28604        2.29860        2.31886        2.33039        2.38008
        2.45596        2.54512        2.56924        2.57270        2.59867
        2.66927        2.69580        2.70541        2.71017        2.76859
        2.79516        2.81957        2.90288        2.93051        3.10234
        3.22404        3.25588        3.29263        3.34157        3.35189
        3.38774        3.41950        3.42220        3.43385        3.53819
        3.55085        3.55986        3.56791        3.58865        3.60795
        3.89818        3.90198        3.92563        3.99729        4.11315
        4.14681        4.19060        4.19714        4.91034        5.06329
        5.14283        5.24244        5.28905        5.30601        5.31115
        5.67814        5.70489        5.71391        5.81988        6.01880
        6.02491        6.08368        6.16303       36.85341       51.42663
       51.43471       51.46956       51.51557
 Time used in FCKEIG, thr_jaco:   2.60D-02  1.41D-01  1.61D-05
 CPU and wall times used in FCKEIG, THR_FCKEIG:   2.60D-02  1.41D-01  3.79D-03
 -----------------------------------------------------------------------------

 *** DIIS iteration number    4
 RDSUPM called. NFMAT, ISYMDM(1:NFMAT)                     1
                     1

 ITDIIS, energy, error norm, change in energy, scr.thr., difden:
@ DIIS iter.   4    -361.213800428        9.42211D-02   -1.06D-02  -20    F

 (DIIS_RED) Control Parameters C2DIIS =         F NEVC =    4


 (DIIS_RED) B matrix:

               Column   1     Column   2     Column   3     Column   4
       1      16.32434095
       2       0.84855125     1.32899740
       3       0.83515305     0.00057206     0.14396113
       4       0.06150590     0.08027540     0.00561690     0.00887762
    ==== End of matrix output ====

 DIIS C vector; C2DIIS = F, LAMBDA = -4.53D-03
   -0.000087   -0.061210   -0.009538    1.070836
* Read MO coefficients from SIRIUS.RST with label "NEWORB  " and header info: 28Nov18  DIIS   4
      Virial theorem: -V/T =      2.002547
@      MULPOP N      -0.43; H       0.33; H       0.32; H       0.32; H       0.29; O      -0.67; O      -0.69; O      -0.62; O      -0.67; H       0.36; 
@             H       0.36; H       0.40; H       0.34; H       0.34; H       0.31; H       0.36; H       0.34; 
   4  Level shift: doubly occupied orbital energies shifted by -1.25D-02

 DIIS Fock eigenvalues in symmetry 1
      -20.68533      -20.68079      -20.66191      -20.62650      -15.72784
       -1.47234       -1.46568       -1.44770       -1.40336       -1.33907
       -0.84207       -0.84071       -0.82162       -0.82021       -0.79603
       -0.78828       -0.76175       -0.70954       -0.70234       -0.68752
       -0.64550       -0.63597       -0.62646       -0.61406       -0.58088
       -0.00005        0.04795        0.08840        0.10786        0.12998
        0.15348        0.17458        0.18550        0.20670        0.24343
        0.25551        0.26004        0.28689        0.33932        0.37624
        0.38842        0.47158        0.47856        0.48835        0.51110
        0.51968        0.53673        0.55500        0.58647        0.63144
        0.78930        0.82606        0.84452        0.85516        0.88670
        0.91266        0.95968        0.96808        0.98978        1.02122
        1.02449        1.03270        1.03739        1.07330        1.12425
        1.15178        1.16106        1.20874        1.27238        1.31747
        1.35242        1.38504        1.39909        1.40271        1.42698
        1.43722        1.46244        1.46930        1.50895        1.58698
        1.62143        1.62512        1.64675        1.66998        1.70269
        1.73674        1.79340        1.80521        1.82190        1.83790
        1.92311        1.97534        2.03407        2.07454        2.13577
        2.16190        2.17003        2.18432        2.25695        2.27551
        2.28484        2.30202        2.31740        2.32940        2.38438
        2.45859        2.54892        2.56949        2.57576        2.60364
        2.66976        2.69733        2.70420        2.71009        2.77091
        2.79672        2.81969        2.91531        2.94278        3.11150
        3.23519        3.26596        3.29939        3.34099        3.35506
        3.38699        3.41747        3.41905        3.43191        3.53520
        3.55192        3.55897        3.56646        3.58638        3.60454
        3.89535        3.89804        3.92321        3.99407        4.11122
        4.14435        4.18669        4.19353        4.92994        5.08052
        5.16105        5.23888        5.28369        5.30085        5.30699
        5.67257        5.70097        5.70933        5.81311        6.01096
        6.01928        6.07908        6.15648       36.88909       51.41630
       51.42643       51.45466       51.50274
 Time used in FCKEIG, thr_jaco:   2.40D-02  4.10D-02  4.01D-06
 CPU and wall times used in FCKEIG, THR_FCKEIG:   2.40D-02  4.10D-02  9.42D-04
 -----------------------------------------------------------------------------

 *** DIIS iteration number    5
 RDSUPM called. NFMAT, ISYMDM(1:NFMAT)                     1
                     1

 ITDIIS, energy, error norm, change in energy, scr.thr., difden:
@ DIIS iter.   5    -361.214826685        2.85871D-02   -1.03D-03  -20    F

 (DIIS_RED) Control Parameters C2DIIS =         F NEVC =    5


 (DIIS_RED) B matrix:

               Column   1     Column   2     Column   3     Column   4     Column   5
       1      16.32434095
       2       0.84855125     1.32899740
       3       0.83515305     0.00057206     0.14396113
       4       0.06150590     0.08027540     0.00561690     0.00887762
       5       0.02142331     0.00715287     0.00564966     0.00091517     0.00081722
    ==== End of matrix output ====

 DIIS C vector; C2DIIS = F, LAMBDA = -5.70D-04
    0.001289   -0.010138   -0.044809    0.074384    0.979274
* Read MO coefficients from SIRIUS.RST with label "NEWORB  " and header info: 28Nov18  DIIS   5
      Virial theorem: -V/T =      2.002256
@      MULPOP N      -0.41; H       0.33; H       0.31; H       0.32; H       0.28; O      -0.69; O      -0.71; O      -0.63; O      -0.68; H       0.37; 
@             H       0.37; H       0.41; H       0.35; H       0.34; H       0.32; H       0.36; H       0.35; 

 DIIS Fock eigenvalues in symmetry 1
      -20.66795      -20.66269      -20.64068      -20.60630      -15.71303
       -1.45814       -1.45115       -1.43213       -1.38812       -1.32546
       -0.82858       -0.82704       -0.80777       -0.80646       -0.78207
       -0.77355       -0.74780       -0.69561       -0.68833       -0.67268
       -0.63058       -0.62081       -0.61156       -0.59803       -0.56482
       -0.00005        0.04824        0.08856        0.10826        0.13029
        0.15376        0.17491        0.18571        0.20714        0.24403
        0.25609        0.26068        0.28773        0.34016        0.37704
        0.38934        0.47207        0.47929        0.48896        0.51140
        0.52015        0.53730        0.55571        0.58723        0.63230
        0.79041        0.82733        0.84558        0.85655        0.88820
        0.91461        0.96083        0.96974        0.99105        1.02229
        1.02566        1.03420        1.03886        1.07477        1.12549
        1.15288        1.16226        1.20982        1.27355        1.31906
        1.35357        1.38577        1.39991        1.40303        1.42752
        1.43786        1.46312        1.46979        1.51005        1.58762
        1.62217        1.62580        1.64731        1.67074        1.70350
        1.73736        1.79362        1.80564        1.82212        1.83842
        1.92353        1.97613        2.03495        2.07547        2.13641
        2.16295        2.17043        2.18500        2.25779        2.27612
        2.28559        2.30296        2.31871        2.33038        2.38521
        2.45923        2.54953        2.56989        2.57636        2.60438
        2.67017        2.69755        2.70416        2.71028        2.77130
        2.79721        2.82013        2.91635        2.94389        3.11259
        3.23666        3.26762        3.30123        3.34333        3.35696
        3.38899        3.41953        3.42204        3.43365        3.53794
        3.55446        3.56167        3.56826        3.58843        3.60759
        3.89750        3.90104        3.92486        3.99684        4.11308
        4.14657        4.19000        4.19651        4.93142        5.08233
        5.16273        5.24187        5.28760        5.30538        5.31134
        5.67667        5.70384        5.71248        5.81776        6.01545
        6.02216        6.08148        6.16047       36.89135       51.42179
       51.43129       51.46326       51.51034
 Time used in FCKEIG, thr_jaco:   2.30D-02  3.10D-02  1.22D-06
 CPU and wall times used in FCKEIG, THR_FCKEIG:   2.30D-02  3.10D-02  2.86D-04
 -----------------------------------------------------------------------------

 *** DIIS iteration number    6
 RDSUPM called. NFMAT, ISYMDM(1:NFMAT)                     1
                     1

 ITDIIS, energy, error norm, change in energy, scr.thr., difden:
@ DIIS iter.   6    -361.214908802        1.05657D-02   -8.21D-05  -20    F

 (DIIS_RED) Control Parameters C2DIIS =         F NEVC =    6


 (DIIS_RED) B matrix:

               Column   1     Column   2     Column   3     Column   4     Column   5     Column   6
       1      16.32434095
       2       0.84855125     1.32899740
       3       0.83515305     0.00057206     0.14396113
       4       0.06150590     0.08027540     0.00561690     0.00887762
       5       0.02142331     0.00715287     0.00564966     0.00091517     0.00081722
       6      -0.00527941    -0.00023299     0.00067894     0.00051550     0.00001771     0.00011163
    ==== End of matrix output ====

 DIIS C vector; C2DIIS = F, LAMBDA = -3.40D-05
    0.000758    0.006566   -0.009858   -0.127064    0.153506    0.976092
* Read MO coefficients from SIRIUS.RST with label "NEWORB  " and header info: 28Nov18  DIIS   6
      Virial theorem: -V/T =      2.002489
@      MULPOP N      -0.41; H       0.33; H       0.31; H       0.32; H       0.28; O      -0.69; O      -0.71; O      -0.63; O      -0.68; H       0.37; 
@             H       0.37; H       0.41; H       0.35; H       0.34; H       0.32; H       0.37; H       0.35; 

 DIIS Fock eigenvalues in symmetry 1
      -20.66949      -20.66442      -20.64356      -20.60888      -15.71485
       -1.45856       -1.45161       -1.43297       -1.38889       -1.32597
       -0.82913       -0.82760       -0.80831       -0.80702       -0.78268
       -0.77436       -0.74850       -0.69620       -0.68904       -0.67371
       -0.63085       -0.62108       -0.61232       -0.59866       -0.56528
       -0.00005        0.04812        0.08842        0.10807        0.13018
        0.15359        0.17477        0.18557        0.20703        0.24387
        0.25593        0.26054        0.28752        0.34002        0.37690
        0.38910        0.47186        0.47900        0.48873        0.51116
        0.51989        0.53702        0.55542        0.58695        0.63201
        0.79006        0.82701        0.84524        0.85633        0.88789
        0.91424        0.96053        0.96939        0.99066        1.02192
        1.02531        1.03380        1.03838        1.07426        1.12503
        1.15256        1.16183        1.20952        1.27323        1.31862
        1.35318        1.38547        1.39956        1.40269        1.42720
        1.43745        1.46274        1.46945        1.50963        1.58736
        1.62184        1.62547        1.64704        1.67056        1.70325
        1.73701        1.79332        1.80537        1.82184        1.83817
        1.92323        1.97593        2.03474        2.07531        2.13598
        2.16235        2.16995        2.18444        2.25754        2.27574
        2.28521        2.30263        2.31815        2.32992        2.38485
        2.45894        2.54929        2.56958        2.57615        2.60420
        2.66982        2.69728        2.70385        2.70994        2.77103
        2.79699        2.81975        2.91586        2.94337        3.11230
        3.23601        3.26693        3.30054        3.34261        3.35632
        3.38840        3.41889        3.42103        3.43306        3.53705
        3.55359        3.56078        3.56768        3.58782        3.60656
        3.89682        3.90003        3.92426        3.99588        4.11248
        4.14590        4.18890        4.19551        4.93051        5.08138
        5.16181        5.24105        5.28649        5.30402        5.30998
        5.67532        5.70291        5.71150        5.81619        6.01387
        6.02120        6.08060        6.15904       36.88956       51.42009
       51.42975       51.46041       51.50779
 Time used in FCKEIG, thr_jaco:   3.30D-02  1.12D-01  4.50D-07
 CPU and wall times used in FCKEIG, THR_FCKEIG:   3.30D-02  1.12D-01  1.06D-04
 -----------------------------------------------------------------------------

 *** DIIS iteration number    7
 RDSUPM called. NFMAT, ISYMDM(1:NFMAT)                     1
                     1

 ITDIIS, energy, error norm, change in energy, scr.thr., difden:
@ DIIS iter.   7    -361.214919523        2.22216D-03   -1.07D-05  -20    F

 (DIIS_RED) Control Parameters C2DIIS =         F NEVC =    7


 (DIIS_RED) B matrix:

               Column   1     Column   2     Column   3     Column   4     Column   5     Column   6
       1      16.32434095
       2       0.84855125     1.32899740
       3       0.83515305     0.00057206     0.14396113
       4       0.06150590     0.08027540     0.00561690     0.00887762
       5       0.02142331     0.00715287     0.00564966     0.00091517     0.00081722
       6      -0.00527941    -0.00023299     0.00067894     0.00051550     0.00001771     0.00011163
       7       0.00038514     0.00020685    -0.00001611     0.00000885     0.00004369    -0.00000120

               Column   7
       7       0.00000494
    ==== End of matrix output ====

 DIIS C vector; C2DIIS = F, LAMBDA = -1.11D-06
   -0.000237   -0.000721    0.005423    0.020690   -0.107884   -0.101428    1.184157
* Read MO coefficients from SIRIUS.RST with label "NEWORB  " and header info: 28Nov18  DIIS   7
      Virial theorem: -V/T =      2.002425
@      MULPOP N      -0.41; H       0.33; H       0.31; H       0.32; H       0.28; O      -0.69; O      -0.71; O      -0.63; O      -0.68; H       0.37; 
@             H       0.37; H       0.41; H       0.35; H       0.35; H       0.32; H       0.37; H       0.35; 

 DIIS Fock eigenvalues in symmetry 1
      -20.66935      -20.66422      -20.64317      -20.60845      -15.71446
       -1.45846       -1.45150       -1.43279       -1.38869       -1.32577
       -0.82908       -0.82746       -0.80821       -0.80688       -0.78254
       -0.77423       -0.74837       -0.69618       -0.68903       -0.67361
       -0.63072       -0.62092       -0.61220       -0.59844       -0.56503
       -0.00005        0.04817        0.08844        0.10812        0.13022
        0.15363        0.17481        0.18560        0.20708        0.24392
        0.25599        0.26061        0.28761        0.34012        0.37701
        0.38922        0.47191        0.47907        0.48880        0.51119
        0.51993        0.53707        0.55548        0.58702        0.63211
        0.79020        0.82714        0.84538        0.85644        0.88798
        0.91438        0.96061        0.96951        0.99076        1.02199
        1.02538        1.03391        1.03847        1.07436        1.12514
        1.15266        1.16195        1.20964        1.27334        1.31877
        1.35328        1.38551        1.39962        1.40272        1.42723
        1.43749        1.46278        1.46948        1.50973        1.58742
        1.62192        1.62553        1.64710        1.67065        1.70337
        1.73708        1.79335        1.80543        1.82186        1.83825
        1.92328        1.97603        2.03485        2.07542        2.13601
        2.16241        2.16997        2.18448        2.25766        2.27578
        2.28525        2.30273        2.31824        2.33001        2.38496
        2.45902        2.54936        2.56962        2.57624        2.60429
        2.66987        2.69731        2.70386        2.70996        2.77109
        2.79706        2.81980        2.91604        2.94356        3.11245
        3.23620        3.26713        3.30071        3.34276        3.35647
        3.38852        3.41900        3.42121        3.43315        3.53724
        3.55378        3.56098        3.56778        3.58794        3.60675
        3.89693        3.90019        3.92434        3.99607        4.11258
        4.14602        4.18910        4.19572        4.93076        5.08163
        5.16206        5.24118        5.28668        5.30430        5.31023
        5.67556        5.70304        5.71164        5.81643        6.01410
        6.02133        6.08070        6.15930       36.88994       51.42029
       51.42990       51.46079       51.50821
 Time used in FCKEIG, thr_jaco:   2.20D-02  2.90D-02  9.46D-08
 CPU and wall times used in FCKEIG, THR_FCKEIG:   2.20D-02  2.90D-02  2.22D-05
 -----------------------------------------------------------------------------

 *** DIIS iteration number    8
 RDSUPM called. NFMAT, ISYMDM(1:NFMAT)                     1
                     1

 ITDIIS, energy, error norm, change in energy, scr.thr., difden:
@ DIIS iter.   8    -361.214920011        3.42861D-04   -4.87D-07  -20    F

 (DIIS_RED) Control Parameters C2DIIS =         F NEVC =    8


 (DIIS_RED) B matrix:

               Column   1     Column   2     Column   3     Column   4     Column   5     Column   6
       1      16.32434095
       2       0.84855125     1.32899740
       3       0.83515305     0.00057206     0.14396113
       4       0.06150590     0.08027540     0.00561690     0.00887762
       5       0.02142331     0.00715287     0.00564966     0.00091517     0.00081722
       6      -0.00527941    -0.00023299     0.00067894     0.00051550     0.00001771     0.00011163
       7       0.00038514     0.00020685    -0.00001611     0.00000885     0.00004369    -0.00000120
       8       0.00008905    -0.00004513     0.00001078     0.00000086     0.00000047     0.00000146

               Column   7     Column   8
       7       0.00000494
       8       0.00000030     0.00000012
    ==== End of matrix output ====

 DIIS C vector; C2DIIS = F, LAMBDA = -6.22D-08
    0.000012    0.000009   -0.000722   -0.000516    0.015796   -0.012556   -0.205019    1.202995
* Read MO coefficients from SIRIUS.RST with label "NEWORB  " and header info: 28Nov18  DIIS   8
      Virial theorem: -V/T =      2.002441
@      MULPOP N      -0.41; H       0.33; H       0.31; H       0.32; H       0.28; O      -0.69; O      -0.71; O      -0.63; O      -0.68; H       0.37; 
@             H       0.37; H       0.41; H       0.35; H       0.35; H       0.32; H       0.37; H       0.35; 

 DIIS Fock eigenvalues in symmetry 1
      -20.66930      -20.66420      -20.64319      -20.60852      -15.71449
       -1.45844       -1.45149       -1.43279       -1.38871       -1.32579
       -0.82906       -0.82746       -0.80820       -0.80689       -0.78255
       -0.77423       -0.74838       -0.69618       -0.68904       -0.67364
       -0.63071       -0.62091       -0.61223       -0.59844       -0.56505
       -0.00005        0.04817        0.08844        0.10812        0.13022
        0.15362        0.17481        0.18560        0.20708        0.24392
        0.25598        0.26060        0.28760        0.34012        0.37700
        0.38921        0.47192        0.47906        0.48880        0.51119
        0.51993        0.53706        0.55548        0.58702        0.63210
        0.79019        0.82714        0.84538        0.85644        0.88797
        0.91437        0.96062        0.96951        0.99076        1.02199
        1.02538        1.03391        1.03846        1.07435        1.12513
        1.15266        1.16194        1.20963        1.27333        1.31875
        1.35327        1.38551        1.39961        1.40272        1.42723
        1.43748        1.46278        1.46948        1.50972        1.58741
        1.62191        1.62552        1.64710        1.67064        1.70336
        1.73707        1.79335        1.80542        1.82186        1.83824
        1.92327        1.97603        2.03484        2.07541        2.13601
        2.16241        2.16998        2.18447        2.25765        2.27579
        2.28525        2.30272        2.31823        2.33000        2.38494
        2.45901        2.54936        2.56962        2.57622        2.60428
        2.66986        2.69731        2.70386        2.70995        2.77108
        2.79705        2.81980        2.91602        2.94354        3.11244
        3.23618        3.26711        3.30070        3.34275        3.35647
        3.38852        3.41900        3.42120        3.43316        3.53722
        3.55377        3.56096        3.56779        3.58794        3.60674
        3.89693        3.90018        3.92435        3.99605        4.11259
        4.14603        4.18909        4.19569        4.93074        5.08161
[...]
 | 1 1 1 1 |  27   1  11   1 |     1407        1 |       989122 |    0.077049  |
 | 1 1 1 1 |  28   1  11   1 |     1408        1 |       990529 |   -0.079776  |
 | 1 1 1 1 |  13   1  13   1 |     1669        1 |      1391947 |    0.104792  |
 | 1 1 1 1 |  26   1  13   1 |     1682        1 |      1413722 |    0.073832  |
 | 1 1 1 1 |  27   1  13   1 |     1683        1 |      1415404 |   -0.070740  |
 | 1 1 1 1 |  28   1  16   1 |     2098        1 |      2199754 |    0.082545  |
 | 1 1 1 1 |  13   1  19   1 |     2497        1 |      3116257 |   -0.074945  |
 | 1 1 1 1 |  28   1  20   1 |     2650        1 |      3509926 |   -0.077669  |
 +=============================================================================+


          Norm of Printed Amplitude Vector :             0.8329

          Printed all single excitations greater than 0.381617

          Printed all double excitations greater than 0.064612



+======================================================================+
| contributions of excitation levels to right eigenvectors as computed |
| from the (RE|RE) self overlap                                        |
+----------------------------------------------------------------------+
| sym | multi | state |    E / eV  | % singles | % doubles | % triples |
+======================================================================+
|    1|   1   |   1   |  411.50914 |  88.2124  |  11.7876  |   0.0000  |
+======================================================================+





+======================================================================+
| contributions of excitation levels to excited states as computed     |
| from the (LE|RE) overlap                                             |
+----------------------------------------------------------------------+
| sym | multi | state |    E / eV  | % singles | % doubles | % triples |
+======================================================================+
|    1|   1   |   1   |  411.50914 |  79.1520  |  20.8480  |   0.0000  |
+======================================================================+



 --------------------------
 Symmetry class Nr.:     1
 Multiplicity      :     3
 --------------------------

 Length of Excitation vectors in this class is:   8404200
 No Excitation Energies calculated in this symmetry class
     

   *******************************************************************
   *                                                                 *
   *--------   OUTPUT FROM PROPERTY AND SYMMETRY ANALYSIS   ---------*
   *                                                                 *
   *******************************************************************



                         +-------------------------------+
                         ! REQUESTED PROPERTY OPERATORS: !
                         +-------------------------------+

             Index   Oper. Label  Symmetry  Transp.  PDBS  Atom
             --------------------------------------------------
                1     HAM0            1        1      T      0
                2     XDIPLEN         1        1      F      0
                3     YDIPLEN         1        1      F      0
                4     ZDIPLEN         1        1      F      0
             --------------------------------------------------




                         +-------------------------------+
                         ! REQUESTED EXPECTATION VALUES: !
                         +-------------------------------+

                       Index   Oper. Label  Symmetry
                       -----------------------------
                       -----------------------------




                       +------------------------------------+
                       ! REQUESTED EFFECTIVE FOCK MATRICES: !
                       +------------------------------------+

                       Index   Oper. Label  Symmetry
                       -----------------------------
                       -----------------------------




                        +----------------------------------+
                        ! REQUESTED FIRST ORDER M-VECTORS: !
                        +----------------------------------+

               Index   State Symmetry  Frequency
               --------------------------------------------------
                  1             1    1     1.512268D+01
               --------------------------------------------------


      

    *******************************************************************
    *          SOLVING COUPLED CLUSTER RESPONSE EQUATIONS             *
    *******************************************************************



 
 +======================================================================+
 !                     RHS & ETA VECTORS TO COMPUTE:                    !
 +======================================================================+
 | TYPE | # VEC. |  NEEDED FOR:                                         |
 +----------------------------------------------------------------------+
 +======================================================================+



 +======================================================================+
 !                       LINEAR EQUATIONS TO SOLVE:                     !
 +======================================================================+
 | TYPE | # VEC. |  EQUATION:                                           |
 +----------------------------------------------------------------------+
 |  M1  |    1   |  first-order ground - excited state multipliers      |
 +======================================================================+



 +======================================================================+
 !                F MATRIX TRANSFORMATIONS TO COMPUTE:                  !
 +======================================================================+
 | TYPE | # VEC. |  TRANSFORMED:                                        |
 +----------------------------------------------------------------------+
 |  FR  |    1   |  right eigenvectors (RE)                             |
 +======================================================================+





 Testing R1 list: 

 List nr.  Label     Symmetry      Frequency      T1-norm        T2-norm


 Testing L1 list: 

 List nr.  Label     Symmetry      Frequency      T1-norm        T2-norm
  Solvent 1-order response equations converged in                     0 
  solvent iterations
 SONIAPRI                     0
 CCEQ_STR: CVSEPARATION =  T
 CCEQ_STR: IONIZATION =  T
 CCEQ_STR: REMOVE_CORE =  F
 could not find required file CCM1_1___1
 IOPTSV is    33 ... program continues nevertheless.
 Vector nr.  1 of type M1  and symmetry  1 was not found on file.
     M1  start vector nr.  1 of symmetry  1 generated from gradient
 CCEQ_STR: freeze VALENCE OR VIRT
 CCEQ_SOL: CVSEPARA=     T
 CCEQ_SOL: LIONISAT=     T
 CCEQ_SOL: REMOVE_CORE =  F



 ----- COUPLED CLUSTER RESPONSE SOLVER -----

    Iter  #Vectors  time (min)   residual
    --------------------------------------
 CCRED CVS/IONIS sigma_                     1 
 project out valence occupied or virtual
      1       1         1.57     0.22E+01
 CCRED CVS/IONIS sigma_                     2 
 project out valence occupied or virtual
      2       1         1.44     0.40E+00
 CCRED CVS/IONIS sigma_                     3 
 project out valence occupied or virtual
      3       1         1.50     0.50E-01
 CCRED CVS/IONIS sigma_                     4 
 project out valence occupied or virtual
                    -1  vectors with norm le:  1.000000000000000E-035  REMOVED

 CCORT,**WARNING**  number vectors added is zero after check for vector norm , NBADD :    0

 CCORT, number vectors added is zero , NBADD :    0

 CCORT, number vectors added is zero , NBADD :    0

 CCORT, number vectors added is zero , NBADD :    0

 CCORT, number vectors added is zero , NBADD :    0

 *** MICROITERATIONS STOPPED DUE TO LINEAR DEPENDENCE BETWEEN ALL NEW TRIAL VECTORS
                     0  trial vectors converged
  LINEAR DEPENDENCE BETWEEN                     1  NON CONVERGED TRIAL VECTORS
      4       1         1.49     0.54E-02

 ***  CCEQ_SOL -MICROITERATIONS STOPPED  
     LINEAR DEPENDENCE BETWEEN ALL NEW TRIAL VECTORS
    --------------------------------------
    converged in  4 iterations
    threshold:    0.10E-08


         Routine          Time (min)
         ---------------------------
         CC_TRDRV            5.99
         CCRED               0.03
         CCNEX               0.05
         ---------------------------
         Total time          6.08


  Total CPU  time used in CCEQ_SOLV:  6 minutes  5 seconds
  Total wall time used in CCEQ_SOLV: 13 minutes 15 seconds


 xxxxxxxxxxxxxxxxxxxxxxxxxxxxxxxxxxxxx

 
 Solution of CC response equations completed.
 

 *******************************************************************
 *                                                                 *
 *--------  OUTPUT FROM COUPLED CLUSTER LINEAR RESPONSE   ---------*
 *                                                                 *
 *--------      CALCULATION OF SECOND ORDER RESIDUES      ---------*
 *                                                                 *
 *******************************************************************



                  +---------------------------------------------+
                  ! CC_SOPR: Calculation of CCSD       Residues !
                  +---------------------------------------------+

 Doing the Mf*CsiA
 Doing the Mf*CsiA
 Doing the Mf*CsiA


 CCSD  Right transition moments in atomic units:
 -----------------------------------------------

  1      15.122683  <XDIPLEN |f> =       0.00000005
  1      15.122683  <YDIPLEN |f> =      -0.00000002
  1      15.122683  <ZDIPLEN |f> =       0.00000004


 CCSD  Left  transition moments in atomic units:
 -----------------------------------------------

  1      15.122683  <f|XDIPLEN > =       0.00000002
  1      15.122683  <f|YDIPLEN > =      -0.00000001
  1      15.122683  <f|ZDIPLEN > =       0.00000002


 CCSD  linear response residue property in atomic units:
 -------------------------------------------------------

 RES{<<XDIPLEN ,XDIPLEN >>(15.122683)} =     0.00000000 (   0.00000003)
 RES{<<XDIPLEN ,YDIPLEN >>(15.122683)} =    -0.00000000 (  -0.00000002)
 RES{<<XDIPLEN ,ZDIPLEN >>(15.122683)} =     0.00000000 (   0.00000003)
 RES{<<YDIPLEN ,XDIPLEN >>(15.122683)} =    -0.00000000 (  -0.00000002)
 RES{<<YDIPLEN ,YDIPLEN >>(15.122683)} =     0.00000000 (   0.00000002)
 RES{<<YDIPLEN ,ZDIPLEN >>(15.122683)} =    -0.00000000 (  -0.00000002)
 RES{<<ZDIPLEN ,XDIPLEN >>(15.122683)} =     0.00000000 (   0.00000003)
 RES{<<ZDIPLEN ,YDIPLEN >>(15.122683)} =    -0.00000000 (  -0.00000002)
 RES{<<ZDIPLEN ,ZDIPLEN >>(15.122683)} =     0.00000000 (   0.00000003)


 CCSD  Transition strength matrix for state nr.  1 of symmetry 1
 CCSD  excitation energy:15.12268307

 Gauge: length

               Column   1     Column   2     Column   3
       1     9.396628D-16  -5.010565D-16   7.671387D-16
       2    -5.010565D-16   2.671730D-16  -4.090571D-16
       3     7.671387D-16  -4.090571D-16   6.262870D-16
    ==== End of matrix output ====

 Principal values of diagonalized transition strength matrix:

             a.u.               
 1       0.00000000
 2       0.00000000
 3       0.00000000

 Principal axis of diagonalized transition strength matrix:


               Column   1     Column   2     Column   3
       1       1.00000000     0.00000000     0.00000000
       2       0.00000000     1.00000000     0.00000000
       3       0.00000000     0.00000000     1.00000000
    ==== End of matrix output ====


 CCSD   oscillator strength matrix for state nr.  1 of symmetry 1
 CCSD  excitation energy:15.12268307


               Column   1     Column   2     Column   3
       1     9.473482D-15  -5.051546D-15   7.734130D-15
       2    -5.051546D-15   2.693582D-15  -4.124028D-15
       3     7.734130D-15  -4.124028D-15   6.314093D-15
    ==== End of matrix output ====

 Principal values of diagonalized oscillator strength matrix:

             a.u.               
 1       0.00000000
 2       0.00000000
 3       0.00000000

 Principal axis of diagonalized oscillator strength matrix:


               Column   1     Column   2     Column   3
       1       1.00000000     0.00000000     0.00000000
       2       0.00000000     1.00000000     0.00000000
       3       0.00000000     0.00000000     1.00000000
    ==== End of matrix output ====

  Total time for      9 linear response residues:       3.06 seconds.
  

 *******************************************************************************
 *******************************************************************************
 *                                                                             *
 *                                                                             *
 *                   SUMMARY OF COUPLED CLUSTER CALCULATION                    *
 *                                                                             *
 *                                                                             *
 *******************************************************************************
 *******************************************************************************

                                                                                
                                                                                
            Total SCF   energy:                  -361.2149200273                
            Total MP2   energy:                  -362.3178754403                
            Total CCSD  energy:                  -362.3589302771                
                                                                                
                                                                                
            Total SCF   energy:                  -361.2149200273                
            Total RSTAR energy:                  -362.3589302771                
            Total CCSD  energy:                  -362.3590606509                
                                                                                
                                                                                
            Total SCF   energy:                  -361.2149200273                
            Total RSTAR energy:                  -362.3590606509                
            Total CCSD  energy:                  -362.3590618737                
                                                                                
                                                                                
            Total SCF   energy:                  -361.2149200273                
            Total RSTAR energy:                  -362.3590618737                
            Total CCSD  energy:                  -362.3590619550                
                                                                                
                                                                                
            Total SCF   energy:                  -361.2149200273                
            Total RSTAR energy:                  -362.3590619550                
            Total CCSD  energy:                  -362.3590619587                
                                                                                
                                                                                
            Total SCF   energy:                  -361.2149200273                
            Total RSTAR energy:                  -362.3590619587                
            Total CCSD  energy:                  -362.3590619588                
            CCSD Total  energy:                  -362.7879261158                
            CCSD E(QM/MM)     :                    -0.4244611266                
                                                                                
                                                                                
                                                                                
 +=============================================================================+
 |  sym. | Exci.  |        CCSD       Excitation energies            | ||T1||  |
 |(spin, |        +------------------------------------------------------------+
 | spat) |        |     Hartree    |       eV.      |     cm-1       |    %    |
 +=============================================================================+
 | ^1A   |    1   |    15.1226831  |     411.50914  |   3319045.261  |  88.21  |
 +=============================================================================+
                                                                                
                                                                                
     Total energies in Hartree:                                                 
             1 ^1A       -347.2407819191                                        
                                                                                
                                                                                
 +=============================================================================+
 |  sym. | Exci.  |        CCSD       Length   Gauge Oscillator Strength       |
 |(spin, |        +------------------------------------------------------------+
 | spat) |        | Dipole Strength(a.u.) | Oscillator strength  | Direction   |
 +=============================================================================+
 | ^1A   |    1   |        0.0000000      |      0.0000000       |    -        |
 +=============================================================================+

  1 a.u. =        27.21138 eV.  
  1 a.u. =    219474.62934 cm-1.
  

 *******************************************************************************
 *******************************************************************************
 *                                                                             *
 *                                                                             *
 *                      END OF COUPLED CLUSTER CALCULATION                     *
 *                                                                             *
 *                                                                             *
 *******************************************************************************
 *******************************************************************************


 CPU and wall time for CC :    7268.448   13168.815

 
     Date and time (Linux)  : Thu Nov 29 01:06:35 2018
     Host name              : n-62-23-19                              


                      .-------------------------------------.
                      | End of Coupled Cluster Section (CC) |
                      `-------------------------------------'

  Total CPU  time used in DALTON:   2 hours  3 minutes 28 seconds
  Total wall time used in DALTON:   3 hours 43 minutes 11 seconds

 
     Date and time (Linux)  : Thu Nov 29 01:06:35 2018
     Host name              : n-62-23-19                              
  

 +---------------------------------------------------------+ 
 | List of selected calculated molecular properties (a.u.) | 
 +---------------------------------------------------------+ 

  Properties are read from unit number                      4

 CCSD       properties :
 #  1 1 CCSD/MM  Ground state Energy =    -362.7879261158
 #  2 1 E_QM/MM  Ground state Energy =      -0.4244611266
 #  3 1 Sy: 1 Sp: 1 Exc:  1 E_tot:   -347.2407819191 w:     15.1226830701 E_grs:   -362.3634649893
 #  4 1 Exctot   Excited state Energy =    -347.2407819191
 #  5 1 |<O|XDIPLEN |i(15.122683)>| =     0.00000003
 #  7 1 |<O|YDIPLEN |i(15.122683)>| =     0.00000002
 #  9 1 |<O|ZDIPLEN |i(15.122683)>| =     0.00000003

 THE_END   
