

     ************************************************************************
     *************** Dalton - An Electronic Structure Program ***************
     ************************************************************************

    This is output from DALTON release Dalton2017.alpha (2016)
         ( Web site: http://daltonprogram.org )

   ----------------------------------------------------------------------------

    NOTE:
     
    Dalton is an experimental code for the evaluation of molecular
    properties using (MC)SCF, DFT, CI, and CC wave functions.
    The authors accept no responsibility for the performance of
    the code or for the correctness of the results.
     
    The code (in whole or part) is provided under a licence and
    is not to be reproduced for further distribution without
    the written permission of the authors or their representatives.
     
    See the home page "http://daltonprogram.org" for further information.
     
    If results obtained with this code are published,
    the appropriate citations would be both of:
     
       K. Aidas, C. Angeli, K. L. Bak, V. Bakken, R. Bast,
       L. Boman, O. Christiansen, R. Cimiraglia, S. Coriani,
       P. Dahle, E. K. Dalskov, U. Ekstroem,
       T. Enevoldsen, J. J. Eriksen, P. Ettenhuber, B. Fernandez,
       L. Ferrighi, H. Fliegl, L. Frediani, K. Hald, A. Halkier,
       C. Haettig, H. Heiberg, T. Helgaker, A. C. Hennum,
       H. Hettema, E. Hjertenaes, S. Hoest, I.-M. Hoeyvik,
       M. F. Iozzi, B. Jansik, H. J. Aa. Jensen, D. Jonsson,
       P. Joergensen, J. Kauczor, S. Kirpekar,
       T. Kjaergaard, W. Klopper, S. Knecht, R. Kobayashi, H. Koch,
       J. Kongsted, A. Krapp, K. Kristensen, A. Ligabue,
       O. B. Lutnaes, J. I. Melo, K. V. Mikkelsen, R. H. Myhre,
       C. Neiss, C. B. Nielsen, P. Norman, J. Olsen,
       J. M. H. Olsen, A. Osted, M. J. Packer, F. Pawlowski,
       T. B. Pedersen, P. F. Provasi, S. Reine, Z. Rinkevicius,
       T. A. Ruden, K. Ruud, V. Rybkin, P. Salek, C. C. M. Samson,
       A. Sanchez de Meras, T. Saue, S. P. A. Sauer,
       B. Schimmelpfennig, K. Sneskov, A. H. Steindal,
       K. O. Sylvester-Hvid, P. R. Taylor, A. M. Teale,
       E. I. Tellgren, D. P. Tew, A. J. Thorvaldsen, L. Thoegersen,
       O. Vahtras, M. A. Watson, D. J. D. Wilson, M. Ziolkowski
       and H. Agren,
       "The Dalton quantum chemistry program system",
       WIREs Comput. Mol. Sci. 2014, 4:269–284 (doi: 10.1002/wcms.1172)
     
    and
     
       Dalton, a Molecular Electronic Structure Program,
       Release Dalton2017.alpha (2016), see http://daltonprogram.org
   ----------------------------------------------------------------------------

    Authors in alphabetical order (major contribution(s) in parenthesis):

  Kestutis Aidas,           Vilnius University,           Lithuania   (QM/MM)
  Celestino Angeli,         University of Ferrara,        Italy       (NEVPT2)
  Keld L. Bak,              UNI-C,                        Denmark     (AOSOPPA, non-adiabatic coupling, magnetic properties)
  Vebjoern Bakken,          University of Oslo,           Norway      (DALTON; geometry optimizer, symmetry detection)
  Radovan Bast,             UiT The Arctic U. of Norway,  Norway      (DALTON installation and execution frameworks)
  Pablo Baudin,             University of Valencia,       Spain       (Cholesky excitation energies)
  Linus Boman,              NTNU,                         Norway      (Cholesky decomposition and subsystems)
  Ove Christiansen,         Aarhus University,            Denmark     (CC module)
  Renzo Cimiraglia,         University of Ferrara,        Italy       (NEVPT2)
  Sonia Coriani,            University of Trieste,        Italy       (CC module, MCD in RESPONS)
  Janusz Cukras,            University of Trieste,        Italy       (MChD in RESPONS)
  Paal Dahle,               University of Oslo,           Norway      (Parallelization)
  Erik K. Dalskov,          UNI-C,                        Denmark     (SOPPA)
  Thomas Enevoldsen,        Univ. of Southern Denmark,    Denmark     (SOPPA)
  Janus J. Eriksen,         Aarhus University,            Denmark     (Polarizable embedding model, TDA)
  Rasmus Faber,             University of Copenhagen,     Denmark     (Vib.avg. NMR with SOPPA, parallel AO-SOPPA)
  Berta Fernandez,          U. of Santiago de Compostela, Spain       (doublet spin, ESR in RESPONS)
  Lara Ferrighi,            Aarhus University,            Denmark     (PCM Cubic response)
  Heike Fliegl,             University of Oslo,           Norway      (CCSD(R12))
  Luca Frediani,            UiT The Arctic U. of Norway,  Norway      (PCM)
  Bin Gao,                  UiT The Arctic U. of Norway,  Norway      (Gen1Int library)
  Christof Haettig,         Ruhr-University Bochum,       Germany     (CC module)
  Kasper Hald,              Aarhus University,            Denmark     (CC module)
  Asger Halkier,            Aarhus University,            Denmark     (CC module)
  Frederik Beyer Hansen,    University of Copenhagen,     Denmark     (Parallel AO-SOPPA)
  Erik D. Hedegaard,        Univ. of Southern Denmark,    Denmark     (Polarizable embedding model, QM/MM)
  Hanne Heiberg,            University of Oslo,           Norway      (geometry analysis, selected one-electron integrals)
  Trygve Helgaker,          University of Oslo,           Norway      (DALTON; ABACUS, ERI, DFT modules, London, and much more)
  Alf Christian Hennum,     University of Oslo,           Norway      (Parity violation)
  Hinne Hettema,            University of Auckland,       New Zealand (quadratic response in RESPONS; SIRIUS supersymmetry)
  Eirik Hjertenaes,         NTNU,                         Norway      (Cholesky decomposition)
  Pi A. B. Haase,           University of Copenhagen,     Denmark     (Triplet AO-SOPPA)
  Maria Francesca Iozzi,    University of Oslo,           Norway      (RPA)
  Brano Jansik              Technical Univ. of Ostrava    Czech Rep.  (DFT cubic response)
  Hans Joergen Aa. Jensen,  Univ. of Southern Denmark,    Denmark     (DALTON; SIRIUS, RESPONS, ABACUS modules, London, and much more)
  Dan Jonsson,              UiT The Arctic U. of Norway,  Norway      (cubic response in RESPONS module)
  Poul Joergensen,          Aarhus University,            Denmark     (RESPONS, ABACUS, and CC modules)
  Maciej Kaminski,          University of Warsaw,         Poland      (CPPh in RESPONS)
  Joanna Kauczor,           Linkoeping University,        Sweden      (Complex polarization propagator (CPP) module)
  Sheela Kirpekar,          Univ. of Southern Denmark,    Denmark     (Mass-velocity & Darwin integrals)
  Wim Klopper,              KIT Karlsruhe,                Germany     (R12 code in CC, SIRIUS, and ABACUS modules)
  Stefan Knecht,            ETH Zurich,                   Switzerland (Parallel CI and MCSCF)
  Rika Kobayashi,           Australian National Univ.,    Australia   (DIIS in CC, London in MCSCF)
  Henrik Koch,              NTNU,                         Norway      (CC module, Cholesky decomposition)
  Jacob Kongsted,           Univ. of Southern Denmark,    Denmark     (Polarizable embedding model, QM/MM)
  Andrea Ligabue,           University of Modena,         Italy       (CTOCD, AOSOPPA)
  Nanna H. List             Univ. of Southern Denmark,    Denmark     (Polarizable embedding model)
  Ola B. Lutnaes,           University of Oslo,           Norway      (DFT Hessian)
  Juan I. Melo,             University of Buenos Aires,   Argentina   (LRESC, Relativistic Effects on NMR Shieldings)
  Kurt V. Mikkelsen,        University of Copenhagen,     Denmark     (MC-SCRF and QM/MM)
  Rolf H. Myhre,            NTNU,                         Norway      (Cholesky, subsystems and ECC2)
  Christian Neiss,          Univ. Erlangen-Nuernberg,     Germany     (CCSD(R12))
  Christian B. Nielsen,     University of Copenhagen,     Denmark     (QM/MM)
  Patrick Norman,           Linkoeping University,        Sweden      (Cubic response and complex frequency response in RESPONS)
  Jeppe Olsen,              Aarhus University,            Denmark     (SIRIUS CI/density modules)
  Jogvan Magnus H. Olsen,   Univ. of Southern Denmark,    Denmark     (Polarizable embedding model, QM/MM)
  Anders Osted,             Copenhagen University,        Denmark     (QM/MM)
  Martin J. Packer,         University of Sheffield,      UK          (SOPPA)
  Filip Pawlowski,          Kazimierz Wielki University,  Poland      (CC3)
  Morten N. Pedersen,       Univ. of Southern Denmark,    Denmark     (Polarizable embedding model)
  Thomas B. Pedersen,       University of Oslo,           Norway      (Cholesky decomposition)
  Patricio F. Provasi,      University of Northeastern,   Argentina   (Analysis of coupling constants in localized orbitals)
  Zilvinas Rinkevicius,     KTH Stockholm,                Sweden      (open-shell DFT, ESR)
  Elias Rudberg,            KTH Stockholm,                Sweden      (DFT grid and basis info)
  Torgeir A. Ruden,         University of Oslo,           Norway      (Numerical derivatives in ABACUS)
  Kenneth Ruud,             UiT The Arctic U. of Norway,  Norway      (DALTON; ABACUS magnetic properties and much more)
  Pawel Salek,              KTH Stockholm,                Sweden      (DALTON; DFT code)
  Claire C. M. Samson       University of Karlsruhe       Germany     (Boys localization, r12 integrals in ERI)
  Alfredo Sanchez de Meras, University of Valencia,       Spain       (CC module, Cholesky decomposition)
  Trond Saue,               Paul Sabatier University,     France      (direct Fock matrix construction)
  Stephan P. A. Sauer,      University of Copenhagen,     Denmark     (SOPPA(CCSD), SOPPA prop., AOSOPPA, vibrational g-factors)
  Bernd Schimmelpfennig,    Forschungszentrum Karlsruhe,  Germany     (AMFI module)
  Kristian Sneskov,         Aarhus University,            Denmark     (Polarizable embedding model, QM/MM)
  Arnfinn H. Steindal,      UiT The Arctic U. of Norway,  Norway      (parallel QM/MM, Polarizable embedding model)
  Casper Steinmann,         Univ. of Southern Denmark,    Denmark     (QFIT, Polarizable embedding model)
  K. O. Sylvester-Hvid,     University of Copenhagen,     Denmark     (MC-SCRF)
  Peter R. Taylor,          VLSCI/Univ. of Melbourne,     Australia   (Symmetry handling ABACUS, integral transformation)
  Andrew M. Teale,          University of Nottingham,     England     (DFT-AC, DFT-D)
  David P. Tew,             University of Bristol,        England     (CCSD(R12))
  Olav Vahtras,             KTH Stockholm,                Sweden      (triplet response, spin-orbit, ESR, TDDFT, open-shell DFT)
  David J. Wilson,          La Trobe University,          Australia   (DFT Hessian and DFT magnetizabilities)
  Hans Agren,               KTH Stockholm,                Sweden      (SIRIUS module, RESPONS, MC-SCRF solvation model)
 --------------------------------------------------------------------------------

     Date and time (Linux)  : Thu Nov 29 00:33:51 2018
     Host name              : n-62-29-7                               

 * Work memory size             :  1280000000 =  9.537 gigabytes.

 * Directories for basis set searches:
   1) /zhome/d7/7/119775/My_Codes/dalton-private/build2016/basis/diffs
   2) /zhome/37/3/129401/NH3NH4/CCSD/AIMD_SAMPLING/nh4_4h2o_nd
   3) /zhome/9a/4/124800/source/dalton/build-mlcc/basis


Compilation information
-----------------------

 Who compiled             | rfaber
 Host                     | hpclogin1
 System                   | Linux-2.6.32-696.1.1.el6.x86_64
 CMake generator          | Unix Makefiles
 Processor                | x86_64
 64-bit integers          | ON
 MPI                      | OFF
 Fortran compiler         | /opt/intel/2016update2/compilers_and_libraries_201
                          | 6.2.181/linux/bin/intel64/ifort
 Fortran compiler version | ifort (IFORT) 16.0.2 20160204
 C compiler               | /opt/intel/2016update2/compilers_and_libraries_201
                          | 6.2.181/linux/bin/intel64/icc
 C compiler version       | icc (ICC) 16.0.2 20160204
 C++ compiler             | /opt/intel/2016update2/compilers_and_libraries_201
                          | 6.2.181/linux/bin/intel64/icpc
 C++ compiler version     | icpc (ICC) 16.0.2 20160204
 Static linking           | OFF
 Last Git revision        | bb4d1599ca5680a9f3980451fc8bbefdba436d59
 Git branch               | mlcc
 Configuration time       | 2017-06-13 16:11:03.928841


   Content of the .dal input file
 ----------------------------------

**DALTON
.RUN WAVE FUNCTIONS
*QMMM
.QMMM
**INTEGRALS
.DIPLEN
**WAVE FUNCTIONS
.CC
*PRINT
!To check the origin of excit
.PRINTL
   0 11
*SCF INP
.THRESH
1.0D-7
!*ORBITAL INPUT
!.MOSTART
!NEWORB
*CC INP
!.RESTART
.CCSD
.THRLEQ
 1.0D-9
.THRENR
 1.0D-10
.FROIMP
4
0
.PRINT
 1
.MAX IT
 1200
.MAXRED
 1200
.MXLRV
1199
*CCSLV
.CCMM
.MXSLIT
200
.MXINIT
4 5
*CCEXCI
.NCCEXC
 1
.IONISATION
1
1
.CVSEPARA
1
1
*CCLRSD
.DIPOLE
**END OF DALTON INPUT


   Content of the .mol file
 ----------------------------

ATOMBASIS


Atomtypes=5 Charge=1 Nosymm Angstrom
   7.00000    1    Basis=6-311G**
N          0.000000        0.000000        0.000000
   1.00000    4    Basis=6-311G**
H          0.079047        0.717965       -0.774194
H          0.843056       -0.551080        0.017228
H         -0.789756       -0.541890       -0.258090
H         -0.180078        0.457242        0.989106
   8.00000    4    Basis=6-311G**
O          0.056731        1.857904       -2.151533
O         -2.294758       -1.114504       -1.051996
O         -0.525972       -0.262204        2.960525
O          2.341284       -1.579062       -0.039029
   1.00000    8    Basis=6-311G**
H         -0.071772        1.354274       -3.015694
H          1.015512        2.034542       -2.187686
H         -2.829519       -1.908525       -0.664259
H         -2.808931       -0.361052       -0.733717
H          0.157515       -0.907586        3.321635
H         -0.330083        0.552443        3.449489
H          2.345482       -2.543383        0.273358
H          3.296166       -1.367717       -0.255269
   0.00000    1    Basis=diffs
X          0.000000        0.000000        0.000000


       *******************************************************************
       *********** Output from DALTON general input processing ***********
       *******************************************************************

 --------------------------------------------------------------------------------
   Overall default print level:    0
   Print level for DALTON.STAT:    1

    HERMIT 1- and 2-electron integral sections will be executed
    "Old" integral transformation used (limited to max 255 basis functions)
    Wave function sections will be executed (SIRIUS module)
 --------------------------------------------------------------------------------


 Changes of defaults for *QMMM  :
 --------------------------------

 +------------------+
 |  WORD: | CHANGE: |
 +------------------+
 |   QMMM |       T |
 +------------------+
 


   ****************************************************************************
   *************** Output of molecule and basis set information ***************
   ****************************************************************************


    The two title cards from your ".mol" input:
    ------------------------------------------------------------------------
 1:                                                                         
 2:                                                                         
    ------------------------------------------------------------------------

  Coordinates are entered in Angstrom and converted to atomic units.
          - Conversion factor : 1 bohr = 0.52917721 A

  Atomic type no.    1
  --------------------
  Nuclear charge:   7.00000
  Number of symmetry independent centers:    1
  Number of basis sets to read;    2
  The basis set is "6-311G**" from the basis set library.
  Basis set file used for this atomic type with Z =   7 :
     "/zhome/9a/4/124800/source/dalton/build-mlcc/basis/6-311G**"

  Info about the basis set file: your basis has no documentation.
  Basis set: 6-311G**                                                                        

  Atomic type no.    2
  --------------------
  Nuclear charge:   1.00000
  Number of symmetry independent centers:    4
  Number of basis sets to read;    2
  The basis set is "6-311G**" from the basis set library.
  Basis set file used for this atomic type with Z =   1 :
     "/zhome/9a/4/124800/source/dalton/build-mlcc/basis/6-311G**"

  Info about the basis set file: your basis has no documentation.
  Basis set: 6-311G**                                                                        

  Atomic type no.    3
  --------------------
  Nuclear charge:   8.00000
  Number of symmetry independent centers:    4
  Number of basis sets to read;    2
  The basis set is "6-311G**" from the basis set library.
  Basis set file used for this atomic type with Z =   8 :
     "/zhome/9a/4/124800/source/dalton/build-mlcc/basis/6-311G**"

  Info about the basis set file: your basis has no documentation.
  Basis set: 6-311G**                                                                        

  Atomic type no.    4
  --------------------
  Nuclear charge:   1.00000
  Number of symmetry independent centers:    8
  Number of basis sets to read;    2
  The basis set is "6-311G**" from the basis set library.
  Basis set file used for this atomic type with Z =   1 :
     "/zhome/9a/4/124800/source/dalton/build-mlcc/basis/6-311G**"

  Info about the basis set file: your basis has no documentation.
  Basis set: 6-311G**                                                                        

  Atomic type no.    5
  --------------------
  Nuclear charge:   0.00000
  Number of symmetry independent centers:    1
  Number of basis sets to read;    2
  The basis set is "diffs" from the basis set library.
  Basis set file used for this atomic type with Z =   0 :
     "/zhome/9a/4/124800/source/dalton/build-mlcc/basis/diffs"

  Info about the basis set file: your basis has no documentation.
  Basis set: diffs                                                                           


                         SYMGRP: Point group information
                         -------------------------------

@    Point group: C1 


                                 Isotopic Masses
                                 ---------------

                           N          14.003074
                           H           1.007825
                           H           1.007825
                           H           1.007825
                           H           1.007825
                           O          15.994915
                           O          15.994915
                           O          15.994915
                           O          15.994915
                           H           1.007825
                           H           1.007825
                           H           1.007825
                           H           1.007825
                           H           1.007825
                           H           1.007825
                           H           1.007825
                           H           1.007825

                       Total mass:    90.076634 amu
                       Natural abundance:  98.500 %

 Center-of-mass coordinates (a.u.):   -0.126482   -0.433198   -0.091215


  Atoms and basis sets
  --------------------

  Number of atom types :    5
  Total number of atoms:   18

  label    atoms   charge   prim   cont     basis
  ----------------------------------------------------------------------
  N           1    7.0000    31    18      [11s5p1d|4s3p1d]                                   
  H           4    1.0000     8     6      [5s1p|3s1p]                                        
  O           4    8.0000    31    18      [11s5p1d|4s3p1d]                                   
  H           8    1.0000     8     6      [5s1p|3s1p]                                        
  X           1    0.0000     1     1      [1s|1s]                                            
  ----------------------------------------------------------------------
  total:     18   51.0000   252   163
  ----------------------------------------------------------------------
  Spherical harmonic basis used.

  Threshold for neglecting AO integrals:  1.00D-12


  Cartesian Coordinates (a.u.)
  ----------------------------

  Total number of coordinates:   54
  N       :     1  x   0.0000000000    2  y   0.0000000000    3  z   0.0000000000
  H       :     4  x   0.1493771810    5  y   1.3567572173    6  z  -1.4630146276
  H       :     7  x   1.5931449480    8  y  -1.0413902730    9  z   0.0325562017
  H       :    10  x  -1.4924225456   11  y  -1.0240236899   12  z  -0.4877194156
  H       :    13  x  -0.3402981011   14  y   0.8640621528   15  z   1.8691394486
  O       :    16  x   0.1072060528   17  y   3.5109297265   18  z  -4.0658081189
  O       :    19  x  -4.3364641431   20  y  -2.1061073252   21  z  -1.9879843246
  O       :    22  x  -0.9939430294   23  y  -0.4954937489   24  z   5.5945814362
  O       :    25  x   4.4243855408   26  y  -2.9839947144   27  z  -0.0737541209
  H       :    28  x  -0.1356294234   29  y   2.5592069582   30  z  -5.6988357368
  H       :    31  x   1.9190395566   32  y   3.8447271698   33  z  -4.1341273875
  H       :    34  x  -5.3470159755   35  y  -3.6065895527   36  z  -1.2552675861
  H       :    37  x  -5.3081102940   38  y  -0.6822893969   39  z  -1.3865241833
  H       :    40  x   0.2976602106   41  y  -1.7150889749   42  z   6.2769804372
  H       :    43  x  -0.6237664685   44  y   1.0439659697   45  z   6.5185894812
  H       :    46  x   4.4323186111   47  y  -4.8062973010   48  z   0.5165717541
  H       :    49  x   6.2288510025   50  y  -2.5846105465   51  z  -0.4823884982
  X       :    52  x   0.0000000000   53  y   0.0000000000   54  z   0.0000000000

  Max    interatomic separation is    6.7328 Angstrom (   12.7231 Bohr)
  between atoms   14 and   10, "H     " and "H     ".

  Min HX interatomic separation is    0.9661 Angstrom (    1.8257 Bohr)

  Min YX interatomic separation is    2.7595 Angstrom (    5.2147 Bohr)


  Bond distances (Angstrom):
  --------------------------

                  atom 1     atom 2       distance
                  ------     ------       --------
  bond distance:  H          N            1.058819
  bond distance:  H          N            1.007338
  bond distance:  H          N            0.991952
  bond distance:  H          N            1.104459
  bond distance:  H          O            1.008430
  bond distance:  H          O            0.975587
  bond distance:  H          O            1.032850
  bond distance:  H          O            0.966108
  bond distance:  H          O            1.007012
  bond distance:  H          O            0.970107
  bond distance:  H          O            1.013666
  bond distance:  H          O            1.001612


  Bond angles (degrees):
  ----------------------

                  atom 1     atom 2     atom 3         angle
                  ------     ------     ------         -----
  bond angle:     H          N          H            108.722
  bond angle:     H          N          H            103.864
  bond angle:     H          N          H            112.723
  bond angle:     H          N          H            111.834
  bond angle:     H          N          H            110.342
  bond angle:     H          N          H            109.230
  bond angle:     H          O          H            100.597
  bond angle:     H          O          H            101.556
  bond angle:     H          O          H            102.732
  bond angle:     H          O          H            105.267




 Principal moments of inertia (u*A**2) and principal axes
 --------------------------------------------------------

   IA     313.487582          0.187575   -0.374902    0.907890
   IB     405.361453          0.974817   -0.042446   -0.218931
   IC     510.583448          0.120614    0.926092    0.357499


 Rotational constants
 --------------------

               A                   B                   C

           1612.1181           1246.7367            989.8069 MHz
            0.053774            0.041587            0.033016 cm-1


@  Nuclear repulsion energy :  198.729510257540 Hartree

  Number of floating/multiple basis set orbitals :    1


                     .---------------------------------------.
                     | Starting in Integral Section (HERMIT) |
                     `---------------------------------------'



 ***************************************************************************************
 ****************** Output from **INTEGRALS input processing (HERMIT) ******************
 ***************************************************************************************



    *************************************************************************
    ****************** Output from HERMIT input processing ******************
    *************************************************************************


 Default print level:        1

 * Nuclear model: Point charge

 Calculation of one- and two-electron Hamiltonian integrals.

 The following one-electron property integrals are calculated as requested:
          - overlap integrals
          - dipole length integrals

 Center of mass  (bohr):     -0.126482231733     -0.433197766009     -0.091215418860
 Operator center (bohr):      0.000000000000      0.000000000000      0.000000000000
 Gauge origin    (bohr):      0.000000000000      0.000000000000      0.000000000000
 Dipole origin   (bohr):      0.000000000000      0.000000000000      0.000000000000
 
  *********************************** 
  QMMM electrostatic potential: 
  Multipole order                                    0
  Isotropic polarization  
  *********************************** 
 
  ---------------- 
  QMMM information 
  ---------------- 
 
  MM coordinates in au 
  -------------------- 
     1      9.826209      9.007113     -7.213551
     2      8.610112     10.368166     -6.607737
     3      8.832707      7.462914     -7.074239
     4      4.922366      6.026064     -4.390981
     5      5.955555      7.199514     -3.351238
     6      6.257461      5.224711     -5.351491
     7      8.202067      8.520153     -1.112950
     8      8.069597      7.670340      0.632096
     9     10.056474      8.696888     -1.256330
    10      9.064107     -6.863351     -7.411118
    11      9.823768     -7.033302     -9.050388
    12     10.192026     -5.890794     -6.280227
    13      4.199414      2.392189      2.633783
    14      3.919379      4.210418      2.678668
    15      5.855972      2.482994      1.726087
    16    -10.159591      9.461638     -2.978720
    17    -11.287850      8.925337     -4.477610
    18     -9.310537     11.190469     -3.265333
    19     -2.373598     -8.973053      2.407880
    20     -1.834514    -10.272572      1.163973
    21     -2.960783     -9.969815      3.806991
    22      6.887216     -0.692227     -9.199039
    23      6.144926     -1.449055     -7.605764
    24      8.334858     -1.834248     -9.354462
    25      6.265449     10.863518      6.208587
    26      7.629028     11.893870      5.235089
    27      7.128793      9.974001      7.565260
    28     -2.591971      6.642576     -9.071441
    29     -3.014416      6.610290    -10.882252
    30     -1.804152      4.990992     -8.745972
    31     -7.587020      1.649506     -0.462822
    32     -8.940806      0.951810      0.676027
    33     -7.231203      3.527973      0.019277
    34      6.639409    -10.532005     -4.901814
    35      7.792397     -9.290561     -5.727372
    36      6.885315    -10.293762     -3.089568
    37      3.692769     -1.648064     -5.220652
    38      2.048894     -2.558228     -5.733781
    39      4.277042     -2.752163     -3.860535
    40    -11.431345      0.338233     -4.353916
    41    -10.544681     -0.887111     -5.470706
    42    -10.184203      1.063632     -3.259044
    43     10.862635     -7.625846     -0.947522
    44      9.560597     -8.799154     -0.222245
    45     10.532540     -5.873222     -0.670775
    46      9.387868      6.192880      3.754977
    47     11.001626      7.194010      3.543125
    48      9.011520      6.628572      5.528169
    49      3.680960    -10.405928    -11.058502
    50      2.816533    -11.035275    -12.609485
    51      3.658703    -11.819695     -9.858140
    52     -2.351617      7.402055     -1.648308
    53     -1.536141      6.074712     -2.765922
    54     -4.088262      6.784907     -0.851686
    55     11.080143      1.252382      2.841642
    56     11.829402      0.816050      4.551458
    57     10.362997      3.030336      3.141522
    58      1.558890    -10.055830     -4.759542
    59      3.345339    -10.234657     -5.545864
    60      0.438139    -11.341586     -5.488247
    61     -7.101715      0.743486     11.397740
    62     -6.686705      0.093693     12.956412
    63     -6.838754     -0.794233     10.248937
    64     -5.494549     -2.877252      8.209620
    65     -4.300357     -1.922046      7.312883
    66     -4.520257     -3.898314      9.376350
    67     -8.258972     -9.042175     -3.224504
    68     -7.549359     -8.520197     -4.874647
    69     -9.980146     -8.263258     -2.889444
    70     -3.059450     10.716219     -6.241183
    71     -3.291298     10.056083     -4.508051
    72     -2.940694      9.305397     -7.406921
    73     10.878242     -3.536575    -11.602310
    74     11.312390     -2.430677    -13.049109
    75     10.116706     -5.037159    -12.472924
    76     -2.610919     -6.639878     10.756142
    77     -3.167852     -8.019729      9.712253
    78     -3.001410     -7.186712     12.574835
    79      2.662887      7.702930      3.617830
    80      4.165828      8.356639      4.464453
    81      2.270088      8.795014      2.087155
    82     -4.413833     -1.810031     -7.543142
    83     -3.294584     -3.343131     -7.695329
    84     -4.840978     -1.715783     -5.746644
    85      5.674063     -0.480933      6.503545
    86      5.250908      0.783620      5.278719
    87      4.306833     -0.205194      7.757825
    88      3.956701     -5.402124     -9.736782
    89      3.454701     -7.154594    -10.224870
    90      5.576691     -5.763300     -8.725298
    91      2.617741     -0.324857     11.429837
    92      2.034305     -1.752352     10.602135
    93      4.131486     -0.936280     12.377561
    94      3.664580      5.605538     10.495563
    95      3.164785      6.570984     11.934261
    96      3.924704      3.812980     10.940193
    97     -7.544716      9.486178      8.860775
    98     -8.664213     10.211143     10.323672
    99     -6.647673      8.010196      9.429457
   100     -8.065754     -6.724318      5.324443
   101     -7.494865     -6.442708      3.593900
   102     -7.473992     -5.129550      6.181073
   103     -6.107973     -8.807947     -8.337086
   104     -7.268267     -9.873169     -9.430427
   105     -4.934247     -9.965522     -7.544618
   106      8.597373     -8.409338     11.083724
   107      7.108250     -9.289837     11.623898
   108      8.031143     -8.070829      9.282191
   109    -10.569278     11.586306    -10.981565
   110    -11.671659     10.589148     -9.756820
   111    -11.971632     12.283887    -12.061502
   112     -6.160668     -6.160619      0.477430
   113     -4.625294     -7.053295      1.003171
   114     -7.134202     -7.400612     -0.547888
   115     10.908831      0.734183      8.243900
   116     11.023132      2.312099      9.241203
   117      9.093275      0.735608      7.710449
   118      6.677808     -5.828652      6.759157
   119      7.679358     -6.700850      5.530641
   120      6.634292     -4.088562      6.291180
   121      1.795514    -11.105811      7.974153
   122     -0.056832    -10.842755      7.610781
   123      2.415924    -12.203870      6.731900
   124      9.602137     -2.386614     -0.257139
   125     10.213074     -1.327682      1.107863
   126     10.474529     -1.641407     -1.769914
   127     -4.302644      5.294243      9.447950
   128     -2.873786      4.864369      8.228826
   129     -4.965618      3.704111     10.072773
   130    -11.098397      4.944574    -11.466180
   131    -11.306872      4.655025     -9.666401
   132     -9.533657      4.005970    -11.812865
   133      8.759121      3.271547     -6.707912
   134      7.827365      2.071612     -7.808303
   135      9.966846      2.338075     -5.650992
   136      0.152849      4.812692      7.080466
   137      0.998522      5.765653      5.687620
   138      1.219049      5.273012      8.585118
   139     -0.827702      1.969726     -8.995508
   140      0.542117      1.178293    -10.089813
   141     -2.077195      0.687233     -8.620904
   142      1.370974     -4.486792      8.120027
   143      2.682585     -5.671627      8.458442
   144     -0.030540     -5.292416      9.217115
   145     -0.645623     -5.226956     -7.032816
   146     -0.285033     -6.838819     -6.233840
   147      0.651491     -5.061550     -8.324270
   148     -9.392619     -3.450294     -7.343170
   149    -10.608114     -3.661358     -8.879619
   150     -7.636593     -3.222399     -8.070971
   151      2.165278      8.406222     -8.739689
   152      0.407264      8.148890     -8.840577
   153      2.823634      7.513228     -7.189926
   154      8.632607      7.100141      9.300085
   155      7.029879      6.397360     10.092292
   156     10.208352      6.615480     10.302433
   157      6.900070    -10.374058      0.415205
   158      5.430540     -9.649029      1.258563
   159      6.915328    -12.175339      0.401918
   160      3.004542     -7.774158      2.413662
   161      3.229822     -6.799291      3.923281
   162      1.169803     -8.028486      2.636618
   163     11.159880     -9.431230      4.532487
   164     11.718103     -8.779775      2.897942
   165     12.260277     -8.485651      5.746051
   166     -6.939539      6.589586      0.203384
   167     -7.825331      7.538267     -1.219843
   168     -7.405506      7.556350      1.736071
   169     -4.506422    -10.054127      7.018182
   170     -5.513994    -11.558500      7.743287
   171     -6.031462     -8.799290      6.677561
   172     -9.862507      8.996706      4.040140
   173    -10.209688     10.757572      3.462800
   174     -9.272620      9.029106      5.875304
   175      0.796811     10.530820      0.070613
   176     -0.558066      9.315458     -0.610620
   177      1.159364     11.673789     -1.397473
 
  MM charges 
  ---------- 
     1     -0.674440
     2      0.337220
     3      0.337220
     4     -0.674440
     5      0.337220
     6      0.337220
     7     -0.674440
     8      0.337220
     9      0.337220
    10     -0.674440
    11      0.337220
    12      0.337220
    13     -0.674440
    14      0.337220
    15      0.337220
    16     -0.674440
    17      0.337220
    18      0.337220
    19     -0.674440
    20      0.337220
    21      0.337220
    22     -0.674440
    23      0.337220
    24      0.337220
    25     -0.674440
    26      0.337220
    27      0.337220
    28     -0.674440
    29      0.337220
    30      0.337220
    31     -0.674440
    32      0.337220
    33      0.337220
    34     -0.674440
    35      0.337220
    36      0.337220
    37     -0.674440
    38      0.337220
    39      0.337220
    40     -0.674440
    41      0.337220
    42      0.337220
    43     -0.674440
    44      0.337220
    45      0.337220
    46     -0.674440
    47      0.337220
    48      0.337220
    49     -0.674440
    50      0.337220
    51      0.337220
    52     -0.674440
    53      0.337220
    54      0.337220
    55     -0.674440
    56      0.337220
    57      0.337220
    58     -0.674440
    59      0.337220
    60      0.337220
    61     -0.674440
    62      0.337220
    63      0.337220
    64     -0.674440
    65      0.337220
    66      0.337220
    67     -0.674440
    68      0.337220
    69      0.337220
    70     -0.674440
    71      0.337220
    72      0.337220
    73     -0.674440
    74      0.337220
    75      0.337220
    76     -0.674440
    77      0.337220
    78      0.337220
    79     -0.674440
    80      0.337220
    81      0.337220
    82     -0.674440
    83      0.337220
    84      0.337220
    85     -0.674440
    86      0.337220
    87      0.337220
    88     -0.674440
    89      0.337220
    90      0.337220
    91     -0.674440
    92      0.337220
    93      0.337220
    94     -0.674440
    95      0.337220
    96      0.337220
    97     -0.674440
    98      0.337220
    99      0.337220
   100     -0.674440
   101      0.337220
   102      0.337220
   103     -0.674440
   104      0.337220
   105      0.337220
   106     -0.674440
   107      0.337220
   108      0.337220
   109     -0.674440
   110      0.337220
   111      0.337220
   112     -0.674440
   113      0.337220
   114      0.337220
   115     -0.674440
   116      0.337220
   117      0.337220
   118     -0.674440
   119      0.337220
   120      0.337220
   121     -0.674440
   122      0.337220
   123      0.337220
   124     -0.674440
   125      0.337220
   126      0.337220
   127     -0.674440
   128      0.337220
   129      0.337220
   130     -0.674440
   131      0.337220
   132      0.337220
   133     -0.674440
   134      0.337220
   135      0.337220
   136     -0.674440
   137      0.337220
   138      0.337220
   139     -0.674440
   140      0.337220
   141      0.337220
   142     -0.674440
   143      0.337220
   144      0.337220
   145     -0.674440
   146      0.337220
   147      0.337220
   148     -0.674440
   149      0.337220
   150      0.337220
   151     -0.674440
   152      0.337220
   153      0.337220
   154     -0.674440
   155      0.337220
   156      0.337220
   157     -0.674440
   158      0.337220
   159      0.337220
   160     -0.674440
   161      0.337220
   162      0.337220
   163     -0.674440
   164      0.337220
   165      0.337220
   166     -0.674440
   167      0.337220
   168      0.337220
   169     -0.674440
   170      0.337220
   171      0.337220
   172     -0.674440
   173      0.337220
   174      0.337220
   175     -0.674440
   176      0.337220
   177      0.337220
 
  MM isotropic polarizabilities in au 
  ----------------------------------- 
     1      5.739350
     2      2.308390
     3      2.308390
     4      5.739350
     5      2.308390
     6      2.308390
     7      5.739350
     8      2.308390
     9      2.308390
    10      5.739350
    11      2.308390
    12      2.308390
    13      5.739350
    14      2.308390
    15      2.308390
    16      5.739350
    17      2.308390
    18      2.308390
    19      5.739350
    20      2.308390
    21      2.308390
    22      5.739350
    23      2.308390
    24      2.308390
    25      5.739350
    26      2.308390
    27      2.308390
    28      5.739350
    29      2.308390
    30      2.308390
    31      5.739350
    32      2.308390
    33      2.308390
    34      5.739350
    35      2.308390
    36      2.308390
    37      5.739350
    38      2.308390
    39      2.308390
    40      5.739350
    41      2.308390
    42      2.308390
    43      5.739350
    44      2.308390
    45      2.308390
    46      5.739350
    47      2.308390
    48      2.308390
    49      5.739350
    50      2.308390
    51      2.308390
    52      5.739350
    53      2.308390
    54      2.308390
    55      5.739350
    56      2.308390
    57      2.308390
    58      5.739350
    59      2.308390
    60      2.308390
    61      5.739350
    62      2.308390
    63      2.308390
    64      5.739350
    65      2.308390
    66      2.308390
    67      5.739350
    68      2.308390
    69      2.308390
    70      5.739350
    71      2.308390
    72      2.308390
    73      5.739350
    74      2.308390
    75      2.308390
    76      5.739350
    77      2.308390
    78      2.308390
    79      5.739350
    80      2.308390
    81      2.308390
    82      5.739350
    83      2.308390
    84      2.308390
    85      5.739350
    86      2.308390
    87      2.308390
    88      5.739350
    89      2.308390
    90      2.308390
    91      5.739350
    92      2.308390
    93      2.308390
    94      5.739350
    95      2.308390
    96      2.308390
    97      5.739350
    98      2.308390
    99      2.308390
   100      5.739350
   101      2.308390
   102      2.308390
   103      5.739350
   104      2.308390
   105      2.308390
   106      5.739350
   107      2.308390
   108      2.308390
   109      5.739350
   110      2.308390
   111      2.308390
   112      5.739350
   113      2.308390
   114      2.308390
   115      5.739350
   116      2.308390
   117      2.308390
   118      5.739350
   119      2.308390
   120      2.308390
   121      5.739350
   122      2.308390
   123      2.308390
   124      5.739350
   125      2.308390
   126      2.308390
   127      5.739350
   128      2.308390
   129      2.308390
   130      5.739350
   131      2.308390
   132      2.308390
   133      5.739350
   134      2.308390
   135      2.308390
   136      5.739350
   137      2.308390
   138      2.308390
   139      5.739350
   140      2.308390
   141      2.308390
   142      5.739350
   143      2.308390
   144      2.308390
   145      5.739350
   146      2.308390
   147      2.308390
   148      5.739350
   149      2.308390
   150      2.308390
   151      5.739350
   152      2.308390
   153      2.308390
   154      5.739350
   155      2.308390
   156      2.308390
   157      5.739350
   158      2.308390
   159      2.308390
   160      5.739350
   161      2.308390
   162      2.308390
   163      5.739350
   164      2.308390
   165      2.308390
   166      5.739350
   167      2.308390
   168      2.308390
   169      5.739350
   170      2.308390
   171      2.308390
   172      5.739350
   173      2.308390
   174      2.308390
   175      5.739350
   176      2.308390
   177      2.308390


     ************************************************************************
     ************************** Output from HERINT **************************
     ************************************************************************



                      Nuclear contribution to dipole moments
                      --------------------------------------

                 au               Debye          C m (/(10**-30)

      x     -5.01737593       -12.75289674       -42.53908463
      y    -22.38889876       -56.90690076      -189.82098864
      z     -3.95776114       -10.05962476       -33.55529631



 Threshold for neglecting two-electron integrals:  1.00D-12
 HERMIT - Number of two-electron integrals written:    36820557 ( 41.2% )
 HERMIT - Megabytes written:                            421.615

  Time used in TWOINT     is       7.01 seconds
  Total CPU  time used in HERMIT:   7.21 seconds
  Total wall time used in HERMIT:  13.75 seconds


                        .----------------------------------.
                        | End of Integral Section (HERMIT) |
                        `----------------------------------'



                   .--------------------------------------------.
                   | Starting in Wave Function Section (SIRIUS) |
                   `--------------------------------------------'

NCCEXCI for singlet:    1
 CCSD_INPUT: core-val requested
 Requested number of virtual orbs per sym
                     1
 Indices of requested virtual orbs
                     1
 CCSD_INPUT: core-val requested
 Requested number of core orbs per sym
                     1
 Indices of requested core orbs
                     1

 *** Output from Huckel module :

     Using EWMO model:          T
     Using EHT  model:          F
     Number of Huckel orbitals each symmetry:   37

 EWMO - Energy Weighted Maximum Overlap - is a Huckel type method,
        which normally is better than Extended Huckel Theory.
 Reference: Linderberg and Ohrn, Propagators in Quantum Chemistry (Wiley, 1973)

 Huckel EWMO eigenvalues for symmetry :  1
          -20.684586     -20.684534     -20.684432     -20.684310     -15.675692
           -1.808329      -1.611002      -1.604358      -1.592929      -1.485145
           -0.822527      -0.797380      -0.785944      -0.772241      -0.765478
           -0.753557      -0.743104      -0.690514      -0.682646      -0.676808
           -0.626453      -0.615273      -0.592117      -0.563885      -0.553755
           -0.261474      -0.245347      -0.241365      -0.239866      -0.187080
           -0.183974      -0.179660      -0.179251      -0.177510      -0.151640
           -0.140544      -0.131090

 **********************************************************************
 *SIRIUS* a direct, restricted step, second order MCSCF program       *
 **********************************************************************

 
     Date and time (Linux)  : Thu Nov 29 00:34:10 2018
     Host name              : n-62-29-7                               

 Title lines from ".mol" input file:
                                                                             
                                                                             

 Print level on unit LUPRI =   2 is   0
 Print level on unit LUW4  =   2 is  11

@    (Integral direct) CC calculation.

@    This is a combination run starting with
@              a restricted, closed shell Hartree-Fock calculation


 Initial molecular orbitals are obtained according to
 ".MOSTART EWMO  " input option

@    QM part is embedded in an environment :

@         Model: QMMM

     Wave function specification
     ============================

     For the specification of the Coupled Cluster: see later.

@    Wave function type        --- CC ---
@    Number of closed shell electrons          50
@    Number of electrons in active shells       0
@    Total charge of the molecule               1

@    Spin multiplicity and 2 M_S                1         0
@    Total number of symmetries                 1 (point group: C1 )
@    Reference state symmetry                   1 (irrep name : A  )

     Orbital specifications
     ======================
@    Abelian symmetry species          All |    1
@                                          |  A  
                                       --- |  ---
@    Occupied SCF orbitals              25 |   25
@    Secondary orbitals                138 |  138
@    Total number of orbitals          163 |  163
@    Number of basis functions         163 |  163

     Optimization information
     ========================
@    Number of configurations                 1
@    Number of orbital rotations           3450
     ------------------------------------------
@    Total number of variables             3451

     Maximum number of Fock   iterations      0
     Maximum number of DIIS   iterations     60
     Maximum number of QC-SCF iterations     60
     Threshold for SCF convergence     1.00D-07


 Changes of defaults for CC:
 ---------------------------


 -Implicit frozen core calculation
 -Excitation energies calculated
 -One-photon absorption strengths will be calculated
 -Oscillator strengths calculated
  
* Read MO coefficients from SIRIUS.RST with label "NEWORB  " and header info: 29Nov18  REORTHO 


 ***********************************************
 ***** DIIS acceleration of SCF iterations *****
 ***********************************************

 C1-DIIS algorithm; max error vectors =    8
 -----------------------------------------------------------------------------

 *** DIIS iteration number    1
 RDSUPM called. NFMAT, ISYMDM(1:NFMAT)                     1
                     1

Calculating AOSUPINT
     (Precalculated two-electron integrals are transformed to P-supermatrix elements.
      Threshold for discarding integrals :  1.00D-12 )
  CPU  time used in FORMSUP    is   4.90 seconds
  WALL time used in FORMSUP    is  35.83 seconds

 ITDIIS, energy, error norm, change in energy, scr.thr., difden:
@ DIIS iter.   1    -360.261391127        4.02414D+00   -3.60D+02  -20    F

 (DIIS_RED) Control Parameters C2DIIS =         F NEVC =    1


 (DIIS_RED) B matrix:

               Column   1
       1      16.19368469
    ==== End of matrix output ====

 DIIS C vector; C2DIIS = F, LAMBDA = -1.62D+01
    1.000000
* Read MO coefficients from SIRIUS.RST with label "NEWORB  " and header info: 29Nov18  DIIS   1
      Virial theorem: -V/T =      2.003163
@      MULPOP N       0.13; H       0.17; H       0.16; H       0.18; H       0.15; O      -0.59; O      -0.59; O      -0.61; O      -0.56; H       0.33; 
@             H       0.34; H       0.32; H       0.34; H       0.33; H       0.33; H       0.31; H       0.30; 
   1  Level shift: doubly occupied orbital energies shifted by -2.00D-01

 DIIS Fock eigenvalues in symmetry 1
      -20.82372      -20.82159      -20.80190      -20.80179      -16.45779
       -1.72448       -1.63787       -1.63421       -1.62727       -1.62181
       -1.21715       -1.19019       -1.16766       -1.01235       -1.00103
       -0.99932       -0.98658       -0.89479       -0.88860       -0.87241
       -0.87172       -0.84755       -0.84599       -0.83503       -0.83149
       -0.00005        0.00382        0.05809        0.06603        0.09175
        0.11148        0.15774        0.16237        0.18754        0.19319
        0.20135        0.21361        0.23204        0.25905        0.28662
        0.30662        0.42630        0.43693        0.45325        0.46981
        0.48578        0.50894        0.51881        0.53157        0.54555
        0.67831        0.71959        0.73479        0.84398        0.85790
        0.88467        0.89640        0.92061        0.96086        0.98438
        0.99492        1.00703        1.01869        1.02797        1.04493
        1.06480        1.08530        1.12140        1.23142        1.27266
        1.30798        1.33101        1.34762        1.36416        1.38123
        1.39254        1.39566        1.41016        1.42272        1.47473
        1.51114        1.54480        1.55920        1.57924        1.59124
        1.60977        1.69235        1.76569        1.77770        1.80702
        1.83717        1.86970        2.01456        2.04299        2.05822
        2.07514        2.08597        2.09045        2.14145        2.17472
        2.18773        2.21539        2.23692        2.25842        2.28850
        2.43902        2.44187        2.47253        2.49808        2.51270
        2.56735        2.59885        2.60966        2.67283        2.68423
        2.69130        2.73444        2.74006        2.75442        2.99523
        3.05294        3.07843        3.10740        3.30428        3.34605
        3.35292        3.36389        3.37253        3.38821        3.40473
        3.42516        3.52120        3.54396        3.55637        3.56178
        3.85354        3.86092        3.86297        3.86749        4.07400
        4.12136        4.13113        4.13828        4.65457        4.76972
        4.92728        5.20515        5.28486        5.30369        5.30873
        5.70069        5.72338        5.74857        5.78260        5.92530
        5.94351        5.96065        5.97999       36.38444       51.45270
       51.46523       51.46620       51.47976
 Time used in FCKEIG, thr_jaco:   4.90D-02  1.61D-01  1.71D-04
 CPU and wall times used in FCKEIG, THR_FCKEIG:   5.00D-02  1.61D-01  4.02D-02
 -----------------------------------------------------------------------------

 *** DIIS iteration number    2
 RDSUPM called. NFMAT, ISYMDM(1:NFMAT)                     1
                     1

 ITDIIS, energy, error norm, change in energy, scr.thr., difden:
@ DIIS iter.   2    -361.169370750        1.15469D+00   -9.08D-01  -20    F

 (DIIS_RED) Control Parameters C2DIIS =         F NEVC =    2


 (DIIS_RED) B matrix:

               Column   1     Column   2
       1      16.19368469
       2       0.64779231     1.33331278
    ==== End of matrix output ====

 DIIS C vector; C2DIIS = F, LAMBDA = -1.30D+00
    0.042234    0.957766
* Read MO coefficients from SIRIUS.RST with label "NEWORB  " and header info: 29Nov18  DIIS   2
      Virial theorem: -V/T =      2.002593
@      MULPOP N      -0.54; H       0.33; H       0.33; H       0.31; H       0.35; O      -0.58; O      -0.59; O      -0.56; O      -0.56; H       0.32; 
@             H       0.32; H       0.33; H       0.32; H       0.30; H       0.30; H       0.29; H       0.32; 
   2  Level shift: doubly occupied orbital energies shifted by -1.00D-01

 DIIS Fock eigenvalues in symmetry 1
      -20.77954      -20.76752      -20.76030      -20.75540      -15.62499
       -1.52931       -1.52818       -1.52166       -1.51407       -1.37623
       -0.89269       -0.88895       -0.87766       -0.87641       -0.86176
       -0.85765       -0.84742       -0.78641       -0.77234       -0.76414
       -0.76104       -0.72755       -0.71331       -0.70070       -0.69664
       -0.00005        0.06186        0.10158        0.10717        0.13302
        0.16117        0.18216        0.20205        0.21492        0.22490
        0.24824        0.29113        0.32429        0.35775        0.37860
        0.39214        0.46672        0.47701        0.49637        0.50907
        0.51995        0.55131        0.56992        0.57316        0.63109
        0.80795        0.86641        0.87180        0.87804        0.90855
        0.91301        0.92633        0.96696        1.01101        1.01780
        1.03183        1.04654        1.05669        1.06350        1.08260
        1.17826        1.18659        1.23367        1.28216        1.32339
        1.36365        1.37535        1.40020        1.41670        1.42960
        1.44477        1.45273        1.46944        1.48920        1.55455
        1.58397        1.62071        1.63614        1.68219        1.68979
        1.69982        1.77128        1.82899        1.84100        1.86500
        1.90018        1.97097        2.09407        2.10762        2.11628
        2.12980        2.13769        2.14599        2.24198        2.27649
        2.29307        2.29683        2.31234        2.36748        2.39439
        2.52601        2.53334        2.56464        2.57137        2.61570
        2.67098        2.69616        2.72572        2.74344        2.75582
        2.78341        2.82682        2.95302        2.97233        3.18941
        3.26649        3.30552        3.32435        3.34176        3.37098
        3.38291        3.40273        3.41900        3.42331        3.43747
        3.51146        3.56572        3.57408        3.58335        3.58758
        3.87743        3.88010        3.88400        3.88504        4.09374
        4.14394        4.14854        4.15932        5.05117        5.15864
        5.20120        5.27526        5.29773        5.31295        5.32972
        5.69566        5.72210        5.75073        5.78742        5.93614
        5.96129        5.97511        5.99122       37.10012       51.39960
       51.40983       51.42098       51.42945
 Time used in FCKEIG, thr_jaco:   3.50D-02  6.40D-02  4.91D-05
 CPU and wall times used in FCKEIG, THR_FCKEIG:   3.50D-02  6.40D-02  1.15D-02
 -----------------------------------------------------------------------------

 *** DIIS iteration number    3
 RDSUPM called. NFMAT, ISYMDM(1:NFMAT)                     1
                     1

 ITDIIS, energy, error norm, change in energy, scr.thr., difden:
@ DIIS iter.   3    -361.245677633        3.75983D-01   -7.63D-02  -20    F

 (DIIS_RED) Control Parameters C2DIIS =         F NEVC =    3


 (DIIS_RED) B matrix:

               Column   1     Column   2     Column   3
       1      16.19368469
       2       0.64779231     1.33331278
       3       0.82007789    -0.00538022     0.14136349
    ==== End of matrix output ====

 DIIS C vector; C2DIIS = F, LAMBDA = -9.58D-02
   -0.046017    0.097997    0.948020
* Read MO coefficients from SIRIUS.RST with label "NEWORB  " and header info: 29Nov18  DIIS   3
      Virial theorem: -V/T =      2.003328
@      MULPOP N      -0.34; H       0.30; H       0.30; H       0.28; H       0.31; O      -0.64; O      -0.66; O      -0.61; O      -0.63; H       0.35; 
@             H       0.35; H       0.36; H       0.35; H       0.32; H       0.32; H       0.32; H       0.35; 
   3  Level shift: doubly occupied orbital energies shifted by -5.00D-02

 DIIS Fock eigenvalues in symmetry 1
      -20.68600      -20.67278      -20.67118      -20.65920      -15.78244
       -1.46039       -1.45752       -1.45424       -1.44313       -1.37659
       -0.86879       -0.83893       -0.82806       -0.81938       -0.80798
       -0.80278       -0.78961       -0.71573       -0.70479       -0.70084
       -0.69226       -0.64884       -0.63775       -0.62874       -0.62313
       -0.00005        0.06729        0.10757        0.11360        0.14003
        0.16428        0.18578        0.20720        0.22079        0.22965
        0.25173        0.29327        0.32500        0.35926        0.37900
        0.39227        0.47725        0.48760        0.50527        0.51925
        0.53163        0.56224        0.58030        0.58393        0.63125
        0.80135        0.85425        0.86568        0.89199        0.91711
        0.92608        0.93811        0.98012        1.02713        1.03027
        1.04181        1.06073        1.07274        1.07813        1.09783
        1.17553        1.18524        1.23033        1.28966        1.33811
        1.37738        1.38689        1.41437        1.43139        1.44366
        1.45850        1.46765        1.48280        1.50002        1.56016
        1.59481        1.63079        1.64610        1.68757        1.69546
        1.70606        1.77943        1.83987        1.85305        1.87852
        1.91217        1.97248        2.10603        2.11944        2.12986
        2.14735        2.15281        2.15517        2.25246        2.28963
        2.30505        2.30993        2.31692        2.36695        2.39845
        2.53961        2.54313        2.56741        2.58289        2.62124
        2.67699        2.70371        2.73155        2.75678        2.76850
        2.79505        2.83383        2.91933        2.94109        3.18247
        3.23705        3.28943        3.32210        3.35508        3.39547
        3.41010        3.42079        3.44123        3.44834        3.44978
        3.50840        3.58563        3.60126        3.60915        3.61395
        3.90448        3.90612        3.91009        3.91202        4.12206
        4.17347        4.17517        4.18959        4.96737        5.08110
        5.23104        5.24037        5.31315        5.33922        5.34603
        5.72532        5.75512        5.78492        5.82117        5.96895
        5.99551        6.00977        6.02163       36.89899       51.44307
       51.44932       51.46605       51.47544
 Time used in FCKEIG, thr_jaco:   3.20D-02  4.20D-02  1.60D-05
 CPU and wall times used in FCKEIG, THR_FCKEIG:   3.20D-02  4.20D-02  3.76D-03
 -----------------------------------------------------------------------------

 *** DIIS iteration number    4
 RDSUPM called. NFMAT, ISYMDM(1:NFMAT)                     1
                     1

 ITDIIS, energy, error norm, change in energy, scr.thr., difden:
@ DIIS iter.   4    -361.255959869        9.38752D-02   -1.03D-02  -20    F

 (DIIS_RED) Control Parameters C2DIIS =         F NEVC =    4


 (DIIS_RED) B matrix:

               Column   1     Column   2     Column   3     Column   4
       1      16.19368469
       2       0.64779231     1.33331278
       3       0.82007789    -0.00538022     0.14136349
       4       0.05200571     0.07888113     0.00484057     0.00881255
    ==== End of matrix output ====

 DIIS C vector; C2DIIS = F, LAMBDA = -4.66D-03
   -0.000674   -0.058979   -0.001730    1.061384
* Read MO coefficients from SIRIUS.RST with label "NEWORB  " and header info: 29Nov18  DIIS   4
      Virial theorem: -V/T =      2.003344
@      MULPOP N      -0.41; H       0.31; H       0.31; H       0.29; H       0.32; O      -0.66; O      -0.68; O      -0.62; O      -0.64; H       0.35; 
@             H       0.36; H       0.37; H       0.36; H       0.33; H       0.33; H       0.32; H       0.36; 
   4  Level shift: doubly occupied orbital energies shifted by -1.25D-02

 DIIS Fock eigenvalues in symmetry 1
      -20.66280      -20.65111      -20.64481      -20.63688      -15.71201
       -1.42757       -1.42527       -1.42074       -1.41030       -1.32684
       -0.82089       -0.79231       -0.78495       -0.77922       -0.77303
       -0.76896       -0.75554       -0.68099       -0.66880       -0.66433
       -0.65701       -0.61230       -0.60043       -0.59111       -0.58572
       -0.00005        0.06788        0.10721        0.11295        0.13934
        0.16539        0.18636        0.20746        0.22063        0.23081
        0.25402        0.29612        0.32894        0.36479        0.38490
        0.39840        0.47760        0.48765        0.50580        0.51772
        0.53095        0.56086        0.57980        0.58291        0.63611
        0.80734        0.86192        0.87249        0.89253        0.91931
        0.92727        0.93935        0.98053        1.02600        1.03034
        1.04258        1.05938        1.07014        1.07749        1.09620
        1.17967        1.19054        1.23463        1.29213        1.33795
        1.37713        1.38700        1.41436        1.42917        1.44251
        1.45739        1.46591        1.48135        1.50026        1.56224
        1.59568        1.63150        1.64617        1.69091        1.69986
        1.71074        1.78298        1.83980        1.85222        1.87712
        1.91196        1.97751        2.10712        2.11972        2.12949
        2.14453        2.15125        2.15699        2.25330        2.28943
        2.30640        2.31059        2.31894        2.37030        2.40053
        2.53780        2.54493        2.57348        2.58290        2.62649
        2.68206        2.70573        2.73397        2.75498        2.76709
        2.79531        2.83637        2.93118        2.95260        3.19124
        3.24790        3.29806        3.32825        3.35295        3.39317
        3.40639        3.41964        3.43921        3.44605        3.44802
        3.51080        3.58387        3.59743        3.60687        3.61088
        3.90035        3.90243        3.90705        3.90817        4.11845
        4.16942        4.17256        4.18585        4.98621        5.09884
        5.22674        5.25401        5.30923        5.33259        5.33879
        5.72063        5.74842        5.77785        5.81383        5.96165
        5.98739        6.00227        6.01600       36.93153       51.42924
       51.43835       51.45072       51.46056
 Time used in FCKEIG, thr_jaco:   2.90D-02  2.47D-01  4.00D-06
 CPU and wall times used in FCKEIG, THR_FCKEIG:   2.90D-02  2.47D-01  9.39D-04
 -----------------------------------------------------------------------------

 *** DIIS iteration number    5
 RDSUPM called. NFMAT, ISYMDM(1:NFMAT)                     1
                     1

 ITDIIS, energy, error norm, change in energy, scr.thr., difden:
@ DIIS iter.   5    -361.256975876        3.03595D-02   -1.02D-03  -20    F

 (DIIS_RED) Control Parameters C2DIIS =         F NEVC =    5


 (DIIS_RED) B matrix:

               Column   1     Column   2     Column   3     Column   4     Column   5
       1      16.19368469
       2       0.64779231     1.33331278
       3       0.82007789    -0.00538022     0.14136349
       4       0.05200571     0.07888113     0.00484057     0.00881255
       5       0.02310782     0.00747210     0.00586593     0.00081041     0.00092170
    ==== End of matrix output ====

 DIIS C vector; C2DIIS = F, LAMBDA = -6.29D-04
    0.001127   -0.012171   -0.045583    0.111838    0.944789
* Read MO coefficients from SIRIUS.RST with label "NEWORB  " and header info: 29Nov18  DIIS   5
      Virial theorem: -V/T =      2.002970
@      MULPOP N      -0.40; H       0.31; H       0.31; H       0.29; H       0.32; O      -0.67; O      -0.69; O      -0.64; O      -0.65; H       0.36; 
@             H       0.37; H       0.38; H       0.37; H       0.33; H       0.33; H       0.33; H       0.36; 

 DIIS Fock eigenvalues in symmetry 1
      -20.64316      -20.63012      -20.62672      -20.61632      -15.69553
       -1.41254       -1.40970       -1.40616       -1.39487       -1.31258
       -0.80680       -0.77797       -0.77064       -0.76498       -0.75901
       -0.75420       -0.74091       -0.66610       -0.65441       -0.65014
       -0.64220       -0.59643       -0.58472       -0.57533       -0.56956
       -0.00005        0.06834        0.10758        0.11333        0.13974
        0.16587        0.18680        0.20794        0.22103        0.23145
        0.25479        0.29701        0.32996        0.36591        0.38622
        0.39963        0.47843        0.48844        0.50653        0.51818
        0.53175        0.56136        0.58054        0.58366        0.63728
        0.80887        0.86332        0.87397        0.89471        0.92100
        0.92923        0.94131        0.98203        1.02776        1.03175
        1.04407        1.06077        1.07137        1.07926        1.09796
        1.18110        1.19197        1.23616        1.29354        1.33946
        1.37827        1.38828        1.41559        1.42955        1.44344
        1.45824        1.46643        1.48214        1.50135        1.56331
        1.59640        1.63230        1.64697        1.69195        1.70083
        1.71181        1.78401        1.84014        1.85253        1.87741
        1.91238        1.97871        2.10807        2.12073        2.13059
        2.14555        2.15200        2.15818        2.25431        2.29085
        2.30758        2.31169        2.32007        2.37142        2.40151
        2.53797        2.54565        2.57462        2.58339        2.62764
        2.68304        2.70649        2.73460        2.75504        2.76723
        2.79567        2.83707        2.93279        2.95425        3.19273
        3.24986        3.30027        3.33066        3.35562        3.39552
        3.40903        3.42266        3.44216        3.44826        3.45099
        3.51349        3.58647        3.60054        3.60900        3.61385
        3.90330        3.90503        3.90938        3.91116        4.12125
        4.17274        4.17495        4.18910        4.98861        5.10125
        5.23106        5.25652        5.31270        5.33745        5.34380
        5.72383        5.75250        5.78237        5.81847        5.96538
        5.99185        6.00650        6.01894       36.93544       51.43627
       51.44393       51.45901       51.46856
 Time used in FCKEIG, thr_jaco:   2.70D-02  3.10D-02  1.29D-06
 CPU and wall times used in FCKEIG, THR_FCKEIG:   2.70D-02  3.10D-02  3.04D-04
 -----------------------------------------------------------------------------

 *** DIIS iteration number    6
 RDSUPM called. NFMAT, ISYMDM(1:NFMAT)                     1
                     1

 ITDIIS, energy, error norm, change in energy, scr.thr., difden:
@ DIIS iter.   6    -361.257066278        1.10134D-02   -9.04D-05  -20    F

 (DIIS_RED) Control Parameters C2DIIS =         F NEVC =    6


 (DIIS_RED) B matrix:

               Column   1     Column   2     Column   3     Column   4     Column   5     Column   6
       1      16.19368469
       2       0.64779231     1.33331278
       3       0.82007789    -0.00538022     0.14136349
       4       0.05200571     0.07888113     0.00484057     0.00881255
       5       0.02310782     0.00747210     0.00586593     0.00081041     0.00092170
       6      -0.00489299    -0.00018321     0.00077089     0.00056983     0.00002477     0.00012130
    ==== End of matrix output ====

 DIIS C vector; C2DIIS = F, LAMBDA = -3.68D-05
    0.000794    0.007094   -0.009850   -0.135323    0.116751    1.020534
* Read MO coefficients from SIRIUS.RST with label "NEWORB  " and header info: 29Nov18  DIIS   6
      Virial theorem: -V/T =      2.003228
@      MULPOP N      -0.40; H       0.31; H       0.31; H       0.28; H       0.32; O      -0.67; O      -0.69; O      -0.64; O      -0.65; H       0.36; 
@             H       0.37; H       0.38; H       0.37; H       0.33; H       0.33; H       0.33; H       0.37; 

 DIIS Fock eigenvalues in symmetry 1
      -20.64522      -20.63255      -20.62814      -20.61866      -15.69759
       -1.41311       -1.41035       -1.40648       -1.39552       -1.31312
       -0.80740       -0.77849       -0.77120       -0.76538       -0.75941
       -0.75486       -0.74160       -0.66700       -0.65522       -0.65083
       -0.64313       -0.59670       -0.58493       -0.57560       -0.56992
       -0.00005        0.06823        0.10742        0.11320        0.13956
        0.16579        0.18669        0.20783        0.22092        0.23133
        0.25470        0.29690        0.32980        0.36584        0.38602
        0.39942        0.47821        0.48821        0.50635        0.51787
        0.53149        0.56117        0.58027        0.58341        0.63709
        0.80855        0.86297        0.87366        0.89452        0.92070
        0.92899        0.94102        0.98170        1.02732        1.03143
        1.04375        1.06036        1.07094        1.07891        1.09758
        1.18080        1.19170        1.23584        1.29333        1.33910
        1.37796        1.38794        1.41526        1.42919        1.44312
        1.45788        1.46615        1.48178        1.50098        1.56300
        1.59618        1.63204        1.64664        1.69170        1.70067
        1.71169        1.78388        1.83987        1.85232        1.87711
        1.91211        1.97854        2.10771        2.12038        2.13020
        2.14503        2.15165        2.15792        2.25395        2.29046
        2.30722        2.31134        2.31990        2.37102        2.40114
        2.53760        2.54538        2.57445        2.58316        2.62757
        2.68288        2.70618        2.73433        2.75474        2.76696
        2.79537        2.83682        2.93225        2.95372        3.19256
        3.24927        3.29953        3.32992        3.35490        3.39504
        3.40826        3.42189        3.44138        3.44776        3.45017
        3.51269        3.58573        3.59970        3.60854        3.61302
        3.90249        3.90430        3.90881        3.91032        4.12046
        4.17188        4.17441        4.18821        4.98765        5.10029
        5.22997        5.25555        5.31196        5.33620        5.34252
        5.72306        5.75133        5.78109        5.81718        5.96421
        5.99052        6.00520        6.01816       36.93341       51.43424
       51.44250       51.45663       51.46624
 Time used in FCKEIG, thr_jaco:   2.70D-02  1.15D-01  4.69D-07
 CPU and wall times used in FCKEIG, THR_FCKEIG:   2.70D-02  1.15D-01  1.10D-04
 -----------------------------------------------------------------------------

 *** DIIS iteration number    7
 RDSUPM called. NFMAT, ISYMDM(1:NFMAT)                     1
                     1

 ITDIIS, energy, error norm, change in energy, scr.thr., difden:
@ DIIS iter.   7    -361.257079578        2.30522D-03   -1.33D-05  -20    F

 (DIIS_RED) Control Parameters C2DIIS =         F NEVC =    7


 (DIIS_RED) B matrix:

               Column   1     Column   2     Column   3     Column   4     Column   5     Column   6
       1      16.19368469
       2       0.64779231     1.33331278
       3       0.82007789    -0.00538022     0.14136349
       4       0.05200571     0.07888113     0.00484057     0.00881255
       5       0.02310782     0.00747210     0.00586593     0.00081041     0.00092170
       6      -0.00489299    -0.00018321     0.00077089     0.00056983     0.00002477     0.00012130
       7       0.00031860     0.00020723    -0.00000752     0.00000793     0.00004862     0.00000107

               Column   7
       7       0.00000531
    ==== End of matrix output ====

 DIIS C vector; C2DIIS = F, LAMBDA = -1.19D-06
   -0.000249   -0.000920    0.005693    0.024216   -0.102855   -0.141368    1.215483
* Read MO coefficients from SIRIUS.RST with label "NEWORB  " and header info: 29Nov18  DIIS   7
      Virial theorem: -V/T =      2.003166
@      MULPOP N      -0.40; H       0.31; H       0.31; H       0.28; H       0.32; O      -0.67; O      -0.69; O      -0.64; O      -0.66; H       0.36; 
@             H       0.37; H       0.38; H       0.37; H       0.33; H       0.33; H       0.33; H       0.37; 

 DIIS Fock eigenvalues in symmetry 1
      -20.64492      -20.63221      -20.62798      -20.61833      -15.69714
       -1.41295       -1.41018       -1.40636       -1.39536       -1.31289
       -0.80722       -0.77833       -0.77108       -0.76521       -0.75932
       -0.75473       -0.74149       -0.66695       -0.65518       -0.65080
       -0.64308       -0.59650       -0.58475       -0.57541       -0.56970
       -0.00005        0.06829        0.10746        0.11324        0.13959
        0.16584        0.18673        0.20788        0.22096        0.23139
        0.25477        0.29698        0.32990        0.36596        0.38615
        0.39956        0.47828        0.48829        0.50642        0.51789
        0.53155        0.56120        0.58032        0.58346        0.63723
        0.80869        0.86312        0.87381        0.89465        0.92081
        0.92910        0.94113        0.98181        1.02744        1.03153
        1.04385        1.06044        1.07099        1.07901        1.09767
        1.18095        1.19184        1.23599        1.29345        1.33920
        1.37803        1.38804        1.41534        1.42919        1.44318
        1.45793        1.46617        1.48183        1.50106        1.56310
        1.59624        1.63211        1.64670        1.69180        1.70078
        1.71181        1.78398        1.83991        1.85235        1.87712
        1.91215        1.97866        2.10778        2.12046        2.13027
        2.14507        2.15169        2.15803        2.25403        2.29055
        2.30730        2.31141        2.32002        2.37114        2.40123
        2.53761        2.54545        2.57459        2.58320        2.62768
        2.68300        2.70625        2.73439        2.75475        2.76697
        2.79540        2.83689        2.93246        2.95394        3.19272
        3.24948        3.29974        3.33012        3.35507        3.39515
        3.40841        3.42206        3.44155        3.44787        3.45034
        3.51289        3.58590        3.59986        3.60866        3.61319
        3.90263        3.90443        3.90891        3.91046        4.12063
        4.17205        4.17453        4.18839        4.98794        5.10057
        5.23019        5.25583        5.31210        5.33643        5.34275
        5.72319        5.75153        5.78130        5.81739        5.96440
        5.99073        6.00540        6.01827       36.93385       51.43454
       51.44267       51.45696       51.46657
 Time used in FCKEIG, thr_jaco:   2.40D-02  2.80D-02  9.81D-08
 CPU and wall times used in FCKEIG, THR_FCKEIG:   2.40D-02  2.80D-02  2.31D-05
 -----------------------------------------------------------------------------

 *** DIIS iteration number    8
 RDSUPM called. NFMAT, ISYMDM(1:NFMAT)                     1
                     1

 ITDIIS, energy, error norm, change in energy, scr.thr., difden:
@ DIIS iter.   8    -361.257080157        3.52810D-04   -5.78D-07  -20    F

 (DIIS_RED) Control Parameters C2DIIS =         F NEVC =    8


 (DIIS_RED) B matrix:

               Column   1     Column   2     Column   3     Column   4     Column   5     Column   6
       1      16.19368469
       2       0.64779231     1.33331278
       3       0.82007789    -0.00538022     0.14136349
       4       0.05200571     0.07888113     0.00484057     0.00881255
       5       0.02310782     0.00747210     0.00586593     0.00081041     0.00092170
       6      -0.00489299    -0.00018321     0.00077089     0.00056983     0.00002477     0.00012130
       7       0.00031860     0.00020723    -0.00000752     0.00000793     0.00004862     0.00000107
       8       0.00011130    -0.00005103     0.00000851     0.00000168     0.00000008     0.00000164

               Column   7     Column   8
       7       0.00000531
       8       0.00000034     0.00000012
    ==== End of matrix output ====

 DIIS C vector; C2DIIS = F, LAMBDA = -4.91D-08
    0.000025    0.000115   -0.001083   -0.002786    0.022560    0.002384   -0.282102    1.260887
* Read MO coefficients from SIRIUS.RST with label "NEWORB  " and header info: 29Nov18  DIIS   8
      Virial theorem: -V/T =      2.003183
@      MULPOP N      -0.40; H       0.31; H       0.31; H       0.28; H       0.32; O      -0.67; O      -0.69; O      -0.64; O      -0.66; H       0.36; 
@             H       0.37; H       0.38; H       0.37; H       0.33; H       0.33; H       0.33; H       0.37; 

 DIIS Fock eigenvalues in symmetry 1
      -20.64494      -20.63223      -20.62793      -20.61836      -15.69717
       -1.41295       -1.41019       -1.40634       -1.39537       -1.31290
       -0.80724       -0.77834       -0.77107       -0.76522       -0.75930
       -0.75473       -0.74149       -0.66697       -0.65520       -0.65082
       -0.64312       -0.59650       -0.58475       -0.57541       -0.56971
       -0.00005        0.06829        0.10746        0.11324        0.13959
        0.16584        0.18673        0.20788        0.22096        0.23139
        0.25477        0.29698        0.32989        0.36595        0.38614
        0.39955        0.47828        0.48829        0.50642        0.51789
        0.53155        0.56121        0.58031        0.58346        0.63722
        0.80868        0.86311        0.87380        0.89465        0.92080
        0.92910        0.94112        0.98181        1.02743        1.03153
        1.04385        1.06044        1.07099        1.07900        1.09766
        1.18094        1.19183        1.23598        1.29345        1.33920
        1.37803        1.38803        1.41533        1.42919        1.44318
        1.45792        1.46617        1.48182        1.50105        1.56309
        1.59624        1.63210        1.64670        1.69179        1.70077
        1.71180        1.78397        1.83991        1.85235        1.87712
        1.91214        1.97865        2.10777        2.12046        2.13027
        2.14506        2.15169        2.15802        2.25402        2.29055
        2.30729        2.31140        2.32001        2.37113        2.40122
        2.53761        2.54544        2.57458        2.58320        2.62767
        2.68299        2.70625        2.73439        2.75475        2.76697
        2.79540        2.83688        2.93244        2.95392        3.19271
        3.24946        3.29972        3.33010        3.35506        3.39516
        3.40840        3.42205        3.44153        3.44788        3.45032
        3.51287        3.58589        3.59985        3.60867        3.61317
        3.90262        3.90443        3.90892        3.91045        4.12062
        4.17204        4.17454        4.18837        4.98792        5.10055
[...]
 | 1 1 1 1 |   7   1  10   1 |     1249        1 |       779377 |   -0.065670  |
 | 1 1 1 1 |  11   1  10   1 |     1253        1 |       784379 |   -0.093020  |
 | 1 1 1 1 |  26   1  10   1 |     1268        1 |       803279 |   -0.124725  |
 | 1 1 1 1 |  27   1  10   1 |     1269        1 |       804547 |    0.080047  |
 | 1 1 1 1 |  28   1  10   1 |     1270        1 |       805816 |   -0.089393  |
 | 1 1 1 1 |  27   1  15   1 |     1959        1 |      1917862 |   -0.069044  |
 | 1 1 1 1 |  26   1  20   1 |     2648        1 |      3504629 |   -0.074745  |
 | 1 1 1 1 |  28   1  21   1 |     2788        1 |      3885079 |   -0.068896  |
 +=============================================================================+


          Norm of Printed Amplitude Vector :             0.8490

          Printed all single excitations greater than 0.381666

          Printed all double excitations greater than 0.064601



+======================================================================+
| contributions of excitation levels to right eigenvectors as computed |
| from the (RE|RE) self overlap                                        |
+----------------------------------------------------------------------+
| sym | multi | state |    E / eV  | % singles | % doubles | % triples |
+======================================================================+
|    1|   1   |   1   |  411.04008 |  88.2002  |  11.7998  |   0.0000  |
+======================================================================+





+======================================================================+
| contributions of excitation levels to excited states as computed     |
| from the (LE|RE) overlap                                             |
+----------------------------------------------------------------------+
| sym | multi | state |    E / eV  | % singles | % doubles | % triples |
+======================================================================+
|    1|   1   |   1   |  411.04008 |  79.1454  |  20.8546  |   0.0000  |
+======================================================================+



 --------------------------
 Symmetry class Nr.:     1
 Multiplicity      :     3
 --------------------------

 Length of Excitation vectors in this class is:   8404200
 No Excitation Energies calculated in this symmetry class
     

   *******************************************************************
   *                                                                 *
   *--------   OUTPUT FROM PROPERTY AND SYMMETRY ANALYSIS   ---------*
   *                                                                 *
   *******************************************************************



                         +-------------------------------+
                         ! REQUESTED PROPERTY OPERATORS: !
                         +-------------------------------+

             Index   Oper. Label  Symmetry  Transp.  PDBS  Atom
             --------------------------------------------------
                1     HAM0            1        1      T      0
                2     XDIPLEN         1        1      F      0
                3     YDIPLEN         1        1      F      0
                4     ZDIPLEN         1        1      F      0
             --------------------------------------------------




                         +-------------------------------+
                         ! REQUESTED EXPECTATION VALUES: !
                         +-------------------------------+

                       Index   Oper. Label  Symmetry
                       -----------------------------
                       -----------------------------




                       +------------------------------------+
                       ! REQUESTED EFFECTIVE FOCK MATRICES: !
                       +------------------------------------+

                       Index   Oper. Label  Symmetry
                       -----------------------------
                       -----------------------------




                        +----------------------------------+
                        ! REQUESTED FIRST ORDER M-VECTORS: !
                        +----------------------------------+

               Index   State Symmetry  Frequency
               --------------------------------------------------
                  1             1    1     1.510545D+01
               --------------------------------------------------


      

    *******************************************************************
    *          SOLVING COUPLED CLUSTER RESPONSE EQUATIONS             *
    *******************************************************************



 
 +======================================================================+
 !                     RHS & ETA VECTORS TO COMPUTE:                    !
 +======================================================================+
 | TYPE | # VEC. |  NEEDED FOR:                                         |
 +----------------------------------------------------------------------+
 +======================================================================+



 +======================================================================+
 !                       LINEAR EQUATIONS TO SOLVE:                     !
 +======================================================================+
 | TYPE | # VEC. |  EQUATION:                                           |
 +----------------------------------------------------------------------+
 |  M1  |    1   |  first-order ground - excited state multipliers      |
 +======================================================================+



 +======================================================================+
 !                F MATRIX TRANSFORMATIONS TO COMPUTE:                  !
 +======================================================================+
 | TYPE | # VEC. |  TRANSFORMED:                                        |
 +----------------------------------------------------------------------+
 |  FR  |    1   |  right eigenvectors (RE)                             |
 +======================================================================+





 Testing R1 list: 

 List nr.  Label     Symmetry      Frequency      T1-norm        T2-norm


 Testing L1 list: 

 List nr.  Label     Symmetry      Frequency      T1-norm        T2-norm
  Solvent 1-order response equations converged in                     0 
  solvent iterations
 SONIAPRI                     0
 CCEQ_STR: CVSEPARATION =  T
 CCEQ_STR: IONIZATION =  T
 CCEQ_STR: REMOVE_CORE =  F
 could not find required file CCM1_1___1
 IOPTSV is    33 ... program continues nevertheless.
 Vector nr.  1 of type M1  and symmetry  1 was not found on file.
     M1  start vector nr.  1 of symmetry  1 generated from gradient
 CCEQ_STR: freeze VALENCE OR VIRT
 CCEQ_SOL: CVSEPARA=     T
 CCEQ_SOL: LIONISAT=     T
 CCEQ_SOL: REMOVE_CORE =  F



 ----- COUPLED CLUSTER RESPONSE SOLVER -----

    Iter  #Vectors  time (min)   residual
    --------------------------------------
 CCRED CVS/IONIS sigma_                     1 
 project out valence occupied or virtual
      1       1         1.34     0.13E+01
 CCRED CVS/IONIS sigma_                     2 
 project out valence occupied or virtual
      2       1         1.32     0.23E+00
 CCRED CVS/IONIS sigma_                     3 
 project out valence occupied or virtual
      3       1         1.33     0.30E-01
 CCRED CVS/IONIS sigma_                     4 
 project out valence occupied or virtual
                    -1  vectors with norm le:  1.000000000000000E-035  REMOVED

 CCORT,**WARNING**  number vectors added is zero after check for vector norm , NBADD :    0

 CCORT, number vectors added is zero , NBADD :    0

 CCORT, number vectors added is zero , NBADD :    0

 CCORT, number vectors added is zero , NBADD :    0

 CCORT, number vectors added is zero , NBADD :    0

 *** MICROITERATIONS STOPPED DUE TO LINEAR DEPENDENCE BETWEEN ALL NEW TRIAL VECTORS
                     0  trial vectors converged
  LINEAR DEPENDENCE BETWEEN                     1  NON CONVERGED TRIAL VECTORS
      4       1         1.34     0.27E-02

 ***  CCEQ_SOL -MICROITERATIONS STOPPED  
     LINEAR DEPENDENCE BETWEEN ALL NEW TRIAL VECTORS
    --------------------------------------
    converged in  4 iterations
    threshold:    0.10E-08


         Routine          Time (min)
         ---------------------------
         CC_TRDRV            5.34
         CCRED               0.04
         CCNEX               0.06
         ---------------------------
         Total time          5.44


  Total CPU  time used in CCEQ_SOLV:  5 minutes 26 seconds
  Total wall time used in CCEQ_SOLV:  7 minutes 43 seconds


 xxxxxxxxxxxxxxxxxxxxxxxxxxxxxxxxxxxxx

 
 Solution of CC response equations completed.
 

 *******************************************************************
 *                                                                 *
 *--------  OUTPUT FROM COUPLED CLUSTER LINEAR RESPONSE   ---------*
 *                                                                 *
 *--------      CALCULATION OF SECOND ORDER RESIDUES      ---------*
 *                                                                 *
 *******************************************************************



                  +---------------------------------------------+
                  ! CC_SOPR: Calculation of CCSD       Residues !
                  +---------------------------------------------+

 Doing the Mf*CsiA
 Doing the Mf*CsiA
 Doing the Mf*CsiA


 CCSD  Right transition moments in atomic units:
 -----------------------------------------------

  1      15.105445  <XDIPLEN |f> =      -0.00000001
  1      15.105445  <YDIPLEN |f> =      -0.00000000
  1      15.105445  <ZDIPLEN |f> =      -0.00000002


 CCSD  Left  transition moments in atomic units:
 -----------------------------------------------

  1      15.105445  <f|XDIPLEN > =      -0.00000001
  1      15.105445  <f|YDIPLEN > =      -0.00000000
  1      15.105445  <f|ZDIPLEN > =      -0.00000001


 CCSD  linear response residue property in atomic units:
 -------------------------------------------------------

 RES{<<XDIPLEN ,XDIPLEN >>(15.105445)} =     0.00000000 (   0.00000001)
 RES{<<XDIPLEN ,YDIPLEN >>(15.105445)} =     0.00000000 (   0.00000000)
 RES{<<XDIPLEN ,ZDIPLEN >>(15.105445)} =     0.00000000 (   0.00000001)
 RES{<<YDIPLEN ,XDIPLEN >>(15.105445)} =     0.00000000 (   0.00000000)
 RES{<<YDIPLEN ,YDIPLEN >>(15.105445)} =     0.00000000 (   0.00000000)
 RES{<<YDIPLEN ,ZDIPLEN >>(15.105445)} =     0.00000000 (   0.00000001)
 RES{<<ZDIPLEN ,XDIPLEN >>(15.105445)} =     0.00000000 (   0.00000001)
 RES{<<ZDIPLEN ,YDIPLEN >>(15.105445)} =     0.00000000 (   0.00000001)
 RES{<<ZDIPLEN ,ZDIPLEN >>(15.105445)} =     0.00000000 (   0.00000002)


 CCSD  Transition strength matrix for state nr.  1 of symmetry 1
 CCSD  excitation energy:15.10544532

 Gauge: length

               Column   1     Column   2     Column   3
       1     6.690561D-17   1.943938D-17   1.326147D-16
       2     1.943938D-17   5.646141D-18   3.852948D-17
       3     1.326147D-16   3.852948D-17   2.628564D-16
    ==== End of matrix output ====

 Principal values of diagonalized transition strength matrix:

             a.u.               
 1       0.00000000
 2       0.00000000
 3       0.00000000

 Principal axis of diagonalized transition strength matrix:


               Column   1     Column   2     Column   3
       1       1.00000000     0.00000000     0.00000000
       2       0.00000000     1.00000000     0.00000000
       3       0.00000000     0.00000000     1.00000000
    ==== End of matrix output ====


 CCSD   oscillator strength matrix for state nr.  1 of symmetry 1
 CCSD  excitation energy:15.10544532


               Column   1     Column   2     Column   3
       1     6.737594D-16   1.957603D-16   1.335469D-15
       2     1.957603D-16   5.685832D-17   3.880033D-16
       3     1.335469D-15   3.880033D-16   2.647042D-15
    ==== End of matrix output ====

 Principal values of diagonalized oscillator strength matrix:

             a.u.               
 1       0.00000000
 2       0.00000000
 3       0.00000000

 Principal axis of diagonalized oscillator strength matrix:


               Column   1     Column   2     Column   3
       1       1.00000000     0.00000000     0.00000000
       2       0.00000000     1.00000000     0.00000000
       3       0.00000000     0.00000000     1.00000000
    ==== End of matrix output ====

  Total time for      9 linear response residues:       3.18 seconds.
  

 *******************************************************************************
 *******************************************************************************
 *                                                                             *
 *                                                                             *
 *                   SUMMARY OF COUPLED CLUSTER CALCULATION                    *
 *                                                                             *
 *                                                                             *
 *******************************************************************************
 *******************************************************************************

                                                                                
                                                                                
            Total SCF   energy:                  -361.2570801744                
            Total MP2   energy:                  -362.3653691819                
            Total CCSD  energy:                  -362.4061739310                
                                                                                
                                                                                
            Total SCF   energy:                  -361.2570801744                
            Total RSTAR energy:                  -362.4061739310                
            Total CCSD  energy:                  -362.4063125807                
                                                                                
                                                                                
            Total SCF   energy:                  -361.2570801744                
            Total RSTAR energy:                  -362.4063125807                
            Total CCSD  energy:                  -362.4063129041                
                                                                                
                                                                                
            Total SCF   energy:                  -361.2570801744                
            Total RSTAR energy:                  -362.4063129041                
            Total CCSD  energy:                  -362.4063129855                
                                                                                
                                                                                
            Total SCF   energy:                  -361.2570801744                
            Total RSTAR energy:                  -362.4063129855                
            Total CCSD  energy:                  -362.4063129868                
                                                                                
                                                                                
            Total SCF   energy:                  -361.2570801744                
            Total RSTAR energy:                  -362.4063129868                
            Total CCSD  energy:                  -362.4063129869                
            CCSD Total  energy:                  -362.8714306448                
            CCSD E(QM/MM)     :                    -0.4608815614                
                                                                                
                                                                                
                                                                                
 +=============================================================================+
 |  sym. | Exci.  |        CCSD       Excitation energies            | ||T1||  |
 |(spin, |        +------------------------------------------------------------+
 | spat) |        |     Hartree    |       eV.      |     cm-1       |    %    |
 +=============================================================================+
 | ^1A   |    1   |    15.1054453  |     411.04008  |   3315262.012  |  88.20  |
 +=============================================================================+
                                                                                
                                                                                
     Total energies in Hartree:                                                 
             1 ^1A       -347.3051037643                                        
                                                                                
                                                                                
 +=============================================================================+
 |  sym. | Exci.  |        CCSD       Length   Gauge Oscillator Strength       |
 |(spin, |        +------------------------------------------------------------+
 | spat) |        | Dipole Strength(a.u.) | Oscillator strength  | Direction   |
 +=============================================================================+
 | ^1A   |    1   |        0.0000000      |      0.0000000       |    -        |
 +=============================================================================+

  1 a.u. =        27.21138 eV.  
  1 a.u. =    219474.62934 cm-1.
  

 *******************************************************************************
 *******************************************************************************
 *                                                                             *
 *                                                                             *
 *                      END OF COUPLED CLUSTER CALCULATION                     *
 *                                                                             *
 *                                                                             *
 *******************************************************************************
 *******************************************************************************


 CPU and wall time for CC :    7922.529   12613.035

 
     Date and time (Linux)  : Thu Nov 29 04:07:52 2018
     Host name              : n-62-29-7                               


                      .-------------------------------------.
                      | End of Coupled Cluster Section (CC) |
                      `-------------------------------------'

  Total CPU  time used in DALTON:   2 hours 14 minutes  7 seconds
  Total wall time used in DALTON:   3 hours 33 minutes 59 seconds

 
     Date and time (Linux)  : Thu Nov 29 04:07:53 2018
     Host name              : n-62-29-7                               
  

 +---------------------------------------------------------+ 
 | List of selected calculated molecular properties (a.u.) | 
 +---------------------------------------------------------+ 

  Properties are read from unit number                      4

 CCSD       properties :
 #  1 1 CCSD/MM  Ground state Energy =    -362.8714306448
 #  2 1 E_QM/MM  Ground state Energy =      -0.4608815614
 #  3 1 Sy: 1 Sp: 1 Exc:  1 E_tot:   -347.3051037643 w:     15.1054453192 E_grs:   -362.4105490835
 #  4 1 Exctot   Excited state Energy =    -347.3051037643
 #  5 1 |<O|XDIPLEN |i(15.105445)>| =     0.00000001
 #  7 1 |<O|YDIPLEN |i(15.105445)>| =     0.00000000
 #  9 1 |<O|ZDIPLEN |i(15.105445)>| =     0.00000002

 THE_END   
