

     ************************************************************************
     *************** Dalton - An Electronic Structure Program ***************
     ************************************************************************

    This is output from DALTON release Dalton2017.alpha (2016)
         ( Web site: http://daltonprogram.org )

   ----------------------------------------------------------------------------

    NOTE:
     
    Dalton is an experimental code for the evaluation of molecular
    properties using (MC)SCF, DFT, CI, and CC wave functions.
    The authors accept no responsibility for the performance of
    the code or for the correctness of the results.
     
    The code (in whole or part) is provided under a licence and
    is not to be reproduced for further distribution without
    the written permission of the authors or their representatives.
     
    See the home page "http://daltonprogram.org" for further information.
     
    If results obtained with this code are published,
    the appropriate citations would be both of:
     
       K. Aidas, C. Angeli, K. L. Bak, V. Bakken, R. Bast,
       L. Boman, O. Christiansen, R. Cimiraglia, S. Coriani,
       P. Dahle, E. K. Dalskov, U. Ekstroem,
       T. Enevoldsen, J. J. Eriksen, P. Ettenhuber, B. Fernandez,
       L. Ferrighi, H. Fliegl, L. Frediani, K. Hald, A. Halkier,
       C. Haettig, H. Heiberg, T. Helgaker, A. C. Hennum,
       H. Hettema, E. Hjertenaes, S. Hoest, I.-M. Hoeyvik,
       M. F. Iozzi, B. Jansik, H. J. Aa. Jensen, D. Jonsson,
       P. Joergensen, J. Kauczor, S. Kirpekar,
       T. Kjaergaard, W. Klopper, S. Knecht, R. Kobayashi, H. Koch,
       J. Kongsted, A. Krapp, K. Kristensen, A. Ligabue,
       O. B. Lutnaes, J. I. Melo, K. V. Mikkelsen, R. H. Myhre,
       C. Neiss, C. B. Nielsen, P. Norman, J. Olsen,
       J. M. H. Olsen, A. Osted, M. J. Packer, F. Pawlowski,
       T. B. Pedersen, P. F. Provasi, S. Reine, Z. Rinkevicius,
       T. A. Ruden, K. Ruud, V. Rybkin, P. Salek, C. C. M. Samson,
       A. Sanchez de Meras, T. Saue, S. P. A. Sauer,
       B. Schimmelpfennig, K. Sneskov, A. H. Steindal,
       K. O. Sylvester-Hvid, P. R. Taylor, A. M. Teale,
       E. I. Tellgren, D. P. Tew, A. J. Thorvaldsen, L. Thoegersen,
       O. Vahtras, M. A. Watson, D. J. D. Wilson, M. Ziolkowski
       and H. Agren,
       "The Dalton quantum chemistry program system",
       WIREs Comput. Mol. Sci. 2014, 4:269–284 (doi: 10.1002/wcms.1172)
     
    and
     
       Dalton, a Molecular Electronic Structure Program,
       Release Dalton2017.alpha (2016), see http://daltonprogram.org
   ----------------------------------------------------------------------------

    Authors in alphabetical order (major contribution(s) in parenthesis):

  Kestutis Aidas,           Vilnius University,           Lithuania   (QM/MM)
  Celestino Angeli,         University of Ferrara,        Italy       (NEVPT2)
  Keld L. Bak,              UNI-C,                        Denmark     (AOSOPPA, non-adiabatic coupling, magnetic properties)
  Vebjoern Bakken,          University of Oslo,           Norway      (DALTON; geometry optimizer, symmetry detection)
  Radovan Bast,             UiT The Arctic U. of Norway,  Norway      (DALTON installation and execution frameworks)
  Pablo Baudin,             University of Valencia,       Spain       (Cholesky excitation energies)
  Linus Boman,              NTNU,                         Norway      (Cholesky decomposition and subsystems)
  Ove Christiansen,         Aarhus University,            Denmark     (CC module)
  Renzo Cimiraglia,         University of Ferrara,        Italy       (NEVPT2)
  Sonia Coriani,            University of Trieste,        Italy       (CC module, MCD in RESPONS)
  Janusz Cukras,            University of Trieste,        Italy       (MChD in RESPONS)
  Paal Dahle,               University of Oslo,           Norway      (Parallelization)
  Erik K. Dalskov,          UNI-C,                        Denmark     (SOPPA)
  Thomas Enevoldsen,        Univ. of Southern Denmark,    Denmark     (SOPPA)
  Janus J. Eriksen,         Aarhus University,            Denmark     (Polarizable embedding model, TDA)
  Rasmus Faber,             University of Copenhagen,     Denmark     (Vib.avg. NMR with SOPPA, parallel AO-SOPPA)
  Berta Fernandez,          U. of Santiago de Compostela, Spain       (doublet spin, ESR in RESPONS)
  Lara Ferrighi,            Aarhus University,            Denmark     (PCM Cubic response)
  Heike Fliegl,             University of Oslo,           Norway      (CCSD(R12))
  Luca Frediani,            UiT The Arctic U. of Norway,  Norway      (PCM)
  Bin Gao,                  UiT The Arctic U. of Norway,  Norway      (Gen1Int library)
  Christof Haettig,         Ruhr-University Bochum,       Germany     (CC module)
  Kasper Hald,              Aarhus University,            Denmark     (CC module)
  Asger Halkier,            Aarhus University,            Denmark     (CC module)
  Frederik Beyer Hansen,    University of Copenhagen,     Denmark     (Parallel AO-SOPPA)
  Erik D. Hedegaard,        Univ. of Southern Denmark,    Denmark     (Polarizable embedding model, QM/MM)
  Hanne Heiberg,            University of Oslo,           Norway      (geometry analysis, selected one-electron integrals)
  Trygve Helgaker,          University of Oslo,           Norway      (DALTON; ABACUS, ERI, DFT modules, London, and much more)
  Alf Christian Hennum,     University of Oslo,           Norway      (Parity violation)
  Hinne Hettema,            University of Auckland,       New Zealand (quadratic response in RESPONS; SIRIUS supersymmetry)
  Eirik Hjertenaes,         NTNU,                         Norway      (Cholesky decomposition)
  Pi A. B. Haase,           University of Copenhagen,     Denmark     (Triplet AO-SOPPA)
  Maria Francesca Iozzi,    University of Oslo,           Norway      (RPA)
  Brano Jansik              Technical Univ. of Ostrava    Czech Rep.  (DFT cubic response)
  Hans Joergen Aa. Jensen,  Univ. of Southern Denmark,    Denmark     (DALTON; SIRIUS, RESPONS, ABACUS modules, London, and much more)
  Dan Jonsson,              UiT The Arctic U. of Norway,  Norway      (cubic response in RESPONS module)
  Poul Joergensen,          Aarhus University,            Denmark     (RESPONS, ABACUS, and CC modules)
  Maciej Kaminski,          University of Warsaw,         Poland      (CPPh in RESPONS)
  Joanna Kauczor,           Linkoeping University,        Sweden      (Complex polarization propagator (CPP) module)
  Sheela Kirpekar,          Univ. of Southern Denmark,    Denmark     (Mass-velocity & Darwin integrals)
  Wim Klopper,              KIT Karlsruhe,                Germany     (R12 code in CC, SIRIUS, and ABACUS modules)
  Stefan Knecht,            ETH Zurich,                   Switzerland (Parallel CI and MCSCF)
  Rika Kobayashi,           Australian National Univ.,    Australia   (DIIS in CC, London in MCSCF)
  Henrik Koch,              NTNU,                         Norway      (CC module, Cholesky decomposition)
  Jacob Kongsted,           Univ. of Southern Denmark,    Denmark     (Polarizable embedding model, QM/MM)
  Andrea Ligabue,           University of Modena,         Italy       (CTOCD, AOSOPPA)
  Nanna H. List             Univ. of Southern Denmark,    Denmark     (Polarizable embedding model)
  Ola B. Lutnaes,           University of Oslo,           Norway      (DFT Hessian)
  Juan I. Melo,             University of Buenos Aires,   Argentina   (LRESC, Relativistic Effects on NMR Shieldings)
  Kurt V. Mikkelsen,        University of Copenhagen,     Denmark     (MC-SCRF and QM/MM)
  Rolf H. Myhre,            NTNU,                         Norway      (Cholesky, subsystems and ECC2)
  Christian Neiss,          Univ. Erlangen-Nuernberg,     Germany     (CCSD(R12))
  Christian B. Nielsen,     University of Copenhagen,     Denmark     (QM/MM)
  Patrick Norman,           Linkoeping University,        Sweden      (Cubic response and complex frequency response in RESPONS)
  Jeppe Olsen,              Aarhus University,            Denmark     (SIRIUS CI/density modules)
  Jogvan Magnus H. Olsen,   Univ. of Southern Denmark,    Denmark     (Polarizable embedding model, QM/MM)
  Anders Osted,             Copenhagen University,        Denmark     (QM/MM)
  Martin J. Packer,         University of Sheffield,      UK          (SOPPA)
  Filip Pawlowski,          Kazimierz Wielki University,  Poland      (CC3)
  Morten N. Pedersen,       Univ. of Southern Denmark,    Denmark     (Polarizable embedding model)
  Thomas B. Pedersen,       University of Oslo,           Norway      (Cholesky decomposition)
  Patricio F. Provasi,      University of Northeastern,   Argentina   (Analysis of coupling constants in localized orbitals)
  Zilvinas Rinkevicius,     KTH Stockholm,                Sweden      (open-shell DFT, ESR)
  Elias Rudberg,            KTH Stockholm,                Sweden      (DFT grid and basis info)
  Torgeir A. Ruden,         University of Oslo,           Norway      (Numerical derivatives in ABACUS)
  Kenneth Ruud,             UiT The Arctic U. of Norway,  Norway      (DALTON; ABACUS magnetic properties and much more)
  Pawel Salek,              KTH Stockholm,                Sweden      (DALTON; DFT code)
  Claire C. M. Samson       University of Karlsruhe       Germany     (Boys localization, r12 integrals in ERI)
  Alfredo Sanchez de Meras, University of Valencia,       Spain       (CC module, Cholesky decomposition)
  Trond Saue,               Paul Sabatier University,     France      (direct Fock matrix construction)
  Stephan P. A. Sauer,      University of Copenhagen,     Denmark     (SOPPA(CCSD), SOPPA prop., AOSOPPA, vibrational g-factors)
  Bernd Schimmelpfennig,    Forschungszentrum Karlsruhe,  Germany     (AMFI module)
  Kristian Sneskov,         Aarhus University,            Denmark     (Polarizable embedding model, QM/MM)
  Arnfinn H. Steindal,      UiT The Arctic U. of Norway,  Norway      (parallel QM/MM, Polarizable embedding model)
  Casper Steinmann,         Univ. of Southern Denmark,    Denmark     (QFIT, Polarizable embedding model)
  K. O. Sylvester-Hvid,     University of Copenhagen,     Denmark     (MC-SCRF)
  Peter R. Taylor,          VLSCI/Univ. of Melbourne,     Australia   (Symmetry handling ABACUS, integral transformation)
  Andrew M. Teale,          University of Nottingham,     England     (DFT-AC, DFT-D)
  David P. Tew,             University of Bristol,        England     (CCSD(R12))
  Olav Vahtras,             KTH Stockholm,                Sweden      (triplet response, spin-orbit, ESR, TDDFT, open-shell DFT)
  David J. Wilson,          La Trobe University,          Australia   (DFT Hessian and DFT magnetizabilities)
  Hans Agren,               KTH Stockholm,                Sweden      (SIRIUS module, RESPONS, MC-SCRF solvation model)
 --------------------------------------------------------------------------------

     Date and time (Linux)  : Mon Dec  3 12:33:00 2018
     Host name              : n-62-29-6                               

 * Work memory size             :  1280000000 =  9.537 gigabytes.

 * Directories for basis set searches:
   1) /zhome/d7/7/119775/My_Codes/dalton-private/build2016/basis/diffs
   2) /zhome/37/3/129401/NH3NH4/CCSD/AIMD_SAMPLING/nh4_4h2o_nd
   3) /zhome/9a/4/124800/source/dalton/build-mlcc/basis


Compilation information
-----------------------

 Who compiled             | rfaber
 Host                     | hpclogin1
 System                   | Linux-2.6.32-696.1.1.el6.x86_64
 CMake generator          | Unix Makefiles
 Processor                | x86_64
 64-bit integers          | ON
 MPI                      | OFF
 Fortran compiler         | /opt/intel/2016update2/compilers_and_libraries_201
                          | 6.2.181/linux/bin/intel64/ifort
 Fortran compiler version | ifort (IFORT) 16.0.2 20160204
 C compiler               | /opt/intel/2016update2/compilers_and_libraries_201
                          | 6.2.181/linux/bin/intel64/icc
 C compiler version       | icc (ICC) 16.0.2 20160204
 C++ compiler             | /opt/intel/2016update2/compilers_and_libraries_201
                          | 6.2.181/linux/bin/intel64/icpc
 C++ compiler version     | icpc (ICC) 16.0.2 20160204
 Static linking           | OFF
 Last Git revision        | bb4d1599ca5680a9f3980451fc8bbefdba436d59
 Git branch               | mlcc
 Configuration time       | 2017-06-13 16:11:03.928841


   Content of the .dal input file
 ----------------------------------

**DALTON
.RUN WAVE FUNCTIONS
*QMMM
.QMMM
**INTEGRALS
.DIPLEN
**WAVE FUNCTIONS
.CC
*PRINT
!To check the origin of excit
.PRINTL
   0 11
*SCF INP
.THRESH
1.0D-7
!*ORBITAL INPUT
!.MOSTART
!NEWORB
*CC INP
!.RESTART
.CCSD
.THRLEQ
 1.0D-9
.THRENR
 1.0D-10
.FROIMP
4
0
.PRINT
 1
.MAX IT
 1200
.MAXRED
 1200
.MXLRV
1199
*CCSLV
.CCMM
.MXSLIT
200
.MXINIT
4 5
*CCEXCI
.NCCEXC
 1
.IONISATION
1
1
.CVSEPARA
1
1
*CCLRSD
.DIPOLE
**END OF DALTON INPUT


   Content of the .mol file
 ----------------------------

ATOMBASIS


Atomtypes=5 Charge=1 Nosymm Angstrom
   7.00000    1    Basis=6-311G**
N          0.000000        0.000000        0.000000
   1.00000    4    Basis=6-311G**
H         -0.217856        0.864295       -0.563032
H          0.723841       -0.574121       -0.564986
H         -0.812407       -0.551443        0.223610
H          0.357694        0.235429        0.921514
   8.00000    4    Basis=6-311G**
O          0.178322        2.294297       -1.547433
O         -2.438214       -1.068542        0.277902
O          1.789362        0.585209        2.299934
O          2.242845       -1.269284       -1.298202
   1.00000    8    Basis=6-311G**
H         -0.367404        2.288122       -2.372068
H          1.163543        2.389079       -1.724843
H         -2.618532       -2.066363        0.391360
H         -3.186353       -0.566818        0.713776
H          2.059631        1.521700        2.300094
H          1.409705        0.376459        3.219086
H          2.378332       -2.049839       -0.708880
H          3.011107       -0.662996       -1.155563
   0.00000    1    Basis=diffs
X          0.000000        0.000000        0.000000


       *******************************************************************
       *********** Output from DALTON general input processing ***********
       *******************************************************************

 --------------------------------------------------------------------------------
   Overall default print level:    0
   Print level for DALTON.STAT:    1

    HERMIT 1- and 2-electron integral sections will be executed
    "Old" integral transformation used (limited to max 255 basis functions)
    Wave function sections will be executed (SIRIUS module)
 --------------------------------------------------------------------------------


 Changes of defaults for *QMMM  :
 --------------------------------

 +------------------+
 |  WORD: | CHANGE: |
 +------------------+
 |   QMMM |       T |
 +------------------+
 


   ****************************************************************************
   *************** Output of molecule and basis set information ***************
   ****************************************************************************


    The two title cards from your ".mol" input:
    ------------------------------------------------------------------------
 1:                                                                         
 2:                                                                         
    ------------------------------------------------------------------------

  Coordinates are entered in Angstrom and converted to atomic units.
          - Conversion factor : 1 bohr = 0.52917721 A

  Atomic type no.    1
  --------------------
  Nuclear charge:   7.00000
  Number of symmetry independent centers:    1
  Number of basis sets to read;    2
  The basis set is "6-311G**" from the basis set library.
  Basis set file used for this atomic type with Z =   7 :
     "/zhome/9a/4/124800/source/dalton/build-mlcc/basis/6-311G**"

  Info about the basis set file: your basis has no documentation.
  Basis set: 6-311G**                                                                        

  Atomic type no.    2
  --------------------
  Nuclear charge:   1.00000
  Number of symmetry independent centers:    4
  Number of basis sets to read;    2
  The basis set is "6-311G**" from the basis set library.
  Basis set file used for this atomic type with Z =   1 :
     "/zhome/9a/4/124800/source/dalton/build-mlcc/basis/6-311G**"

  Info about the basis set file: your basis has no documentation.
  Basis set: 6-311G**                                                                        

  Atomic type no.    3
  --------------------
  Nuclear charge:   8.00000
  Number of symmetry independent centers:    4
  Number of basis sets to read;    2
  The basis set is "6-311G**" from the basis set library.
  Basis set file used for this atomic type with Z =   8 :
     "/zhome/9a/4/124800/source/dalton/build-mlcc/basis/6-311G**"

  Info about the basis set file: your basis has no documentation.
  Basis set: 6-311G**                                                                        

  Atomic type no.    4
  --------------------
  Nuclear charge:   1.00000
  Number of symmetry independent centers:    8
  Number of basis sets to read;    2
  The basis set is "6-311G**" from the basis set library.
  Basis set file used for this atomic type with Z =   1 :
     "/zhome/9a/4/124800/source/dalton/build-mlcc/basis/6-311G**"

  Info about the basis set file: your basis has no documentation.
  Basis set: 6-311G**                                                                        

  Atomic type no.    5
  --------------------
  Nuclear charge:   0.00000
  Number of symmetry independent centers:    1
  Number of basis sets to read;    2
  The basis set is "diffs" from the basis set library.
  Basis set file used for this atomic type with Z =   0 :
     "/zhome/9a/4/124800/source/dalton/build-mlcc/basis/diffs"

  Info about the basis set file: your basis has no documentation.
  Basis set: diffs                                                                           


                         SYMGRP: Point group information
                         -------------------------------

@    Point group: C1 


                                 Isotopic Masses
                                 ---------------

                           N          14.003074
                           H           1.007825
                           H           1.007825
                           H           1.007825
                           H           1.007825
                           O          15.994915
                           O          15.994915
                           O          15.994915
                           O          15.994915
                           H           1.007825
                           H           1.007825
                           H           1.007825
                           H           1.007825
                           H           1.007825
                           H           1.007825
                           H           1.007825
                           H           1.007825

                       Total mass:    90.076634 amu
                       Natural abundance:  98.500 %

 Center-of-mass coordinates (a.u.):    0.677202    0.207211   -0.075483


  Atoms and basis sets
  --------------------

  Number of atom types :    5
  Total number of atoms:   18

  label    atoms   charge   prim   cont     basis
  ----------------------------------------------------------------------
  N           1    7.0000    31    18      [11s5p1d|4s3p1d]                                   
  H           4    1.0000     8     6      [5s1p|3s1p]                                        
  O           4    8.0000    31    18      [11s5p1d|4s3p1d]                                   
  H           8    1.0000     8     6      [5s1p|3s1p]                                        
  X           1    0.0000     1     1      [1s|1s]                                            
  ----------------------------------------------------------------------
  total:     18   51.0000   252   163
  ----------------------------------------------------------------------
  Spherical harmonic basis used.

  Threshold for neglecting AO integrals:  1.00D-12


  Cartesian Coordinates (a.u.)
  ----------------------------

  Total number of coordinates:   54
  N       :     1  x   0.0000000000    2  y   0.0000000000    3  z   0.0000000000
  H       :     4  x  -0.4116881747    5  y   1.6332808412    6  z  -1.0639762796
  H       :     7  x   1.3678612480    8  y  -1.0849314526    9  z  -1.0676688045
  H       :    10  x  -1.5352267320   11  y  -1.0420762435   12  z   0.4225616588
  H       :    13  x   0.6759436966   14  y   0.4448963319   15  z   1.7414090803
  O       :    16  x   0.3369797421   17  y   4.3355929794   18  z  -2.9242245668
  O       :    19  x  -4.6075566941   20  y  -2.0192517331   21  z   0.5251586696
  O       :    22  x   3.3814041185   23  y   1.1058847359   24  z   4.3462453656
  O       :    25  x   4.2383627908   26  y  -2.3985991348   27  z  -2.4532462349
  H       :    28  x  -0.6942929372   29  y   4.3239239206   30  z  -4.4825588699
  H       :    31  x   2.1987776047   32  y   4.5147050010   33  z  -3.2594808786
  H       :    34  x  -4.9483083295   35  y  -3.9048601448   36  z   0.7395632163
  H       :    37  x  -6.0213345076   38  y  -1.0711307827   39  z   1.3488411546
  H       :    40  x   3.8921385085   41  y   2.8755962444   42  z   4.3465477217
  H       :    43  x   2.6639563670   44  y   0.7114044073   45  z   6.0831909128
  H       :    46  x   4.4943961143   47  y  -3.8736343103   48  z  -1.3395890555
  H       :    49  x   5.6901675631   50  y  -1.2528808620   51  z  -2.1836975902
  X       :    52  x   0.0000000000   53  y   0.0000000000   54  z   0.0000000000

  Max    interatomic separation is    6.4740 Angstrom (   12.2340 Bohr)
  between atoms   17 and   13, "H     " and "H     ".

  Min HX interatomic separation is    0.9747 Angstrom (    1.8419 Bohr)

  Min YX interatomic separation is    2.6765 Angstrom (    5.0579 Bohr)


  Bond distances (Angstrom):
  --------------------------

                  atom 1     atom 2       distance
                  ------     ------       --------
  bond distance:  H          N            1.054264
  bond distance:  H          N            1.082945
  bond distance:  H          N            1.007023
  bond distance:  H          N            1.016150
  bond distance:  H          O            0.988877
  bond distance:  H          O            1.005544
  bond distance:  H          O            1.020311
  bond distance:  H          O            1.000712
  bond distance:  H          O            0.974711
  bond distance:  H          O            1.016148
  bond distance:  H          O            0.987382
  bond distance:  H          O            0.989018


  Bond angles (degrees):
  ----------------------

                  atom 1     atom 2     atom 3         angle
                  ------     ------     ------         -----
  bond angle:     H          N          H            107.105
  bond angle:     H          N          H            113.628
  bond angle:     H          N          H            111.538
  bond angle:     H          N          H            111.393
  bond angle:     H          N          H            111.141
  bond angle:     H          N          H            102.092
  bond angle:     H          O          H            113.214
  bond angle:     H          O          H            108.045
  bond angle:     H          O          H            107.507
  bond angle:     H          O          H            106.974




 Principal moments of inertia (u*A**2) and principal axes
 --------------------------------------------------------

   IA     331.774984          0.979294    0.201862    0.015326
   IB     404.905816          0.076171   -0.437556    0.895959
   IC     449.676125         -0.187566    0.876240    0.443872


 Rotational constants
 --------------------

               A                   B                   C

           1523.2583           1248.1397           1123.8733 MHz
            0.050810            0.041633            0.037488 cm-1


@  Nuclear repulsion energy :  200.510714385222 Hartree

  Number of floating/multiple basis set orbitals :    1


                     .---------------------------------------.
                     | Starting in Integral Section (HERMIT) |
                     `---------------------------------------'



 ***************************************************************************************
 ****************** Output from **INTEGRALS input processing (HERMIT) ******************
 ***************************************************************************************



    *************************************************************************
    ****************** Output from HERMIT input processing ******************
    *************************************************************************


 Default print level:        1

 * Nuclear model: Point charge

 Calculation of one- and two-electron Hamiltonian integrals.

 The following one-electron property integrals are calculated as requested:
          - overlap integrals
          - dipole length integrals

 Center of mass  (bohr):      0.677202126145      0.207211491810     -0.075483464565
 Operator center (bohr):      0.000000000000      0.000000000000      0.000000000000
 Gauge origin    (bohr):      0.000000000000      0.000000000000      0.000000000000
 Dipole origin   (bohr):      0.000000000000      0.000000000000      0.000000000000
 
  *********************************** 
  QMMM electrostatic potential: 
  Multipole order                                    0
  Isotropic polarization  
  *********************************** 
 
  ---------------- 
  QMMM information 
  ---------------- 
 
  MM coordinates in au 
  -------------------- 
     1     -9.907913      6.657467     -6.410168
     2     -8.926165      6.324156     -7.953646
     3     -8.676953      6.775711     -4.993182
     4      5.274726      5.210553     -2.392769
     5      6.463598      6.092280     -3.615396
     6      6.327374      3.709464     -1.773790
     7      3.600508     10.975204     -2.380437
     8      3.868326     11.769749     -0.811212
     9      2.965377      9.361310     -2.022453
    10    -11.419178     -8.064212    -10.846336
    11    -11.633732     -6.604988     -9.742383
    12    -12.261822     -7.582148    -12.451865
    13      5.226491      6.171526      2.663121
    14      6.672092      6.990120      3.616862
    15      5.714776      6.309899      0.804048
    16      8.844173      8.640720     -4.508017
    17     10.210103      7.983165     -5.647110
    18      7.961505      9.897692     -5.438821
    19     -1.726269     -9.761509      7.960728
    20     -3.215539    -10.768381      7.415601
    21     -2.567019     -8.803421      9.250430
    22      6.814143     -1.283982    -11.060093
    23      5.871921     -1.750724     -9.492905
    24      7.766595     -2.863846    -11.357178
    25      9.510587     -9.715691      5.241089
    26     11.239201     -9.443604      4.741037
    27      9.542558    -11.154209      6.436084
    28     -0.929651      6.587697     11.499817
    29      0.052325      8.028307     10.675116
    30      0.109016      5.605967     12.592209
    31     -7.547863      1.997216      2.502689
    32     -9.267366      1.786226      3.240512
    33     -6.972381      3.681657      2.964820
    34      7.843941    -10.562647     -9.118467
    35      9.631704     -9.852754     -9.345992
    36      7.396388     -9.865400     -7.404606
    37      3.604964     -2.784447     -7.574321
    38      2.962227     -4.582533     -7.882320
    39      3.891220     -2.713964     -5.654153
    40    -10.533664      0.428586     -2.326790
    41     -9.053466     -0.204134     -3.370534
    42     -9.687133      1.524448     -1.124587
    43    -11.447088     -3.861950     -7.818655
    44    -12.404009     -2.763314     -6.831460
    45    -11.203903     -2.847934     -9.495239
    46     10.354214      7.409720      3.623667
    47     11.024322      8.613916      2.433427
    48     10.686488      8.018981      5.377660
    49      6.581183      8.291931    -11.157584
    50      6.014730      6.903510    -10.164158
    51      7.231574      9.832311    -10.109878
    52     -1.901484      7.984408      0.222880
    53     -0.799902      8.632346      1.588358
    54     -0.651440      7.085301     -0.856088
    55      9.956922      1.964616      3.561760
    56      9.189234      1.751534      5.226461
    57     10.093783      3.875241      3.653185
    58     -0.125453    -10.743290     -5.018631
    59      1.439550    -11.318483     -4.158327
    60     -1.020080    -12.155796     -5.705053
    61     -9.104973     -3.018839      6.852871
    62    -10.155256     -2.205981      5.422703
    63     -7.356037     -2.303820      6.669773
    64     -0.422906     -5.236686      5.854075
    65      0.365350     -4.263647      7.210416
    66     -0.872874     -6.873718      6.459331
    67     -4.076948      4.172290      8.282983
    68     -3.582454      2.422737      7.749516
    69     -2.841458      5.027741      9.400104
    70     -8.078334     -6.295929     -4.635326
    71     -7.739679     -7.948152     -5.466715
    72     -8.864027     -5.158554     -5.867345
    73     -3.841855      8.768624     -5.912694
    74     -4.789220      8.464607     -4.430809
    75     -3.677587      7.060060     -6.684969
    76     11.301569     -3.303746      1.666875
    77      9.716397     -2.599366      2.231315
    78     11.983953     -2.087596      0.493551
    79     -4.215567     -7.259016    -11.040538
    80     -4.969010     -8.250964     -9.654191
    81     -2.497279     -7.164645    -10.379068
    82      5.252554    -10.629434      2.261515
    83      6.923924    -10.596785      2.661163
    84      5.006680     -8.753450      2.065794
    85     -6.085151     -0.447820     -4.511619
    86     -6.212696     -1.472705     -5.974473
    87     -5.477063     -1.499749     -3.124018
    88      3.790998     -8.677076     11.250573
    89      2.900637    -10.106197     10.405510
    90      5.253155     -9.377747     12.227938
    91     -0.470821     -0.360159     -9.931911
    92     -2.080464     -1.233526     -9.577039
    93      0.895670     -1.268222     -8.912655
    94      1.678487     -1.936916      8.965312
    95      0.669681     -1.160163     10.500174
    96      3.238036     -2.427317      9.883986
    97     -5.351646      6.623288      3.998967
    98     -5.004645      6.009289      5.741814
    99     -3.728460      6.754265      3.072279
   100     -9.034217     -8.361345      4.746232
   101     -8.083612     -8.025319      3.155193
   102     -9.128539     -6.670452      5.553212
   103     -6.926122    -10.359554     -8.115234
   104     -7.944465    -10.813259     -9.572462
   105     -5.805919    -11.818007     -7.816038
   106      7.935431     -5.834718      8.177807
   107      8.522187     -7.138151      6.970370
   108      6.390181     -6.354669      9.077972
   109     -8.160187      9.175577     11.113725
   110     -7.209460      7.654623     11.403569
   111     -7.395103      9.865402      9.479798
   112     -6.206550     -6.723666      0.654303
   113     -5.235431     -8.338337      0.207891
   114     -7.164141     -6.443467     -0.908125
   115      7.082899      2.790364      8.732256
   116      6.969735      1.467567     10.033051
   117      7.377232      4.343806      9.597494
   118      7.065920     -2.452666      4.360158
   119      7.404034     -3.235115      5.997853
   120      5.798143     -1.130215      4.574305
   121      1.869406     10.087073      9.355766
   122      1.669824     10.257662      7.588832
   123      3.496899      9.111668      9.563524
   124      8.131127      1.533214     -1.394926
   125      8.967567      1.621763      0.323599
   126      9.354388      1.112140     -2.696991
   127     -7.356691      4.090339    -11.110441
   128     -6.471053      3.837703    -12.749393
   129     -5.884541      3.922688     -9.917440
   130    -10.249589     -0.844093    -11.634479
   131     -9.432844      0.869903    -11.552259
   132     -9.906196     -1.321937    -13.502849
   133      8.971688      2.084621     -7.254768
   134      8.873576      1.428161     -8.952415
   135     10.645927      2.821136     -7.125613
   136      1.555379      9.329447      3.816436
   137      2.469120     10.885885      3.572132
   138      3.025637      8.147019      3.414981
   139     -3.523744      3.774658     -7.012889
   140     -2.221583      2.902107     -8.069013
   141     -4.397017      2.308658     -6.051691
   142     -3.538129     -0.887470      6.609606
   143     -2.500382     -2.224484      5.813525
   144     -4.494052     -0.266638      5.087708
   145      1.056880     -7.021053     -8.545338
   146      0.511772     -8.192233     -7.157423
   147      1.744903     -7.918508    -10.076806
   148     -5.624639     -2.613882     -9.482736
   149     -5.306529     -4.356903    -10.160305
   150     -7.171462     -2.156291    -10.402436
   151      4.218139      3.938476     -9.405666
   152      4.352856      2.832762     -7.831441
   153      4.096286      2.862965    -11.017130
   154     10.359116      9.015039      8.417229
   155     11.783164      9.174692      9.550927
   156      8.951963      8.731958      9.678476
   157      7.293576     -8.780244     -4.614123
   158      6.218548     -9.759955     -3.470516
   159      8.848849     -8.657637     -3.616095
   160      3.785452     -5.707780      1.627844
   161      5.179063     -4.727161      2.596843
   162      2.135704     -5.444392      2.539605
   163     11.376461     -7.975489     -1.120755
   164     12.912816     -7.352110     -2.094701
   165     11.067784     -6.568406      0.103876
   166     -7.344251      8.032222     -2.073256
   167     -7.028555      7.301169     -0.488196
   168     -8.825263      9.313302     -1.952246
   169     -5.917821     11.138159      6.859341
   170     -5.845367      9.905695      5.402311
   171     -6.903693     12.458052      6.048080
   172    -11.616421     10.421622     -0.549009
   173    -12.556181      9.941093     -2.027122
   174    -11.984254     12.310290     -0.195243
   175     -3.676698    -10.534033     -1.380736
   176     -3.519052    -12.399924     -0.906925
   177     -2.571416    -10.456174     -2.847196
 
  MM charges 
  ---------- 
     1     -0.674440
     2      0.337220
     3      0.337220
     4     -0.674440
     5      0.337220
     6      0.337220
     7     -0.674440
     8      0.337220
     9      0.337220
    10     -0.674440
    11      0.337220
    12      0.337220
    13     -0.674440
    14      0.337220
    15      0.337220
    16     -0.674440
    17      0.337220
    18      0.337220
    19     -0.674440
    20      0.337220
    21      0.337220
    22     -0.674440
    23      0.337220
    24      0.337220
    25     -0.674440
    26      0.337220
    27      0.337220
    28     -0.674440
    29      0.337220
    30      0.337220
    31     -0.674440
    32      0.337220
    33      0.337220
    34     -0.674440
    35      0.337220
    36      0.337220
    37     -0.674440
    38      0.337220
    39      0.337220
    40     -0.674440
    41      0.337220
    42      0.337220
    43     -0.674440
    44      0.337220
    45      0.337220
    46     -0.674440
    47      0.337220
    48      0.337220
    49     -0.674440
    50      0.337220
    51      0.337220
    52     -0.674440
    53      0.337220
    54      0.337220
    55     -0.674440
    56      0.337220
    57      0.337220
    58     -0.674440
    59      0.337220
    60      0.337220
    61     -0.674440
    62      0.337220
    63      0.337220
    64     -0.674440
    65      0.337220
    66      0.337220
    67     -0.674440
    68      0.337220
    69      0.337220
    70     -0.674440
    71      0.337220
    72      0.337220
    73     -0.674440
    74      0.337220
    75      0.337220
    76     -0.674440
    77      0.337220
    78      0.337220
    79     -0.674440
    80      0.337220
    81      0.337220
    82     -0.674440
    83      0.337220
    84      0.337220
    85     -0.674440
    86      0.337220
    87      0.337220
    88     -0.674440
    89      0.337220
    90      0.337220
    91     -0.674440
    92      0.337220
    93      0.337220
    94     -0.674440
    95      0.337220
    96      0.337220
    97     -0.674440
    98      0.337220
    99      0.337220
   100     -0.674440
   101      0.337220
   102      0.337220
   103     -0.674440
   104      0.337220
   105      0.337220
   106     -0.674440
   107      0.337220
   108      0.337220
   109     -0.674440
   110      0.337220
   111      0.337220
   112     -0.674440
   113      0.337220
   114      0.337220
   115     -0.674440
   116      0.337220
   117      0.337220
   118     -0.674440
   119      0.337220
   120      0.337220
   121     -0.674440
   122      0.337220
   123      0.337220
   124     -0.674440
   125      0.337220
   126      0.337220
   127     -0.674440
   128      0.337220
   129      0.337220
   130     -0.674440
   131      0.337220
   132      0.337220
   133     -0.674440
   134      0.337220
   135      0.337220
   136     -0.674440
   137      0.337220
   138      0.337220
   139     -0.674440
   140      0.337220
   141      0.337220
   142     -0.674440
   143      0.337220
   144      0.337220
   145     -0.674440
   146      0.337220
   147      0.337220
   148     -0.674440
   149      0.337220
   150      0.337220
   151     -0.674440
   152      0.337220
   153      0.337220
   154     -0.674440
   155      0.337220
   156      0.337220
   157     -0.674440
   158      0.337220
   159      0.337220
   160     -0.674440
   161      0.337220
   162      0.337220
   163     -0.674440
   164      0.337220
   165      0.337220
   166     -0.674440
   167      0.337220
   168      0.337220
   169     -0.674440
   170      0.337220
   171      0.337220
   172     -0.674440
   173      0.337220
   174      0.337220
   175     -0.674440
   176      0.337220
   177      0.337220
 
  MM isotropic polarizabilities in au 
  ----------------------------------- 
     1      5.739350
     2      2.308390
     3      2.308390
     4      5.739350
     5      2.308390
     6      2.308390
     7      5.739350
     8      2.308390
     9      2.308390
    10      5.739350
    11      2.308390
    12      2.308390
    13      5.739350
    14      2.308390
    15      2.308390
    16      5.739350
    17      2.308390
    18      2.308390
    19      5.739350
    20      2.308390
    21      2.308390
    22      5.739350
    23      2.308390
    24      2.308390
    25      5.739350
    26      2.308390
    27      2.308390
    28      5.739350
    29      2.308390
    30      2.308390
    31      5.739350
    32      2.308390
    33      2.308390
    34      5.739350
    35      2.308390
    36      2.308390
    37      5.739350
    38      2.308390
    39      2.308390
    40      5.739350
    41      2.308390
    42      2.308390
    43      5.739350
    44      2.308390
    45      2.308390
    46      5.739350
    47      2.308390
    48      2.308390
    49      5.739350
    50      2.308390
    51      2.308390
    52      5.739350
    53      2.308390
    54      2.308390
    55      5.739350
    56      2.308390
    57      2.308390
    58      5.739350
    59      2.308390
    60      2.308390
    61      5.739350
    62      2.308390
    63      2.308390
    64      5.739350
    65      2.308390
    66      2.308390
    67      5.739350
    68      2.308390
    69      2.308390
    70      5.739350
    71      2.308390
    72      2.308390
    73      5.739350
    74      2.308390
    75      2.308390
    76      5.739350
    77      2.308390
    78      2.308390
    79      5.739350
    80      2.308390
    81      2.308390
    82      5.739350
    83      2.308390
    84      2.308390
    85      5.739350
    86      2.308390
    87      2.308390
    88      5.739350
    89      2.308390
    90      2.308390
    91      5.739350
    92      2.308390
    93      2.308390
    94      5.739350
    95      2.308390
    96      2.308390
    97      5.739350
    98      2.308390
    99      2.308390
   100      5.739350
   101      2.308390
   102      2.308390
   103      5.739350
   104      2.308390
   105      2.308390
   106      5.739350
   107      2.308390
   108      2.308390
   109      5.739350
   110      2.308390
   111      2.308390
   112      5.739350
   113      2.308390
   114      2.308390
   115      5.739350
   116      2.308390
   117      2.308390
   118      5.739350
   119      2.308390
   120      2.308390
   121      5.739350
   122      2.308390
   123      2.308390
   124      5.739350
   125      2.308390
   126      2.308390
   127      5.739350
   128      2.308390
   129      2.308390
   130      5.739350
   131      2.308390
   132      2.308390
   133      5.739350
   134      2.308390
   135      2.308390
   136      5.739350
   137      2.308390
   138      2.308390
   139      5.739350
   140      2.308390
   141      2.308390
   142      5.739350
   143      2.308390
   144      2.308390
   145      5.739350
   146      2.308390
   147      2.308390
   148      5.739350
   149      2.308390
   150      2.308390
   151      5.739350
   152      2.308390
   153      2.308390
   154      5.739350
   155      2.308390
   156      2.308390
   157      5.739350
   158      2.308390
   159      2.308390
   160      5.739350
   161      2.308390
   162      2.308390
   163      5.739350
   164      2.308390
   165      2.308390
   166      5.739350
   167      2.308390
   168      2.308390
   169      5.739350
   170      2.308390
   171      2.308390
   172      5.739350
   173      2.308390
   174      2.308390
   175      5.739350
   176      2.308390
   177      2.308390


     ************************************************************************
     ************************** Output from HERINT **************************
     ************************************************************************



                      Nuclear contribution to dipole moments
                      --------------------------------------

                 au               Debye          C m (/(10**-30)

      x     34.16591008        86.84107579       289.67064873
      y     10.46330773        26.59507379        88.71161725
      z     -2.76339187        -7.02384107       -23.42901192



 Threshold for neglecting two-electron integrals:  1.00D-12
 HERMIT - Number of two-electron integrals written:    38366027 ( 42.9% )
 HERMIT - Megabytes written:                            439.313

  Time used in TWOINT     is       7.29 seconds
  Total CPU  time used in HERMIT:   7.49 seconds
  Total wall time used in HERMIT:   8.88 seconds


                        .----------------------------------.
                        | End of Integral Section (HERMIT) |
                        `----------------------------------'



                   .--------------------------------------------.
                   | Starting in Wave Function Section (SIRIUS) |
                   `--------------------------------------------'

NCCEXCI for singlet:    1
 CCSD_INPUT: core-val requested
 Requested number of virtual orbs per sym
                     1
 Indices of requested virtual orbs
                     1
 CCSD_INPUT: core-val requested
 Requested number of core orbs per sym
                     1
 Indices of requested core orbs
                     1

 *** Output from Huckel module :

     Using EWMO model:          T
     Using EHT  model:          F
     Number of Huckel orbitals each symmetry:   37

 EWMO - Energy Weighted Maximum Overlap - is a Huckel type method,
        which normally is better than Extended Huckel Theory.
 Reference: Linderberg and Ohrn, Propagators in Quantum Chemistry (Wiley, 1973)

 Huckel EWMO eigenvalues for symmetry :  1
          -20.684613     -20.684455     -20.684432     -20.684321     -15.675645
           -1.810034      -1.607413      -1.598166      -1.593815      -1.478377
           -0.821118      -0.804404      -0.794223      -0.783308      -0.778818
           -0.770086      -0.757029      -0.677792      -0.675420      -0.653790
           -0.635959      -0.612481      -0.573706      -0.561349      -0.554396
           -0.263819      -0.247584      -0.244720      -0.240604      -0.184401
           -0.179887      -0.178849      -0.177408      -0.177116      -0.150389
           -0.142416      -0.133457

 **********************************************************************
 *SIRIUS* a direct, restricted step, second order MCSCF program       *
 **********************************************************************

 
     Date and time (Linux)  : Mon Dec  3 12:33:11 2018
     Host name              : n-62-29-6                               

 Title lines from ".mol" input file:
                                                                             
                                                                             

 Print level on unit LUPRI =   2 is   0
 Print level on unit LUW4  =   2 is  11

@    (Integral direct) CC calculation.

@    This is a combination run starting with
@              a restricted, closed shell Hartree-Fock calculation


 Initial molecular orbitals are obtained according to
 ".MOSTART EWMO  " input option

@    QM part is embedded in an environment :

@         Model: QMMM

     Wave function specification
     ============================

     For the specification of the Coupled Cluster: see later.

@    Wave function type        --- CC ---
@    Number of closed shell electrons          50
@    Number of electrons in active shells       0
@    Total charge of the molecule               1

@    Spin multiplicity and 2 M_S                1         0
@    Total number of symmetries                 1 (point group: C1 )
@    Reference state symmetry                   1 (irrep name : A  )

     Orbital specifications
     ======================
@    Abelian symmetry species          All |    1
@                                          |  A  
                                       --- |  ---
@    Occupied SCF orbitals              25 |   25
@    Secondary orbitals                138 |  138
@    Total number of orbitals          163 |  163
@    Number of basis functions         163 |  163

     Optimization information
     ========================
@    Number of configurations                 1
@    Number of orbital rotations           3450
     ------------------------------------------
@    Total number of variables             3451

     Maximum number of Fock   iterations      0
     Maximum number of DIIS   iterations     60
     Maximum number of QC-SCF iterations     60
     Threshold for SCF convergence     1.00D-07


 Changes of defaults for CC:
 ---------------------------


 -Implicit frozen core calculation
 -Excitation energies calculated
 -One-photon absorption strengths will be calculated
 -Oscillator strengths calculated
  
* Read MO coefficients from SIRIUS.RST with label "NEWORB  " and header info:  3Dec18  REORTHO 


 ***********************************************
 ***** DIIS acceleration of SCF iterations *****
 ***********************************************

 C1-DIIS algorithm; max error vectors =    8
 -----------------------------------------------------------------------------

 *** DIIS iteration number    1
 RDSUPM called. NFMAT, ISYMDM(1:NFMAT)                     1
                     1

Calculating AOSUPINT
     (Precalculated two-electron integrals are transformed to P-supermatrix elements.
      Threshold for discarding integrals :  1.00D-12 )
  CPU  time used in FORMSUP    is   5.11 seconds
  WALL time used in FORMSUP    is  14.12 seconds

 ITDIIS, energy, error norm, change in energy, scr.thr., difden:
@ DIIS iter.   1    -360.241243380        3.94550D+00   -3.60D+02  -20    F

 (DIIS_RED) Control Parameters C2DIIS =         F NEVC =    1


 (DIIS_RED) B matrix:

               Column   1
       1      15.56694656
    ==== End of matrix output ====

 DIIS C vector; C2DIIS = F, LAMBDA = -1.56D+01
    1.000000
* Read MO coefficients from SIRIUS.RST with label "NEWORB  " and header info:  3Dec18  DIIS   1
      Virial theorem: -V/T =      2.003098
@      MULPOP N       0.10; H       0.17; H       0.16; H       0.18; H       0.16; O      -0.58; O      -0.56; O      -0.60; O      -0.59; H       0.32; 
@             H       0.32; H       0.31; H       0.31; H       0.33; H       0.32; H       0.33; H       0.32; 
   1  Level shift: doubly occupied orbital energies shifted by -2.00D-01

 DIIS Fock eigenvalues in symmetry 1
      -20.86836      -20.85402      -20.82076      -20.81129      -16.45787
       -1.73814       -1.68093       -1.67121       -1.62554       -1.62117
       -1.22431       -1.20992       -1.18991       -1.05883       -1.05388
       -1.01011       -1.00092       -0.93110       -0.91799       -0.89303
       -0.88453       -0.87878       -0.86843       -0.84794       -0.83896
       -0.01927       -0.00005        0.03376        0.05077        0.07344
        0.10489        0.12664        0.14164        0.15070        0.16868
        0.18261        0.19928        0.21709        0.23311        0.26898
        0.28683        0.40704        0.42777        0.44387        0.45005
        0.46363        0.47624        0.48775        0.49746        0.50838
        0.67129        0.67177        0.69800        0.79969        0.83778
        0.85038        0.88773        0.90898        0.91914        0.95672
        0.96113        0.97794        0.99165        1.01219        1.02717
        1.04195        1.07298        1.09762        1.20400        1.26463
        1.32109        1.32768        1.34844        1.36452        1.37149
        1.38779        1.39720        1.40934        1.45829        1.48305
        1.51603        1.53099        1.55133        1.55988        1.59361
        1.63519        1.69035        1.71633        1.73511        1.74830
        1.79270        1.93596        1.96201        2.01239        2.03931
        2.06596        2.09683        2.12295        2.14284        2.14552
        2.17023        2.18541        2.19901        2.21494        2.24457
        2.39011        2.42676        2.49647        2.50724        2.52153
        2.54800        2.56985        2.59565        2.62318        2.64191
        2.67909        2.68738        2.76496        2.78292        2.98183
        3.01027        3.01675        3.08422        3.27114        3.28861
        3.34962        3.35107        3.35472        3.36296        3.38859
        3.41160        3.48728        3.49257        3.49570        3.52602
        3.83745        3.84842        3.88032        3.93493        4.03659
        4.04613        4.05740        4.07147        4.67299        4.74740
        4.87042        5.22564        5.22941        5.24863        5.27095
        5.64757        5.67017        5.68364        5.73092        5.94363
        5.94577        5.94815        6.01712       36.37097       51.41399
       51.41850       51.45827       51.46827
 Time used in FCKEIG, thr_jaco:   4.70D-02  5.20D-02  1.68D-04
 CPU and wall times used in FCKEIG, THR_FCKEIG:   4.70D-02  5.20D-02  3.95D-02
 -----------------------------------------------------------------------------

 *** DIIS iteration number    2
 RDSUPM called. NFMAT, ISYMDM(1:NFMAT)                     1
                     1

 ITDIIS, energy, error norm, change in energy, scr.thr., difden:
@ DIIS iter.   2    -361.121944095        1.13515D+00   -8.81D-01  -20    F

 (DIIS_RED) Control Parameters C2DIIS =         F NEVC =    2


 (DIIS_RED) B matrix:

               Column   1     Column   2
       1      15.56694656
       2       0.80723579     1.28856443
    ==== End of matrix output ====

 DIIS C vector; C2DIIS = F, LAMBDA = -1.27D+00
    0.031581    0.968419
* Read MO coefficients from SIRIUS.RST with label "NEWORB  " and header info:  3Dec18  DIIS   2
      Virial theorem: -V/T =      2.002519
@      MULPOP N      -0.54; H       0.35; H       0.34; H       0.32; H       0.30; O      -0.59; O      -0.61; O      -0.56; O      -0.58; H       0.31; 
@             H       0.34; H       0.36; H       0.32; H       0.31; H       0.30; H       0.33; H       0.31; 
   2  Level shift: doubly occupied orbital energies shifted by -1.00D-01

 DIIS Fock eigenvalues in symmetry 1
      -20.80971      -20.80903      -20.76428      -20.76257      -15.63706
       -1.57125       -1.56449       -1.51812       -1.51713       -1.39258
       -0.93409       -0.93044       -0.90441       -0.89119       -0.88354
       -0.87736       -0.87158       -0.81822       -0.80968       -0.76765
       -0.75493       -0.74812       -0.74058       -0.71530       -0.70450
       -0.00005        0.03510        0.07238        0.09609        0.11044
        0.13977        0.15782        0.18546        0.19583        0.21335
        0.23098        0.25891        0.29206        0.33909        0.35115
        0.37846        0.44263        0.46914        0.48426        0.49576
        0.50438        0.52272        0.52460        0.53524        0.59945
        0.78213        0.81097        0.85113        0.85615        0.88985
        0.89429        0.93292        0.94806        0.96111        0.98463
        0.99793        1.02376        1.04435        1.05049        1.07224
        1.12755        1.18247        1.20322        1.25229        1.31689
        1.37734        1.38209        1.40413        1.41170        1.42093
        1.43604        1.44742        1.46868        1.52935        1.54359
        1.58809        1.61287        1.64836        1.65068        1.67811
        1.71606        1.75620        1.77744        1.79941        1.81371
        1.85948        2.03566        2.06400        2.08484        2.10658
        2.12447        2.14075        2.18216        2.21968        2.23246
        2.25165        2.25299        2.27679        2.32749        2.36964
        2.49302        2.52976        2.57471        2.59174        2.60773
        2.65086        2.66067        2.68112        2.69821        2.71361
        2.75173        2.78154        2.95854        3.00534        3.14559
        3.22373        3.25277        3.29209        3.31864        3.33789
        3.37522        3.38300        3.39931        3.42192        3.44077
        3.46938        3.51427        3.51741        3.52555        3.60543
        3.85949        3.87434        3.90485        3.95665        4.05858
        4.07091        4.08017        4.09852        5.06072        5.12369
        5.21923        5.23713        5.24757        5.26008        5.28806
        5.64917        5.67354        5.68746        5.73984        5.95727
        5.96340        5.96945        6.03091       37.07514       51.36240
       51.37861       51.41600       51.42003
 Time used in FCKEIG, thr_jaco:   3.70D-02  3.90D-02  4.83D-05
 CPU and wall times used in FCKEIG, THR_FCKEIG:   3.70D-02  3.90D-02  1.14D-02
 -----------------------------------------------------------------------------

 *** DIIS iteration number    3
 RDSUPM called. NFMAT, ISYMDM(1:NFMAT)                     1
                     1

 ITDIIS, energy, error norm, change in energy, scr.thr., difden:
@ DIIS iter.   3    -361.197349324        3.76111D-01   -7.54D-02  -20    F

 (DIIS_RED) Control Parameters C2DIIS =         F NEVC =    3


 (DIIS_RED) B matrix:

               Column   1     Column   2     Column   3
       1      15.56694656
       2       0.80723579     1.28856443
       3       0.82031389    -0.00686058     0.14145975
    ==== End of matrix output ====

 DIIS C vector; C2DIIS = F, LAMBDA = -9.21D-02
   -0.049288    0.107350    0.941938
* Read MO coefficients from SIRIUS.RST with label "NEWORB  " and header info:  3Dec18  DIIS   3
      Virial theorem: -V/T =      2.003323
@      MULPOP N      -0.35; H       0.32; H       0.30; H       0.29; H       0.26; O      -0.65; O      -0.69; O      -0.62; O      -0.64; H       0.34; 
@             H       0.37; H       0.39; H       0.35; H       0.34; H       0.32; H       0.35; H       0.34; 
   3  Level shift: doubly occupied orbital energies shifted by -5.00D-02

 DIIS Fock eigenvalues in symmetry 1
      -20.72106      -20.71934      -20.67177      -20.66962      -15.79552
       -1.50257       -1.49787       -1.45024       -1.44772       -1.39274
       -0.88360       -0.86573       -0.86281       -0.86034       -0.84835
       -0.82191       -0.80795       -0.74948       -0.74204       -0.69575
       -0.68537       -0.68041       -0.67526       -0.63960       -0.63199
       -0.00005        0.04049        0.07872        0.10114        0.11640
        0.14484        0.16274        0.18812        0.19919        0.21822
        0.23385        0.26196        0.29230        0.33747        0.35408
        0.37791        0.45348        0.47840        0.49440        0.50437
        0.51532        0.53322        0.53465        0.54505        0.59777
        0.78290        0.80086        0.83993        0.86177        0.89259
        0.90760        0.94306        0.96196        0.97516        0.99825
        1.01110        1.03502        1.05786        1.06398        1.08826
        1.12402        1.18195        1.19859        1.26147        1.32772
        1.39162        1.39636        1.41730        1.42521        1.43518
        1.45000        1.45978        1.47405        1.53944        1.55490
        1.59726        1.61934        1.65278        1.65550        1.68466
        1.72279        1.76713        1.78846        1.80989        1.82225
        1.86806        2.03914        2.06668        2.10036        2.11645
        2.13439        2.15580        2.19817        2.23504        2.24611
        2.26125        2.26945        2.27832        2.32728        2.36488
        2.49875        2.53681        2.58502        2.59952        2.61487
        2.65693        2.66920        2.69059        2.70674        2.72317
        2.76197        2.78768        2.93030        2.97414        3.14233
        3.20126        3.23180        3.28881        3.32237        3.35262
        3.39964        3.40657        3.42459        3.43032        3.46052
        3.47737        3.53858        3.54429        3.55169        3.61211
        3.88329        3.89967        3.93092        3.98317        4.08449
        4.09849        4.10825        4.12675        4.97872        5.05079
        5.17140        5.26218        5.26668        5.28424        5.30620
        5.67740        5.70465        5.71840        5.77059        5.98689
        5.99580        6.00086        6.06371       36.87297       51.40125
       51.41847       51.45863       51.46295
 Time used in FCKEIG, thr_jaco:   3.30D-02  3.60D-02  1.60D-05
 CPU and wall times used in FCKEIG, THR_FCKEIG:   3.30D-02  3.60D-02  3.76D-03
 -----------------------------------------------------------------------------

 *** DIIS iteration number    4
 RDSUPM called. NFMAT, ISYMDM(1:NFMAT)                     1
                     1

 ITDIIS, energy, error norm, change in energy, scr.thr., difden:
@ DIIS iter.   4    -361.207581972        9.18084D-02   -1.02D-02  -20    F

 (DIIS_RED) Control Parameters C2DIIS =         F NEVC =    4


 (DIIS_RED) B matrix:

               Column   1     Column   2     Column   3     Column   4
       1      15.56694656
       2       0.80723579     1.28856443
       3       0.82031389    -0.00686058     0.14145975
       4       0.05382447     0.07507321     0.00489623     0.00842877
    ==== End of matrix output ====

 DIIS C vector; C2DIIS = F, LAMBDA = -4.55D-03
    0.000071   -0.058702   -0.008027    1.066658
* Read MO coefficients from SIRIUS.RST with label "NEWORB  " and header info:  3Dec18  DIIS   4
      Virial theorem: -V/T =      2.003279
@      MULPOP N      -0.43; H       0.34; H       0.32; H       0.31; H       0.27; O      -0.67; O      -0.71; O      -0.63; O      -0.65; H       0.34; 
@             H       0.38; H       0.40; H       0.36; H       0.34; H       0.32; H       0.36; H       0.34; 
   4  Level shift: doubly occupied orbital energies shifted by -1.25D-02

 DIIS Fock eigenvalues in symmetry 1
      -20.69548      -20.69503      -20.64952      -20.64687      -15.72593
       -1.46943       -1.46506       -1.41688       -1.41508       -1.34348
       -0.83611       -0.83107       -0.82856       -0.81296       -0.80104
       -0.78857       -0.77452       -0.71329       -0.70644       -0.66010
       -0.64929       -0.64314       -0.63743       -0.60273       -0.59480
       -0.00005        0.04060        0.07778        0.10123        0.11592
        0.14437        0.16240        0.18920        0.20007        0.21848
        0.23594        0.26439        0.29677        0.34425        0.35844
        0.38357        0.45295        0.47832        0.49350        0.50415
        0.51462        0.53162        0.53456        0.54449        0.60327
        0.78760        0.80734        0.84793        0.86315        0.89529
        0.90883        0.94467        0.96113        0.97452        0.99706
        1.01036        1.03445        1.05624        1.06192        1.08551
        1.12845        1.18562        1.20401        1.26293        1.32930
        1.38931        1.39520        1.41664        1.42485        1.43360
        1.44830        1.45877        1.47525        1.54033        1.55502
        1.59773        1.62066        1.65526        1.65939        1.68784
        1.72545        1.76686        1.78754        1.80999        1.82312
        1.86933        2.04455        2.07148        2.09767        2.11801
        2.13478        2.15299        2.19554        2.23276        2.24492
        2.26242        2.26646        2.28184        2.33164        2.37106
        2.50093        2.54254        2.58413        2.60036        2.61803
        2.65839        2.67292        2.69061        2.70841        2.72377
        2.76267        2.78867        2.94024        2.98529        3.14994
        3.20988        3.24093        3.29604        3.32092        3.35165
        3.39634        3.40384        3.42114        3.43135        3.45767
        3.47772        3.53549        3.54074        3.54871        3.61235
        3.87975        3.89625        3.92666        3.97919        4.08115
        4.09516        4.10455        4.12278        4.99665        5.06732
        5.18695        5.25680        5.25999        5.27875        5.30015
        5.67188        5.69834        5.71208        5.76392        5.98044
        5.98796        5.99413        6.05623       36.90469       51.38959
       51.40562       51.44392       51.44847
 Time used in FCKEIG, thr_jaco:   2.70D-02  2.90D-02  3.91D-06
 CPU and wall times used in FCKEIG, THR_FCKEIG:   2.70D-02  2.90D-02  9.18D-04
 -----------------------------------------------------------------------------

 *** DIIS iteration number    5
 RDSUPM called. NFMAT, ISYMDM(1:NFMAT)                     1
                     1

 ITDIIS, energy, error norm, change in energy, scr.thr., difden:
@ DIIS iter.   5    -361.208551242        3.02613D-02   -9.69D-04  -20    F

 (DIIS_RED) Control Parameters C2DIIS =         F NEVC =    5


 (DIIS_RED) B matrix:

               Column   1     Column   2     Column   3     Column   4     Column   5
       1      15.56694656
       2       0.80723579     1.28856443
       3       0.82031389    -0.00686058     0.14145975
       4       0.05382447     0.07507321     0.00489623     0.00842877
       5       0.02260334     0.00766148     0.00566060     0.00077094     0.00091574
    ==== End of matrix output ====

 DIIS C vector; C2DIIS = F, LAMBDA = -6.18D-04
    0.001369   -0.013537   -0.045882    0.126620    0.931430
* Read MO coefficients from SIRIUS.RST with label "NEWORB  " and header info:  3Dec18  DIIS   5
      Virial theorem: -V/T =      2.002901
@      MULPOP N      -0.41; H       0.33; H       0.31; H       0.31; H       0.27; O      -0.68; O      -0.72; O      -0.64; O      -0.66; H       0.35; 
@             H       0.39; H       0.41; H       0.36; H       0.35; H       0.33; H       0.36; H       0.35; 

 DIIS Fock eigenvalues in symmetry 1
      -20.67724      -20.67509      -20.62886      -20.62637      -15.70952
       -1.45421       -1.45053       -1.40156       -1.39972       -1.32923
       -0.82203       -0.81664       -0.81469       -0.79869       -0.78675
       -0.77419       -0.76005       -0.69844       -0.69229       -0.64515
       -0.63432       -0.62793       -0.62186       -0.58652       -0.57879
       -0.00005        0.04103        0.07811        0.10170        0.11631
        0.14466        0.16272        0.18981        0.20054        0.21892
        0.23670        0.26516        0.29783        0.34556        0.35949
        0.38475        0.45359        0.47900        0.49411        0.50483
        0.51536        0.53218        0.53532        0.54523        0.60444
        0.78933        0.80877        0.84934        0.86479        0.89701
        0.91099        0.94672        0.96250        0.97602        0.99838
        1.01200        1.03592        1.05771        1.06338        1.08706
        1.12984        1.18712        1.20547        1.26452        1.33100
        1.38968        1.39606        1.41746        1.42617        1.43437
        1.44911        1.45956        1.47638        1.54118        1.55582
        1.59852        1.62150        1.65622        1.66038        1.68872
        1.72633        1.76735        1.78786        1.81053        1.82367
        1.86993        2.04569        2.07267        2.09828        2.11912
        2.13587        2.15388        2.19650        2.23361        2.24603
        2.26344        2.26747        2.28305        2.33275        2.37230
        2.50173        2.54361        2.58453        2.60089        2.61890
        2.65907        2.67366        2.69087        2.70899        2.72424
        2.76307        2.78903        2.94168        2.98693        3.15140
        3.21203        3.24304        3.29833        3.32326        3.35437
        3.39850        3.40665        3.42411        3.43414        3.46059
        3.48044        3.53765        3.54362        3.55145        3.61519
        3.88188        3.89897        3.92955        3.98204        4.08352
        4.09813        4.10764        4.12595        4.99903        5.06974
        5.18949        5.26097        5.26466        5.28284        5.30484
        5.67524        5.70267        5.71642        5.76829        5.98342
        5.99222        5.99807        6.06042       36.90852       51.39531
       51.41294       51.45191       51.45639
 Time used in FCKEIG, thr_jaco:   2.50D-02  2.70D-02  1.29D-06
 CPU and wall times used in FCKEIG, THR_FCKEIG:   2.50D-02  2.70D-02  3.03D-04
 -----------------------------------------------------------------------------

 *** DIIS iteration number    6
 RDSUPM called. NFMAT, ISYMDM(1:NFMAT)                     1
                     1

 ITDIIS, energy, error norm, change in energy, scr.thr., difden:
@ DIIS iter.   6    -361.208636469        1.07029D-02   -8.52D-05  -20    F

 (DIIS_RED) Control Parameters C2DIIS =         F NEVC =    6


 (DIIS_RED) B matrix:

               Column   1     Column   2     Column   3     Column   4     Column   5     Column   6
       1      15.56694656
       2       0.80723579     1.28856443
       3       0.82031389    -0.00686058     0.14145975
       4       0.05382447     0.07507321     0.00489623     0.00842877
       5       0.02260334     0.00766148     0.00566060     0.00077094     0.00091574
       6      -0.00496513    -0.00012677     0.00074963     0.00055601     0.00002010     0.00011455
    ==== End of matrix output ====

 DIIS C vector; C2DIIS = F, LAMBDA = -3.46D-05
    0.000758    0.006698   -0.008986   -0.132750    0.107791    1.026489
* Read MO coefficients from SIRIUS.RST with label "NEWORB  " and header info:  3Dec18  DIIS   6
      Virial theorem: -V/T =      2.003159
@      MULPOP N      -0.41; H       0.33; H       0.31; H       0.31; H       0.27; O      -0.68; O      -0.72; O      -0.64; O      -0.66; H       0.35; 
@             H       0.39; H       0.41; H       0.36; H       0.35; H       0.33; H       0.36; H       0.35; 

 DIIS Fock eigenvalues in symmetry 1
      -20.67878      -20.67702      -20.63124      -20.62866      -15.71145
       -1.45467       -1.45092       -1.40223       -1.40040       -1.32972
       -0.82258       -0.81718       -0.81519       -0.79913       -0.78718
       -0.77496       -0.76081       -0.69909       -0.69292       -0.64590
       -0.63511       -0.62818       -0.62225       -0.58685       -0.57919
       -0.00005        0.04094        0.07798        0.10155        0.11616
        0.14452        0.16260        0.18967        0.20044        0.21878
        0.23660        0.26505        0.29768        0.34540        0.35936
        0.38456        0.45341        0.47882        0.49388        0.50462
        0.51510        0.53182        0.53507        0.54495        0.60427
        0.78908        0.80843        0.84903        0.86459        0.89676
        0.91075        0.94648        0.96218        0.97564        0.99804
        1.01162        1.03551        1.05734        1.06291        1.08659
        1.12956        1.18682        1.20520        1.26424        1.33063
        1.38938        1.39577        1.41721        1.42574        1.43396
        1.44868        1.45927        1.47609        1.54086        1.55549
        1.59827        1.62119        1.65589        1.66019        1.68853
        1.72613        1.76711        1.78759        1.81027        1.82341
        1.86968        2.04556        2.07248        2.09788        2.11881
        2.13557        2.15330        2.19592        2.23323        2.24567
        2.26302        2.26695        2.28282        2.33249        2.37202
        2.50143        2.54357        2.58415        2.60057        2.61875
        2.65877        2.67352        2.69059        2.70879        2.72392
        2.76278        2.78865        2.94121        2.98645        3.15124
        3.21133        3.24244        3.29766        3.32273        3.35380
        3.39794        3.40599        3.42323        3.43340        3.45975
        3.47965        3.53713        3.54284        3.55085        3.61437
        3.88130        3.89832        3.92864        3.98117        4.08293
        4.09744        4.10679        4.12503        4.99811        5.06886
        5.18856        5.25998        5.26349        5.28190        5.30365
        5.67436        5.70151        5.71526        5.76705        5.98255
        5.99087        5.99702        6.05913       36.90663       51.39378
       51.41104       51.44958       51.45411
 Time used in FCKEIG, thr_jaco:   2.90D-02  3.10D-02  4.56D-07
 CPU and wall times used in FCKEIG, THR_FCKEIG:   2.90D-02  3.10D-02  1.07D-04
 -----------------------------------------------------------------------------

 *** DIIS iteration number    7
 RDSUPM called. NFMAT, ISYMDM(1:NFMAT)                     1
                     1

 ITDIIS, energy, error norm, change in energy, scr.thr., difden:
@ DIIS iter.   7    -361.208648920        2.21845D-03   -1.25D-05  -20    F

 (DIIS_RED) Control Parameters C2DIIS =         F NEVC =    7


 (DIIS_RED) B matrix:

               Column   1     Column   2     Column   3     Column   4     Column   5     Column   6
       1      15.56694656
       2       0.80723579     1.28856443
       3       0.82031389    -0.00686058     0.14145975
       4       0.05382447     0.07507321     0.00489623     0.00842877
       5       0.02260334     0.00766148     0.00566060     0.00077094     0.00091574
       6      -0.00496513    -0.00012677     0.00074963     0.00055601     0.00002010     0.00011455
       7       0.00038815     0.00017670     0.00000135     0.00000417     0.00004716     0.00000092

               Column   7
       7       0.00000492
    ==== End of matrix output ====

 DIIS C vector; C2DIIS = F, LAMBDA = -1.11D-06
   -0.000252   -0.000752    0.005270    0.022975   -0.097480   -0.140685    1.210925
* Read MO coefficients from SIRIUS.RST with label "NEWORB  " and header info:  3Dec18  DIIS   7
      Virial theorem: -V/T =      2.003098
@      MULPOP N      -0.41; H       0.33; H       0.31; H       0.31; H       0.26; O      -0.68; O      -0.72; O      -0.64; O      -0.67; H       0.35; 
@             H       0.39; H       0.41; H       0.36; H       0.35; H       0.33; H       0.37; H       0.35; 

 DIIS Fock eigenvalues in symmetry 1
      -20.67859      -20.67676      -20.63089      -20.62833      -15.71104
       -1.45453       -1.45080       -1.40206       -1.40024       -1.32951
       -0.82242       -0.81708       -0.81511       -0.79897       -0.78701
       -0.77487       -0.76071       -0.69903       -0.69291       -0.64582
       -0.63503       -0.62803       -0.62209       -0.58663       -0.57898
       -0.00005        0.04099        0.07801        0.10160        0.11621
        0.14455        0.16263        0.18972        0.20048        0.21883
        0.23666        0.26512        0.29778        0.34553        0.35947
        0.38468        0.45346        0.47888        0.49393        0.50467
        0.51516        0.53185        0.53513        0.54500        0.60441
        0.78921        0.80857        0.84918        0.86469        0.89688
        0.91089        0.94661        0.96227        0.97574        0.99813
        1.01172        1.03561        1.05742        1.06298        1.08664
        1.12968        1.18696        1.20535        1.26437        1.33077
        1.38939        1.39582        1.41726        1.42583        1.43399
        1.44871        1.45932        1.47618        1.54092        1.55554
        1.59833        1.62126        1.65597        1.66029        1.68861
        1.72620        1.76715        1.78761        1.81032        1.82346
        1.86973        2.04569        2.07260        2.09790        2.11890
        2.13565        2.15333        2.19597        2.23328        2.24574
        2.26308        2.26699        2.28293        2.33260        2.37215
        2.50150        2.54368        2.58417        2.60062        2.61883
        2.65883        2.67359        2.69062        2.70886        2.72396
        2.76282        2.78867        2.94139        2.98665        3.15140
        3.21153        3.24264        3.29785        3.32285        3.35394
        3.39805        3.40613        3.42339        3.43358        3.45991
        3.47982        3.53724        3.54299        3.55099        3.61456
        3.88140        3.89844        3.92879        3.98132        4.08305
        4.09759        4.10696        4.12521        4.99838        5.06912
        5.18883        5.26017        5.26371        5.28208        5.30387
        5.67450        5.70170        5.71546        5.76725        5.98268
        5.99108        5.99719        6.05933       36.90703       51.39397
       51.41129       51.44992       51.45444
 Time used in FCKEIG, thr_jaco:   2.60D-02  2.80D-02  9.44D-08
 CPU and wall times used in FCKEIG, THR_FCKEIG:   2.60D-02  2.80D-02  2.22D-05
 -----------------------------------------------------------------------------

 *** DIIS iteration number    8
 RDSUPM called. NFMAT, ISYMDM(1:NFMAT)                     1
                     1

 ITDIIS, energy, error norm, change in energy, scr.thr., difden:
@ DIIS iter.   8    -361.208649447        3.43626D-04   -5.26D-07  -20    F

 (DIIS_RED) Control Parameters C2DIIS =         F NEVC =    8


 (DIIS_RED) B matrix:

               Column   1     Column   2     Column   3     Column   4     Column   5     Column   6
       1      15.56694656
       2       0.80723579     1.28856443
       3       0.82031389    -0.00686058     0.14145975
       4       0.05382447     0.07507321     0.00489623     0.00842877
       5       0.02260334     0.00766148     0.00566060     0.00077094     0.00091574
       6      -0.00496513    -0.00012677     0.00074963     0.00055601     0.00002010     0.00011455
       7       0.00038815     0.00017670     0.00000135     0.00000417     0.00004716     0.00000092
       8       0.00008911    -0.00004819     0.00001172     0.00000114     0.00000024     0.00000150

               Column   7     Column   8
       7       0.00000492
       8       0.00000032     0.00000012
    ==== End of matrix output ====

 DIIS C vector; C2DIIS = F, LAMBDA = -5.40D-08
    0.000023    0.000045   -0.000918   -0.001647    0.018871   -0.001979   -0.252031    1.237637
* Read MO coefficients from SIRIUS.RST with label "NEWORB  " and header info:  3Dec18  DIIS   8
      Virial theorem: -V/T =      2.003114
@      MULPOP N      -0.41; H       0.33; H       0.31; H       0.31; H       0.26; O      -0.68; O      -0.72; O      -0.64; O      -0.67; H       0.35; 
@             H       0.39; H       0.41; H       0.36; H       0.35; H       0.33; H       0.37; H       0.35; 

 DIIS Fock eigenvalues in symmetry 1
      -20.67857      -20.67673      -20.63094      -20.62835      -15.71107
       -1.45451       -1.45079       -1.40207       -1.40025       -1.32952
       -0.82244       -0.81706       -0.81510       -0.79898       -0.78702
       -0.77487       -0.76072       -0.69903       -0.69292       -0.64584
       -0.63505       -0.62803       -0.62209       -0.58664       -0.57899
       -0.00005        0.04099        0.07801        0.10160        0.11620
        0.14455        0.16264        0.18972        0.20048        0.21882
        0.23666        0.26512        0.29777        0.34552        0.35946
        0.38467        0.45347        0.47888        0.49393        0.50467
        0.51515        0.53184        0.53512        0.54500        0.60440
        0.78920        0.80856        0.84917        0.86469        0.89688
        0.91088        0.94661        0.96227        0.97574        0.99813
        1.01172        1.03560        1.05742        1.06297        1.08664
        1.12967        1.18695        1.20534        1.26436        1.33075
        1.38939        1.39582        1.41726        1.42582        1.43398
        1.44870        1.45932        1.47618        1.54091        1.55553
        1.59833        1.62126        1.65596        1.66028        1.68861
        1.72619        1.76715        1.78761        1.81031        1.82345
        1.86972        2.04568        2.07259        2.09790        2.11889
        2.13565        2.15332        2.19596        2.23328        2.24574
        2.26306        2.26699        2.28292        2.33259        2.37213
        2.50150        2.54366        2.58416        2.60061        2.61882
        2.65882        2.67358        2.69061        2.70885        2.72396
        2.76281        2.78866        2.94137        2.98663        3.15138
        3.21151        3.24262        3.29783        3.32286        3.35394
        3.39806        3.40614        3.42337        3.43356        3.45990
        3.47980        3.53725        3.54298        3.55099        3.61453
        3.88141        3.89845        3.92877        3.98131        4.08306
        4.09760        4.10695        4.12519        4.99835        5.06910
[...]
 | 1 1 1 1 |  26   1  11   1 |     1406        1 |       987716 |   -0.119057  |
 | 1 1 1 1 |  30   1  11   1 |     1410        1 |       993346 |   -0.068128  |
 | 1 1 1 1 |  27   1  17   1 |     2235        1 |      2496496 |    0.067507  |
 | 1 1 1 1 |  28   1  18   1 |     2374        1 |      2816752 |   -0.076407  |
 | 1 1 1 1 |  13   1  19   1 |     2497        1 |      3116257 |   -0.070793  |
 | 1 1 1 1 |  26   1  19   1 |     2510        1 |      3148796 |    0.073766  |
 | 1 1 1 1 |  27   1  21   1 |     2787        1 |      3882292 |    0.068931  |
 | 1 1 1 1 |   1  28  10   1 |     1243       28 |       771931 |    0.065190  |
 +=============================================================================+


          Norm of Printed Amplitude Vector :             0.8550

          Printed all single excitations greater than 0.381726

          Printed all double excitations greater than 0.064587



+======================================================================+
| contributions of excitation levels to right eigenvectors as computed |
| from the (RE|RE) self overlap                                        |
+----------------------------------------------------------------------+
| sym | multi | state |    E / eV  | % singles | % doubles | % triples |
+======================================================================+
|    1|   1   |   1   |  411.40092 |  88.1971  |  11.8029  |   0.0000  |
+======================================================================+





+======================================================================+
| contributions of excitation levels to excited states as computed     |
| from the (LE|RE) overlap                                             |
+----------------------------------------------------------------------+
| sym | multi | state |    E / eV  | % singles | % doubles | % triples |
+======================================================================+
|    1|   1   |   1   |  411.40092 |  79.1436  |  20.8564  |   0.0000  |
+======================================================================+



 --------------------------
 Symmetry class Nr.:     1
 Multiplicity      :     3
 --------------------------

 Length of Excitation vectors in this class is:   8404200
 No Excitation Energies calculated in this symmetry class
     

   *******************************************************************
   *                                                                 *
   *--------   OUTPUT FROM PROPERTY AND SYMMETRY ANALYSIS   ---------*
   *                                                                 *
   *******************************************************************



                         +-------------------------------+
                         ! REQUESTED PROPERTY OPERATORS: !
                         +-------------------------------+

             Index   Oper. Label  Symmetry  Transp.  PDBS  Atom
             --------------------------------------------------
                1     HAM0            1        1      T      0
                2     XDIPLEN         1        1      F      0
                3     YDIPLEN         1        1      F      0
                4     ZDIPLEN         1        1      F      0
             --------------------------------------------------




                         +-------------------------------+
                         ! REQUESTED EXPECTATION VALUES: !
                         +-------------------------------+

                       Index   Oper. Label  Symmetry
                       -----------------------------
                       -----------------------------




                       +------------------------------------+
                       ! REQUESTED EFFECTIVE FOCK MATRICES: !
                       +------------------------------------+

                       Index   Oper. Label  Symmetry
                       -----------------------------
                       -----------------------------




                        +----------------------------------+
                        ! REQUESTED FIRST ORDER M-VECTORS: !
                        +----------------------------------+

               Index   State Symmetry  Frequency
               --------------------------------------------------
                  1             1    1     1.511871D+01
               --------------------------------------------------


      

    *******************************************************************
    *          SOLVING COUPLED CLUSTER RESPONSE EQUATIONS             *
    *******************************************************************



 
 +======================================================================+
 !                     RHS & ETA VECTORS TO COMPUTE:                    !
 +======================================================================+
 | TYPE | # VEC. |  NEEDED FOR:                                         |
 +----------------------------------------------------------------------+
 +======================================================================+



 +======================================================================+
 !                       LINEAR EQUATIONS TO SOLVE:                     !
 +======================================================================+
 | TYPE | # VEC. |  EQUATION:                                           |
 +----------------------------------------------------------------------+
 |  M1  |    1   |  first-order ground - excited state multipliers      |
 +======================================================================+



 +======================================================================+
 !                F MATRIX TRANSFORMATIONS TO COMPUTE:                  !
 +======================================================================+
 | TYPE | # VEC. |  TRANSFORMED:                                        |
 +----------------------------------------------------------------------+
 |  FR  |    1   |  right eigenvectors (RE)                             |
 +======================================================================+





 Testing R1 list: 

 List nr.  Label     Symmetry      Frequency      T1-norm        T2-norm


 Testing L1 list: 

 List nr.  Label     Symmetry      Frequency      T1-norm        T2-norm
  Solvent 1-order response equations converged in                     0 
  solvent iterations
 SONIAPRI                     0
 CCEQ_STR: CVSEPARATION =  T
 CCEQ_STR: IONIZATION =  T
 CCEQ_STR: REMOVE_CORE =  F
 could not find required file CCM1_1___1
 IOPTSV is    33 ... program continues nevertheless.
 Vector nr.  1 of type M1  and symmetry  1 was not found on file.
     M1  start vector nr.  1 of symmetry  1 generated from gradient
 CCEQ_STR: freeze VALENCE OR VIRT
 CCEQ_SOL: CVSEPARA=     T
 CCEQ_SOL: LIONISAT=     T
 CCEQ_SOL: REMOVE_CORE =  F



 ----- COUPLED CLUSTER RESPONSE SOLVER -----

    Iter  #Vectors  time (min)   residual
    --------------------------------------
 CCRED CVS/IONIS sigma_                     1 
 project out valence occupied or virtual
      1       1         1.38     0.22E+01
 CCRED CVS/IONIS sigma_                     2 
 project out valence occupied or virtual
      2       1         1.38     0.41E+00
 CCRED CVS/IONIS sigma_                     3 
 project out valence occupied or virtual
      3       1         1.37     0.50E-01
 CCRED CVS/IONIS sigma_                     4 
 project out valence occupied or virtual
                    -1  vectors with norm le:  1.000000000000000E-035  REMOVED

 CCORT,**WARNING**  number vectors added is zero after check for vector norm , NBADD :    0

 CCORT, number vectors added is zero , NBADD :    0

 CCORT, number vectors added is zero , NBADD :    0

 CCORT, number vectors added is zero , NBADD :    0

 CCORT, number vectors added is zero , NBADD :    0

 *** MICROITERATIONS STOPPED DUE TO LINEAR DEPENDENCE BETWEEN ALL NEW TRIAL VECTORS
                     0  trial vectors converged
  LINEAR DEPENDENCE BETWEEN                     1  NON CONVERGED TRIAL VECTORS
      4       1         1.32     0.53E-02

 ***  CCEQ_SOL -MICROITERATIONS STOPPED  
     LINEAR DEPENDENCE BETWEEN ALL NEW TRIAL VECTORS
    --------------------------------------
    converged in  4 iterations
    threshold:    0.10E-08


         Routine          Time (min)
         ---------------------------
         CC_TRDRV            5.45
         CCRED               0.04
         CCNEX               0.06
         ---------------------------
         Total time          5.55


  Total CPU  time used in CCEQ_SOLV:  5 minutes 33 seconds
  Total wall time used in CCEQ_SOLV:  6 minutes 45 seconds


 xxxxxxxxxxxxxxxxxxxxxxxxxxxxxxxxxxxxx

 
 Solution of CC response equations completed.
 

 *******************************************************************
 *                                                                 *
 *--------  OUTPUT FROM COUPLED CLUSTER LINEAR RESPONSE   ---------*
 *                                                                 *
 *--------      CALCULATION OF SECOND ORDER RESIDUES      ---------*
 *                                                                 *
 *******************************************************************



                  +---------------------------------------------+
                  ! CC_SOPR: Calculation of CCSD       Residues !
                  +---------------------------------------------+

 Doing the Mf*CsiA
 Doing the Mf*CsiA
 Doing the Mf*CsiA


 CCSD  Right transition moments in atomic units:
 -----------------------------------------------

  1      15.118706  <XDIPLEN |f> =       0.00000007
  1      15.118706  <YDIPLEN |f> =      -0.00000001
  1      15.118706  <ZDIPLEN |f> =       0.00000004


 CCSD  Left  transition moments in atomic units:
 -----------------------------------------------

  1      15.118706  <f|XDIPLEN > =       0.00000003
  1      15.118706  <f|YDIPLEN > =      -0.00000001
  1      15.118706  <f|ZDIPLEN > =       0.00000002


 CCSD  linear response residue property in atomic units:
 -------------------------------------------------------

 RES{<<XDIPLEN ,XDIPLEN >>(15.118706)} =     0.00000000 (   0.00000004)
 RES{<<XDIPLEN ,YDIPLEN >>(15.118706)} =    -0.00000000 (  -0.00000002)
 RES{<<XDIPLEN ,ZDIPLEN >>(15.118706)} =     0.00000000 (   0.00000003)
 RES{<<YDIPLEN ,XDIPLEN >>(15.118706)} =    -0.00000000 (  -0.00000002)
 RES{<<YDIPLEN ,YDIPLEN >>(15.118706)} =     0.00000000 (   0.00000001)
 RES{<<YDIPLEN ,ZDIPLEN >>(15.118706)} =    -0.00000000 (  -0.00000001)
 RES{<<ZDIPLEN ,XDIPLEN >>(15.118706)} =     0.00000000 (   0.00000003)
 RES{<<ZDIPLEN ,YDIPLEN >>(15.118706)} =    -0.00000000 (  -0.00000001)
 RES{<<ZDIPLEN ,ZDIPLEN >>(15.118706)} =     0.00000000 (   0.00000003)


 CCSD  Transition strength matrix for state nr.  1 of symmetry 1
 CCSD  excitation energy:15.11870621

 Gauge: length

               Column   1     Column   2     Column   3
       1     1.963050D-15  -3.521694D-16   1.214732D-15
       2    -3.521694D-16   6.317500D-17  -2.179130D-16
       3     1.214732D-15  -2.179130D-16   7.516540D-16
    ==== End of matrix output ====

 Principal values of diagonalized transition strength matrix:

             a.u.               
 1       0.00000000
 2       0.00000000
 3       0.00000000

 Principal axis of diagonalized transition strength matrix:


               Column   1     Column   2     Column   3
       1       1.00000000     0.00000000     0.00000000
       2       0.00000000     1.00000000     0.00000000
       3       0.00000000     0.00000000     1.00000000
    ==== End of matrix output ====


 CCSD   oscillator strength matrix for state nr.  1 of symmetry 1
 CCSD  excitation energy:15.11870621


               Column   1     Column   2     Column   3
       1     1.978585D-14  -3.549563D-15   1.224345D-14
       2    -3.549563D-15   6.367495D-16  -2.196375D-15
       3     1.224345D-14  -2.196375D-15   7.576024D-15
    ==== End of matrix output ====

 Principal values of diagonalized oscillator strength matrix:

             a.u.               
 1       0.00000000
 2       0.00000000
 3       0.00000000

 Principal axis of diagonalized oscillator strength matrix:


               Column   1     Column   2     Column   3
       1       1.00000000     0.00000000     0.00000000
       2       0.00000000     1.00000000     0.00000000
       3       0.00000000     0.00000000     1.00000000
    ==== End of matrix output ====

  Total time for      9 linear response residues:       3.00 seconds.
  

 *******************************************************************************
 *******************************************************************************
 *                                                                             *
 *                                                                             *
 *                   SUMMARY OF COUPLED CLUSTER CALCULATION                    *
 *                                                                             *
 *                                                                             *
 *******************************************************************************
 *******************************************************************************

                                                                                
                                                                                
            Total SCF   energy:                  -361.2086494641                
            Total MP2   energy:                  -362.3164706348                
            Total CCSD  energy:                  -362.3569697848                
                                                                                
                                                                                
            Total SCF   energy:                  -361.2086494641                
            Total RSTAR energy:                  -362.3569697848                
            Total CCSD  energy:                  -362.3571061213                
                                                                                
                                                                                
            Total SCF   energy:                  -361.2086494641                
            Total RSTAR energy:                  -362.3571061213                
            Total CCSD  energy:                  -362.3571063168                
                                                                                
                                                                                
            Total SCF   energy:                  -361.2086494641                
            Total RSTAR energy:                  -362.3571063168                
            Total CCSD  energy:                  -362.3571063957                
                                                                                
                                                                                
            Total SCF   energy:                  -361.2086494641                
            Total RSTAR energy:                  -362.3571063957                
            Total CCSD  energy:                  -362.3571063966                
                                                                                
                                                                                
            Total SCF   energy:                  -361.2086494641                
            Total RSTAR energy:                  -362.3571063966                
            Total CCSD  energy:                  -362.3571063966                
            CCSD Total  energy:                  -362.7694252036                
            CCSD E(QM/MM)     :                    -0.4085217687                
                                                                                
                                                                                
                                                                                
 +=============================================================================+
 |  sym. | Exci.  |        CCSD       Excitation energies            | ||T1||  |
 |(spin, |        +------------------------------------------------------------+
 | spat) |        |     Hartree    |       eV.      |     cm-1       |    %    |
 +=============================================================================+
 | ^1A   |    1   |    15.1187062  |     411.40092  |   3318172.442  |  88.20  |
 +=============================================================================+
                                                                                
                                                                                
     Total energies in Hartree:                                                 
             1 ^1A       -347.2421972214                                        
                                                                                
                                                                                
 +=============================================================================+
 |  sym. | Exci.  |        CCSD       Length   Gauge Oscillator Strength       |
 |(spin, |        +------------------------------------------------------------+
 | spat) |        | Dipole Strength(a.u.) | Oscillator strength  | Direction   |
 +=============================================================================+
 | ^1A   |    1   |        0.0000000      |      0.0000000       |    -        |
 +=============================================================================+

  1 a.u. =        27.21138 eV.  
  1 a.u. =    219474.62934 cm-1.
  

 *******************************************************************************
 *******************************************************************************
 *                                                                             *
 *                                                                             *
 *                      END OF COUPLED CLUSTER CALCULATION                     *
 *                                                                             *
 *                                                                             *
 *******************************************************************************
 *******************************************************************************


 CPU and wall time for CC :    6375.617    8097.317

 
     Date and time (Linux)  : Mon Dec  3 14:50:44 2018
     Host name              : n-62-29-6                               


                      .-------------------------------------.
                      | End of Coupled Cluster Section (CC) |
                      `-------------------------------------'

  Total CPU  time used in DALTON:   1 hour  48 minutes 22 seconds
  Total wall time used in DALTON:   2 hours 17 minutes 44 seconds

 
     Date and time (Linux)  : Mon Dec  3 14:50:44 2018
     Host name              : n-62-29-6                               
  

 +---------------------------------------------------------+ 
 | List of selected calculated molecular properties (a.u.) | 
 +---------------------------------------------------------+ 

  Properties are read from unit number                      4

 CCSD       properties :
 #  1 1 CCSD/MM  Ground state Energy =    -362.7694252036
 #  2 1 E_QM/MM  Ground state Energy =      -0.4085217687
 #  3 1 Sy: 1 Sp: 1 Exc:  1 E_tot:   -347.2421972214 w:     15.1187062135 E_grs:   -362.3609034349
 #  4 1 Exctot   Excited state Energy =    -347.2421972214
 #  5 1 |<O|XDIPLEN |i(15.118706)>| =     0.00000004
 #  7 1 |<O|YDIPLEN |i(15.118706)>| =     0.00000001
 #  9 1 |<O|ZDIPLEN |i(15.118706)>| =     0.00000003

 THE_END   
