

     ************************************************************************
     *************** Dalton - An Electronic Structure Program ***************
     ************************************************************************

    This is output from DALTON release Dalton2017.alpha (2016)
         ( Web site: http://daltonprogram.org )

   ----------------------------------------------------------------------------

    NOTE:
     
    Dalton is an experimental code for the evaluation of molecular
    properties using (MC)SCF, DFT, CI, and CC wave functions.
    The authors accept no responsibility for the performance of
    the code or for the correctness of the results.
     
    The code (in whole or part) is provided under a licence and
    is not to be reproduced for further distribution without
    the written permission of the authors or their representatives.
     
    See the home page "http://daltonprogram.org" for further information.
     
    If results obtained with this code are published,
    the appropriate citations would be both of:
     
       K. Aidas, C. Angeli, K. L. Bak, V. Bakken, R. Bast,
       L. Boman, O. Christiansen, R. Cimiraglia, S. Coriani,
       P. Dahle, E. K. Dalskov, U. Ekstroem,
       T. Enevoldsen, J. J. Eriksen, P. Ettenhuber, B. Fernandez,
       L. Ferrighi, H. Fliegl, L. Frediani, K. Hald, A. Halkier,
       C. Haettig, H. Heiberg, T. Helgaker, A. C. Hennum,
       H. Hettema, E. Hjertenaes, S. Hoest, I.-M. Hoeyvik,
       M. F. Iozzi, B. Jansik, H. J. Aa. Jensen, D. Jonsson,
       P. Joergensen, J. Kauczor, S. Kirpekar,
       T. Kjaergaard, W. Klopper, S. Knecht, R. Kobayashi, H. Koch,
       J. Kongsted, A. Krapp, K. Kristensen, A. Ligabue,
       O. B. Lutnaes, J. I. Melo, K. V. Mikkelsen, R. H. Myhre,
       C. Neiss, C. B. Nielsen, P. Norman, J. Olsen,
       J. M. H. Olsen, A. Osted, M. J. Packer, F. Pawlowski,
       T. B. Pedersen, P. F. Provasi, S. Reine, Z. Rinkevicius,
       T. A. Ruden, K. Ruud, V. Rybkin, P. Salek, C. C. M. Samson,
       A. Sanchez de Meras, T. Saue, S. P. A. Sauer,
       B. Schimmelpfennig, K. Sneskov, A. H. Steindal,
       K. O. Sylvester-Hvid, P. R. Taylor, A. M. Teale,
       E. I. Tellgren, D. P. Tew, A. J. Thorvaldsen, L. Thoegersen,
       O. Vahtras, M. A. Watson, D. J. D. Wilson, M. Ziolkowski
       and H. Agren,
       "The Dalton quantum chemistry program system",
       WIREs Comput. Mol. Sci. 2014, 4:269–284 (doi: 10.1002/wcms.1172)
     
    and
     
       Dalton, a Molecular Electronic Structure Program,
       Release Dalton2017.alpha (2016), see http://daltonprogram.org
   ----------------------------------------------------------------------------

    Authors in alphabetical order (major contribution(s) in parenthesis):

  Kestutis Aidas,           Vilnius University,           Lithuania   (QM/MM)
  Celestino Angeli,         University of Ferrara,        Italy       (NEVPT2)
  Keld L. Bak,              UNI-C,                        Denmark     (AOSOPPA, non-adiabatic coupling, magnetic properties)
  Vebjoern Bakken,          University of Oslo,           Norway      (DALTON; geometry optimizer, symmetry detection)
  Radovan Bast,             UiT The Arctic U. of Norway,  Norway      (DALTON installation and execution frameworks)
  Pablo Baudin,             University of Valencia,       Spain       (Cholesky excitation energies)
  Linus Boman,              NTNU,                         Norway      (Cholesky decomposition and subsystems)
  Ove Christiansen,         Aarhus University,            Denmark     (CC module)
  Renzo Cimiraglia,         University of Ferrara,        Italy       (NEVPT2)
  Sonia Coriani,            University of Trieste,        Italy       (CC module, MCD in RESPONS)
  Janusz Cukras,            University of Trieste,        Italy       (MChD in RESPONS)
  Paal Dahle,               University of Oslo,           Norway      (Parallelization)
  Erik K. Dalskov,          UNI-C,                        Denmark     (SOPPA)
  Thomas Enevoldsen,        Univ. of Southern Denmark,    Denmark     (SOPPA)
  Janus J. Eriksen,         Aarhus University,            Denmark     (Polarizable embedding model, TDA)
  Rasmus Faber,             University of Copenhagen,     Denmark     (Vib.avg. NMR with SOPPA, parallel AO-SOPPA)
  Berta Fernandez,          U. of Santiago de Compostela, Spain       (doublet spin, ESR in RESPONS)
  Lara Ferrighi,            Aarhus University,            Denmark     (PCM Cubic response)
  Heike Fliegl,             University of Oslo,           Norway      (CCSD(R12))
  Luca Frediani,            UiT The Arctic U. of Norway,  Norway      (PCM)
  Bin Gao,                  UiT The Arctic U. of Norway,  Norway      (Gen1Int library)
  Christof Haettig,         Ruhr-University Bochum,       Germany     (CC module)
  Kasper Hald,              Aarhus University,            Denmark     (CC module)
  Asger Halkier,            Aarhus University,            Denmark     (CC module)
  Frederik Beyer Hansen,    University of Copenhagen,     Denmark     (Parallel AO-SOPPA)
  Erik D. Hedegaard,        Univ. of Southern Denmark,    Denmark     (Polarizable embedding model, QM/MM)
  Hanne Heiberg,            University of Oslo,           Norway      (geometry analysis, selected one-electron integrals)
  Trygve Helgaker,          University of Oslo,           Norway      (DALTON; ABACUS, ERI, DFT modules, London, and much more)
  Alf Christian Hennum,     University of Oslo,           Norway      (Parity violation)
  Hinne Hettema,            University of Auckland,       New Zealand (quadratic response in RESPONS; SIRIUS supersymmetry)
  Eirik Hjertenaes,         NTNU,                         Norway      (Cholesky decomposition)
  Pi A. B. Haase,           University of Copenhagen,     Denmark     (Triplet AO-SOPPA)
  Maria Francesca Iozzi,    University of Oslo,           Norway      (RPA)
  Brano Jansik              Technical Univ. of Ostrava    Czech Rep.  (DFT cubic response)
  Hans Joergen Aa. Jensen,  Univ. of Southern Denmark,    Denmark     (DALTON; SIRIUS, RESPONS, ABACUS modules, London, and much more)
  Dan Jonsson,              UiT The Arctic U. of Norway,  Norway      (cubic response in RESPONS module)
  Poul Joergensen,          Aarhus University,            Denmark     (RESPONS, ABACUS, and CC modules)
  Maciej Kaminski,          University of Warsaw,         Poland      (CPPh in RESPONS)
  Joanna Kauczor,           Linkoeping University,        Sweden      (Complex polarization propagator (CPP) module)
  Sheela Kirpekar,          Univ. of Southern Denmark,    Denmark     (Mass-velocity & Darwin integrals)
  Wim Klopper,              KIT Karlsruhe,                Germany     (R12 code in CC, SIRIUS, and ABACUS modules)
  Stefan Knecht,            ETH Zurich,                   Switzerland (Parallel CI and MCSCF)
  Rika Kobayashi,           Australian National Univ.,    Australia   (DIIS in CC, London in MCSCF)
  Henrik Koch,              NTNU,                         Norway      (CC module, Cholesky decomposition)
  Jacob Kongsted,           Univ. of Southern Denmark,    Denmark     (Polarizable embedding model, QM/MM)
  Andrea Ligabue,           University of Modena,         Italy       (CTOCD, AOSOPPA)
  Nanna H. List             Univ. of Southern Denmark,    Denmark     (Polarizable embedding model)
  Ola B. Lutnaes,           University of Oslo,           Norway      (DFT Hessian)
  Juan I. Melo,             University of Buenos Aires,   Argentina   (LRESC, Relativistic Effects on NMR Shieldings)
  Kurt V. Mikkelsen,        University of Copenhagen,     Denmark     (MC-SCRF and QM/MM)
  Rolf H. Myhre,            NTNU,                         Norway      (Cholesky, subsystems and ECC2)
  Christian Neiss,          Univ. Erlangen-Nuernberg,     Germany     (CCSD(R12))
  Christian B. Nielsen,     University of Copenhagen,     Denmark     (QM/MM)
  Patrick Norman,           Linkoeping University,        Sweden      (Cubic response and complex frequency response in RESPONS)
  Jeppe Olsen,              Aarhus University,            Denmark     (SIRIUS CI/density modules)
  Jogvan Magnus H. Olsen,   Univ. of Southern Denmark,    Denmark     (Polarizable embedding model, QM/MM)
  Anders Osted,             Copenhagen University,        Denmark     (QM/MM)
  Martin J. Packer,         University of Sheffield,      UK          (SOPPA)
  Filip Pawlowski,          Kazimierz Wielki University,  Poland      (CC3)
  Morten N. Pedersen,       Univ. of Southern Denmark,    Denmark     (Polarizable embedding model)
  Thomas B. Pedersen,       University of Oslo,           Norway      (Cholesky decomposition)
  Patricio F. Provasi,      University of Northeastern,   Argentina   (Analysis of coupling constants in localized orbitals)
  Zilvinas Rinkevicius,     KTH Stockholm,                Sweden      (open-shell DFT, ESR)
  Elias Rudberg,            KTH Stockholm,                Sweden      (DFT grid and basis info)
  Torgeir A. Ruden,         University of Oslo,           Norway      (Numerical derivatives in ABACUS)
  Kenneth Ruud,             UiT The Arctic U. of Norway,  Norway      (DALTON; ABACUS magnetic properties and much more)
  Pawel Salek,              KTH Stockholm,                Sweden      (DALTON; DFT code)
  Claire C. M. Samson       University of Karlsruhe       Germany     (Boys localization, r12 integrals in ERI)
  Alfredo Sanchez de Meras, University of Valencia,       Spain       (CC module, Cholesky decomposition)
  Trond Saue,               Paul Sabatier University,     France      (direct Fock matrix construction)
  Stephan P. A. Sauer,      University of Copenhagen,     Denmark     (SOPPA(CCSD), SOPPA prop., AOSOPPA, vibrational g-factors)
  Bernd Schimmelpfennig,    Forschungszentrum Karlsruhe,  Germany     (AMFI module)
  Kristian Sneskov,         Aarhus University,            Denmark     (Polarizable embedding model, QM/MM)
  Arnfinn H. Steindal,      UiT The Arctic U. of Norway,  Norway      (parallel QM/MM, Polarizable embedding model)
  Casper Steinmann,         Univ. of Southern Denmark,    Denmark     (QFIT, Polarizable embedding model)
  K. O. Sylvester-Hvid,     University of Copenhagen,     Denmark     (MC-SCRF)
  Peter R. Taylor,          VLSCI/Univ. of Melbourne,     Australia   (Symmetry handling ABACUS, integral transformation)
  Andrew M. Teale,          University of Nottingham,     England     (DFT-AC, DFT-D)
  David P. Tew,             University of Bristol,        England     (CCSD(R12))
  Olav Vahtras,             KTH Stockholm,                Sweden      (triplet response, spin-orbit, ESR, TDDFT, open-shell DFT)
  David J. Wilson,          La Trobe University,          Australia   (DFT Hessian and DFT magnetizabilities)
  Hans Agren,               KTH Stockholm,                Sweden      (SIRIUS module, RESPONS, MC-SCRF solvation model)
 --------------------------------------------------------------------------------

     Date and time (Linux)  : Fri Dec  7 23:51:52 2018
     Host name              : n-62-24-5                               

 * Work memory size             :  1280000000 =  9.537 gigabytes.

 * Directories for basis set searches:
   1) /zhome/d7/7/119775/My_Codes/dalton-private/build2016/basis/diffs
   2) /zhome/37/3/129401/NH3NH4/CCSD/AIMD_SAMPLING/nh4_4h2o_nd
   3) /zhome/9a/4/124800/source/dalton/build-mlcc/basis


Compilation information
-----------------------

 Who compiled             | rfaber
 Host                     | hpclogin1
 System                   | Linux-2.6.32-696.1.1.el6.x86_64
 CMake generator          | Unix Makefiles
 Processor                | x86_64
 64-bit integers          | ON
 MPI                      | OFF
 Fortran compiler         | /opt/intel/2016update2/compilers_and_libraries_201
                          | 6.2.181/linux/bin/intel64/ifort
 Fortran compiler version | ifort (IFORT) 16.0.2 20160204
 C compiler               | /opt/intel/2016update2/compilers_and_libraries_201
                          | 6.2.181/linux/bin/intel64/icc
 C compiler version       | icc (ICC) 16.0.2 20160204
 C++ compiler             | /opt/intel/2016update2/compilers_and_libraries_201
                          | 6.2.181/linux/bin/intel64/icpc
 C++ compiler version     | icpc (ICC) 16.0.2 20160204
 Static linking           | OFF
 Last Git revision        | bb4d1599ca5680a9f3980451fc8bbefdba436d59
 Git branch               | mlcc
 Configuration time       | 2017-06-13 16:11:03.928841


   Content of the .dal input file
 ----------------------------------

**DALTON
.RUN WAVE FUNCTIONS
*QMMM
.QMMM
**INTEGRALS
.DIPLEN
**WAVE FUNCTIONS
.CC
*PRINT
!To check the origin of excit
.PRINTL
   0 11
*SCF INP
.THRESH
1.0D-7
!*ORBITAL INPUT
!.MOSTART
!NEWORB
*CC INP
!.RESTART
.CCSD
.THRLEQ
 1.0D-9
.THRENR
 1.0D-10
.FROIMP
4
0
.PRINT
 1
.MAX IT
 1200
.MAXRED
 1200
.MXLRV
1199
*CCSLV
.CCMM
.MXSLIT
200
.MXINIT
4 5
*CCEXCI
.NCCEXC
 1
.IONISATION
1
1
.CVSEPARA
1
1
*CCLRSD
.DIPOLE
**END OF DALTON INPUT


   Content of the .mol file
 ----------------------------

ATOMBASIS


Atomtypes=5 Charge=1 Nosymm Angstrom
   7.00000    1    Basis=6-311G**
N          0.000000        0.000000        0.000000
   1.00000    4    Basis=6-311G**
H          0.689078        0.755980       -0.172788
H          0.489511       -0.900107        0.243469
H         -0.635261       -0.087794       -0.797022
H         -0.591378        0.254610        0.814405
   8.00000    4    Basis=6-311G**
O         -2.477077       -0.981329       -1.140844
O          1.404115        2.741454       -0.426135
O         -1.631205        2.105382        1.595182
O          1.941698       -1.774336        0.261423
   1.00000    8    Basis=6-311G**
H         -2.732641       -1.772045       -0.517950
H         -3.249571       -0.254492       -1.008872
H          1.262247        3.612566        0.041354
H          2.422735        2.694075       -0.398275
H         -1.638122        2.511396        0.746138
H         -1.129499        2.784525        2.110408
H          2.171829       -1.969216        1.192302
H          2.658512       -1.180531       -0.144420
   0.00000    1    Basis=diffs
X          0.000000        0.000000        0.000000


       *******************************************************************
       *********** Output from DALTON general input processing ***********
       *******************************************************************

 --------------------------------------------------------------------------------
   Overall default print level:    0
   Print level for DALTON.STAT:    1

    HERMIT 1- and 2-electron integral sections will be executed
    "Old" integral transformation used (limited to max 255 basis functions)
    Wave function sections will be executed (SIRIUS module)
 --------------------------------------------------------------------------------


 Changes of defaults for *QMMM  :
 --------------------------------

 +------------------+
 |  WORD: | CHANGE: |
 +------------------+
 |   QMMM |       T |
 +------------------+
 


   ****************************************************************************
   *************** Output of molecule and basis set information ***************
   ****************************************************************************


    The two title cards from your ".mol" input:
    ------------------------------------------------------------------------
 1:                                                                         
 2:                                                                         
    ------------------------------------------------------------------------

  Coordinates are entered in Angstrom and converted to atomic units.
          - Conversion factor : 1 bohr = 0.52917721 A

  Atomic type no.    1
  --------------------
  Nuclear charge:   7.00000
  Number of symmetry independent centers:    1
  Number of basis sets to read;    2
  The basis set is "6-311G**" from the basis set library.
  Basis set file used for this atomic type with Z =   7 :
     "/zhome/9a/4/124800/source/dalton/build-mlcc/basis/6-311G**"

  Info about the basis set file: your basis has no documentation.
  Basis set: 6-311G**                                                                        

  Atomic type no.    2
  --------------------
  Nuclear charge:   1.00000
  Number of symmetry independent centers:    4
  Number of basis sets to read;    2
  The basis set is "6-311G**" from the basis set library.
  Basis set file used for this atomic type with Z =   1 :
     "/zhome/9a/4/124800/source/dalton/build-mlcc/basis/6-311G**"

  Info about the basis set file: your basis has no documentation.
  Basis set: 6-311G**                                                                        

  Atomic type no.    3
  --------------------
  Nuclear charge:   8.00000
  Number of symmetry independent centers:    4
  Number of basis sets to read;    2
  The basis set is "6-311G**" from the basis set library.
  Basis set file used for this atomic type with Z =   8 :
     "/zhome/9a/4/124800/source/dalton/build-mlcc/basis/6-311G**"

  Info about the basis set file: your basis has no documentation.
  Basis set: 6-311G**                                                                        

  Atomic type no.    4
  --------------------
  Nuclear charge:   1.00000
  Number of symmetry independent centers:    8
  Number of basis sets to read;    2
  The basis set is "6-311G**" from the basis set library.
  Basis set file used for this atomic type with Z =   1 :
     "/zhome/9a/4/124800/source/dalton/build-mlcc/basis/6-311G**"

  Info about the basis set file: your basis has no documentation.
  Basis set: 6-311G**                                                                        

  Atomic type no.    5
  --------------------
  Nuclear charge:   0.00000
  Number of symmetry independent centers:    1
  Number of basis sets to read;    2
  The basis set is "diffs" from the basis set library.
  Basis set file used for this atomic type with Z =   0 :
     "/zhome/9a/4/124800/source/dalton/build-mlcc/basis/diffs"

  Info about the basis set file: your basis has no documentation.
  Basis set: diffs                                                                           


                         SYMGRP: Point group information
                         -------------------------------

@    Point group: C1 


                                 Isotopic Masses
                                 ---------------

                           N          14.003074
                           H           1.007825
                           H           1.007825
                           H           1.007825
                           H           1.007825
                           O          15.994915
                           O          15.994915
                           O          15.994915
                           O          15.994915
                           H           1.007825
                           H           1.007825
                           H           1.007825
                           H           1.007825
                           H           1.007825
                           H           1.007825
                           H           1.007825
                           H           1.007825

                       Total mass:    90.076634 amu
                       Natural abundance:  98.500 %

 Center-of-mass coordinates (a.u.):   -0.261827    0.838063    0.141772


  Atoms and basis sets
  --------------------

  Number of atom types :    5
  Total number of atoms:   18

  label    atoms   charge   prim   cont     basis
  ----------------------------------------------------------------------
  N           1    7.0000    31    18      [11s5p1d|4s3p1d]                                   
  H           4    1.0000     8     6      [5s1p|3s1p]                                        
  O           4    8.0000    31    18      [11s5p1d|4s3p1d]                                   
  H           8    1.0000     8     6      [5s1p|3s1p]                                        
  X           1    0.0000     1     1      [1s|1s]                                            
  ----------------------------------------------------------------------
  total:     18   51.0000   252   163
  ----------------------------------------------------------------------
  Spherical harmonic basis used.

  Threshold for neglecting AO integrals:  1.00D-12


  Cartesian Coordinates (a.u.)
  ----------------------------

  Total number of coordinates:   54
  N       :     1  x   0.0000000000    2  y   0.0000000000    3  z   0.0000000000
  H       :     4  x   1.3021686988    5  y   1.4285951560    6  z  -0.3265219977
  H       :     7  x   0.9250417252    8  y  -1.7009557132    9  z   0.4600897299
  H       :    10  x  -1.2004693079   11  y  -0.1659066154   12  z  -1.5061532956
  H       :    13  x  -1.1175424563   14  y   0.4811431687   15  z   1.5390024048
  O       :    16  x  -4.6809971205   17  y  -1.8544430485   18  z  -2.1558827113
  O       :    19  x   2.6533927980   20  y   5.1805972443   21  z  -0.8052784423
  O       :    22  x  -3.0825307037   23  y   3.9785953685   24  z   3.0144570995
  O       :    25  x   3.6692774374   26  y  -3.3530090937   27  z   0.4940178728
  H       :    28  x  -5.1639430879   29  y  -3.3486797312   30  z  -0.9787836464
  H       :    31  x  -6.1407992137   32  y  -0.4809201810   33  z  -1.9064917752
  H       :    34  x   2.3853011321   35  y   6.8267603485   36  z   0.0781477342
  H       :    37  x   4.5783056234   38  y   5.0910639102   39  z  -0.7526306724
  H       :    40  x  -3.0956019393   41  y   4.7458506314   42  z   1.4099964715
  H       :    43  x  -2.1344437685   44  y   5.2619896382   45  z   3.9880931320
  H       :    46  x   4.1041620003   47  y  -3.7212789210   48  z   2.2531242383
  H       :    49  x   5.0238595800   50  y  -2.2308802721   51  z  -0.2729142470
  X       :    52  x   0.0000000000   53  y   0.0000000000   54  z   0.0000000000

  Max    interatomic separation is    6.8219 Angstrom (   12.8915 Bohr)
  between atoms   13 and   10, "H     " and "H     ".

  Min HX interatomic separation is    0.9412 Angstrom (    1.7785 Bohr)

  Min YX interatomic separation is    2.6433 Angstrom (    4.9950 Bohr)


  Bond distances (Angstrom):
  --------------------------

                  atom 1     atom 2       distance
                  ------     ------       --------
  bond distance:  H          N            1.037396
  bond distance:  H          N            1.053134
  bond distance:  H          N            1.022990
  bond distance:  H          N            1.038176
  bond distance:  H          O            1.038529
  bond distance:  H          O            1.068857
  bond distance:  H          O            0.998754
  bond distance:  H          O            1.020102
  bond distance:  H          O            0.941154
  bond distance:  H          O            0.989142
  bond distance:  H          O            0.978506
  bond distance:  H          O            1.015448


  Bond angles (degrees):
  ----------------------

                  atom 1     atom 2     atom 3         angle
                  ------     ------     ------         -----
  bond angle:     H          N          H            110.646
  bond angle:     H          N          H            110.197
  bond angle:     H          N          H            109.288
  bond angle:     H          N          H            113.292
  bond angle:     H          N          H            107.039
  bond angle:     H          N          H            106.170
  bond angle:     H          O          H            105.417
  bond angle:     H          O          H             99.763
  bond angle:     H          O          H            100.220
  bond angle:     H          O          H            109.309




 Principal moments of inertia (u*A**2) and principal axes
 --------------------------------------------------------

   IA     337.578972         -0.036427    0.976275    0.213449
   IB     358.037441          0.998958    0.029695    0.034665
   IC     568.418388         -0.027504   -0.214489    0.976339


 Rotational constants
 --------------------

               A                   B                   C

           1497.0690           1411.5256            889.0969 MHz
            0.049937            0.047083            0.029657 cm-1


@  Nuclear repulsion energy :  197.028255321212 Hartree

  Number of floating/multiple basis set orbitals :    1


                     .---------------------------------------.
                     | Starting in Integral Section (HERMIT) |
                     `---------------------------------------'



 ***************************************************************************************
 ****************** Output from **INTEGRALS input processing (HERMIT) ******************
 ***************************************************************************************



    *************************************************************************
    ****************** Output from HERMIT input processing ******************
    *************************************************************************


 Default print level:        1

 * Nuclear model: Point charge

 Calculation of one- and two-electron Hamiltonian integrals.

 The following one-electron property integrals are calculated as requested:
          - overlap integrals
          - dipole length integrals

 Center of mass  (bohr):     -0.261827433724      0.838063019894      0.141772375524
 Operator center (bohr):      0.000000000000      0.000000000000      0.000000000000
 Gauge origin    (bohr):      0.000000000000      0.000000000000      0.000000000000
 Dipole origin   (bohr):      0.000000000000      0.000000000000      0.000000000000
 
  *********************************** 
  QMMM electrostatic potential: 
  Multipole order                                    0
  Isotropic polarization  
  *********************************** 
 
  ---------------- 
  QMMM information 
  ---------------- 
 
  MM coordinates in au 
  -------------------- 
     1     -0.770466      3.783937     -4.878409
     2     -0.323665      2.004296     -5.203714
     3      0.713825      4.590447     -4.011847
     4     10.063642      6.762264    -10.044577
     5      8.696571      6.276000     -8.996281
     6     11.206613      5.348282    -10.536414
     7      6.843435      7.643169     -5.515903
     8      6.610801      8.765149     -4.082672
     9      6.684935      5.911834     -4.934937
    10      6.873782    -11.434153     -2.805956
    11      7.823423    -11.156425     -1.301687
    12      8.029790    -10.797808     -4.143820
    13     -7.945023     -8.068947     -7.169358
    14     -7.868872     -8.922614     -8.900960
    15     -8.301862     -6.306179     -7.374622
    16    -10.146807      9.011365     -6.790816
    17    -10.744701      8.319725     -8.419556
    18    -11.248444     10.417775     -6.372421
    19     -1.843541     -8.906283      2.357210
    20     -2.051623    -10.080032      0.769901
    21     -2.240852     -9.930928      3.941217
    22      5.537100     -1.549579    -10.268392
    23      5.136761     -3.277783     -9.541872
    24      7.256441     -1.719980    -11.036978
    25      6.570037    -10.463502      3.027532
    26      8.064495     -9.395588      2.489552
    27      7.381425    -12.088361      3.495406
    28     -1.567125      5.517806     -9.987635
    29     -2.115393      3.723231    -10.346623
    30     -0.778809      5.480771     -8.267455
    31     -9.819043      1.449792     -1.769075
    32    -10.708075      1.065303     -0.209531
    33     -9.781574      3.413371     -1.763967
    34     10.028567     -8.736453     -6.943829
    35     11.752254     -8.974321     -7.547319
    36     10.065144     -7.556370     -5.592202
    37      1.177409     -1.314063     -5.017778
    38      2.255454     -1.666761     -6.357033
    39      0.969515     -2.884642     -4.137329
    40     10.858442     -1.432038     -4.779021
    41     12.001817     -2.018802     -6.038168
    42     11.983553     -0.438783     -3.521302
    43     10.149604     -5.596534     -2.215180
    44      9.350820     -5.345638     -0.530486
    45     10.266444     -3.872262     -2.918606
    46      8.503832      4.878848     -0.124187
    47      8.595321      6.251635      1.114952
    48      9.902278      5.214236     -1.329437
    49      5.591129     -9.632939    -10.192285
    50      4.561880    -11.135321     -9.861330
    51      7.170923     -9.873955     -9.230033
    52     -4.575552      5.507936     -2.045292
    53     -3.695828      5.110381     -3.622484
    54     -6.269363      6.164135     -2.393967
    55    -10.689087      0.142550      3.613043
    56    -12.173610     -0.296466      4.574768
    57     -9.888483      1.558858      4.543773
    58     -1.534643     11.485003     -6.516373
    59      0.064096     10.701239     -7.012331
    60     -2.847698     10.434937     -7.483162
    61     -7.327929      0.937021      9.289238
    62     -5.553368      0.613401     10.158737
    63     -7.375626     -0.550445      8.301593
    64     -3.732750     -2.859641      7.413607
    65     -4.377934     -3.602020      5.902518
    66     -3.908883     -4.119182      8.699776
    67      2.297132      0.863146      5.718967
    68      2.372134     -0.132275      7.421676
    69      0.649656      1.487027      5.787177
    70     -9.136180     -8.292237     -1.816800
    71     -8.368486     -8.187794     -3.520526
    72    -10.656867     -7.254237     -1.904228
    73     -5.288845      9.070292     -9.454462
    74     -6.747518      9.051586     -8.168844
    75     -4.730368      7.283707     -9.422454
    76    -10.198963     -6.201195      9.850301
    77     -9.799092     -5.827173      8.090562
    78    -11.759747     -7.135453      9.714428
    79     -3.971420     -7.654192     10.403296
    80     -5.810184     -8.010116     10.596851
    81     -3.318612     -7.717133     12.175770
    82      2.119126     10.085514      1.483907
    83      3.550506     11.379785      1.737688
    84      1.198776     10.641962      0.003241
    85     -4.439883     -2.548948     -7.777157
    86     -3.446891     -4.190933     -7.913789
    87     -4.127067     -2.226494     -5.934808
    88      5.340077      5.279099      7.346074
    89      4.222748      4.084373      6.466751
    90      4.218834      6.150168      8.650575
    91      3.403790     -5.760318     -7.769824
    92      4.126642     -7.069887     -8.780745
    93      3.512096     -6.450607     -6.029564
    94      1.475370     -1.067463     10.302562
    95      1.849426     -2.767835      9.746805
    96      3.099425     -0.527145     11.331720
    97      1.765000      7.760019     10.444068
    98      0.871341      7.969635      8.818252
    99      0.429009      6.685144     11.377735
   100     -8.951115      9.296188      5.662375
   101    -10.059779      9.775737      6.958663
   102     -8.538544      7.433079      5.597386
   103     -9.255247     -4.645827      4.958090
   104     -8.112375     -5.658488      3.904444
   105     -9.474325     -2.970239      4.260270
   106     -8.239642    -10.775842     11.726977
   107     -9.913670    -11.540187     11.173223
   108     -7.269425    -12.323596     12.057526
   109      8.428231     -8.940542      8.696166
   110      7.106801     -8.961333     10.040767
   111      7.478909     -8.543021      7.146009
   112     10.724183      9.969154      9.105980
   113     10.050416      9.074416     10.483320
   114      9.458718     11.437193      8.832068
   115     -5.452109     -5.707976      0.947845
   116     -4.057085     -6.762973      1.491905
   117     -6.694187     -6.839771     -0.071897
   118      8.826794      0.425481      9.127453
   119     10.285876      0.841004     10.291558
   120      7.742542      1.965391      9.204661
   121      6.869642     -2.151247      4.919201
   122      5.281257     -1.120201      4.706711
   123      7.484258     -1.697985      6.702392
   124     -1.169933      8.090779      5.297653
   125     -0.055851      8.763148      4.111054
   126     -2.653189      9.204217      5.549358
   127      7.019252     -0.392496     -1.612694
   128      7.406976      1.120715     -0.707415
   129      6.897954     -0.023081     -3.453597
   130     -8.076002      4.613192      5.351848
   131     -6.386978      4.270422      4.636719
   132     -7.835241      3.242880      6.710108
   133    -10.615351      2.586623    -10.531523
   134    -10.806588      1.016635     -9.588438
   135     -9.310276      2.092923    -11.908565
   136      6.676635      2.285973     -6.563480
   137      6.184021      1.132169     -7.998940
   138      8.560321      1.703221     -6.455868
   139     -3.144912      0.638238    -11.397318
   140     -1.521194     -0.103279    -11.857336
   141     -3.553445     -0.350231     -9.785552
   142      1.531529     -5.931654      8.923304
   143      2.415892     -6.511337      7.455056
   144     -0.240093     -6.269454      8.509407
   145     -1.753326     -7.001987     -8.568149
   146     -1.722364     -8.378278     -7.274933
   147      0.002598     -6.391681     -8.449916
   148     -9.388116     -3.189068     -9.125263
   149     -9.458501     -3.916881    -10.845879
   150     -7.571210     -2.879166     -8.655713
   151      2.922747      9.470482     -8.278743
   152      2.949747      8.638276     -9.946392
   153      4.202405      8.474499     -7.358127
   154      8.149138      8.470450      4.575242
   155      6.932644      7.295887      5.386591
   156      9.574471      8.278898      5.622823
   157      2.756515     -7.988889     -2.323216
   158      3.308905     -6.567590     -1.100491
   159      4.402211     -8.850141     -2.192519
   160      3.036673     -7.249192      4.169393
   161      4.461702     -8.329021      3.810432
   162      1.548769     -7.685359      3.071929
   163      9.286078     -6.128544      2.891066
   164      8.071479     -5.020740      3.823574
   165     11.005568     -5.590976      3.440791
   166    -10.108723      6.941775     -1.956486
   167     -9.690774      7.629495     -3.685208
   168    -10.197170      8.389326     -0.761800
   169     -4.492125    -11.621553      6.024534
   170     -6.169026    -12.612242      6.110446
   171     -4.434569    -10.887740      7.743527
   172    -11.032992     10.832061      0.958864
   173    -10.132651     12.282797      0.283591
   174    -10.199579     10.433667      2.632910
   175     -2.346312     11.033536     -1.310563
   176     -3.056384      9.361815     -1.433830
   177     -1.844868     11.392945     -3.115089
 
  MM charges 
  ---------- 
     1     -0.674440
     2      0.337220
     3      0.337220
     4     -0.674440
     5      0.337220
     6      0.337220
     7     -0.674440
     8      0.337220
     9      0.337220
    10     -0.674440
    11      0.337220
    12      0.337220
    13     -0.674440
    14      0.337220
    15      0.337220
    16     -0.674440
    17      0.337220
    18      0.337220
    19     -0.674440
    20      0.337220
    21      0.337220
    22     -0.674440
    23      0.337220
    24      0.337220
    25     -0.674440
    26      0.337220
    27      0.337220
    28     -0.674440
    29      0.337220
    30      0.337220
    31     -0.674440
    32      0.337220
    33      0.337220
    34     -0.674440
    35      0.337220
    36      0.337220
    37     -0.674440
    38      0.337220
    39      0.337220
    40     -0.674440
    41      0.337220
    42      0.337220
    43     -0.674440
    44      0.337220
    45      0.337220
    46     -0.674440
    47      0.337220
    48      0.337220
    49     -0.674440
    50      0.337220
    51      0.337220
    52     -0.674440
    53      0.337220
    54      0.337220
    55     -0.674440
    56      0.337220
    57      0.337220
    58     -0.674440
    59      0.337220
    60      0.337220
    61     -0.674440
    62      0.337220
    63      0.337220
    64     -0.674440
    65      0.337220
    66      0.337220
    67     -0.674440
    68      0.337220
    69      0.337220
    70     -0.674440
    71      0.337220
    72      0.337220
    73     -0.674440
    74      0.337220
    75      0.337220
    76     -0.674440
    77      0.337220
    78      0.337220
    79     -0.674440
    80      0.337220
    81      0.337220
    82     -0.674440
    83      0.337220
    84      0.337220
    85     -0.674440
    86      0.337220
    87      0.337220
    88     -0.674440
    89      0.337220
    90      0.337220
    91     -0.674440
    92      0.337220
    93      0.337220
    94     -0.674440
    95      0.337220
    96      0.337220
    97     -0.674440
    98      0.337220
    99      0.337220
   100     -0.674440
   101      0.337220
   102      0.337220
   103     -0.674440
   104      0.337220
   105      0.337220
   106     -0.674440
   107      0.337220
   108      0.337220
   109     -0.674440
   110      0.337220
   111      0.337220
   112     -0.674440
   113      0.337220
   114      0.337220
   115     -0.674440
   116      0.337220
   117      0.337220
   118     -0.674440
   119      0.337220
   120      0.337220
   121     -0.674440
   122      0.337220
   123      0.337220
   124     -0.674440
   125      0.337220
   126      0.337220
   127     -0.674440
   128      0.337220
   129      0.337220
   130     -0.674440
   131      0.337220
   132      0.337220
   133     -0.674440
   134      0.337220
   135      0.337220
   136     -0.674440
   137      0.337220
   138      0.337220
   139     -0.674440
   140      0.337220
   141      0.337220
   142     -0.674440
   143      0.337220
   144      0.337220
   145     -0.674440
   146      0.337220
   147      0.337220
   148     -0.674440
   149      0.337220
   150      0.337220
   151     -0.674440
   152      0.337220
   153      0.337220
   154     -0.674440
   155      0.337220
   156      0.337220
   157     -0.674440
   158      0.337220
   159      0.337220
   160     -0.674440
   161      0.337220
   162      0.337220
   163     -0.674440
   164      0.337220
   165      0.337220
   166     -0.674440
   167      0.337220
   168      0.337220
   169     -0.674440
   170      0.337220
   171      0.337220
   172     -0.674440
   173      0.337220
   174      0.337220
   175     -0.674440
   176      0.337220
   177      0.337220
 
  MM isotropic polarizabilities in au 
  ----------------------------------- 
     1      5.739350
     2      2.308390
     3      2.308390
     4      5.739350
     5      2.308390
     6      2.308390
     7      5.739350
     8      2.308390
     9      2.308390
    10      5.739350
    11      2.308390
    12      2.308390
    13      5.739350
    14      2.308390
    15      2.308390
    16      5.739350
    17      2.308390
    18      2.308390
    19      5.739350
    20      2.308390
    21      2.308390
    22      5.739350
    23      2.308390
    24      2.308390
    25      5.739350
    26      2.308390
    27      2.308390
    28      5.739350
    29      2.308390
    30      2.308390
    31      5.739350
    32      2.308390
    33      2.308390
    34      5.739350
    35      2.308390
    36      2.308390
    37      5.739350
    38      2.308390
    39      2.308390
    40      5.739350
    41      2.308390
    42      2.308390
    43      5.739350
    44      2.308390
    45      2.308390
    46      5.739350
    47      2.308390
    48      2.308390
    49      5.739350
    50      2.308390
    51      2.308390
    52      5.739350
    53      2.308390
    54      2.308390
    55      5.739350
    56      2.308390
    57      2.308390
    58      5.739350
    59      2.308390
    60      2.308390
    61      5.739350
    62      2.308390
    63      2.308390
    64      5.739350
    65      2.308390
    66      2.308390
    67      5.739350
    68      2.308390
    69      2.308390
    70      5.739350
    71      2.308390
    72      2.308390
    73      5.739350
    74      2.308390
    75      2.308390
    76      5.739350
    77      2.308390
    78      2.308390
    79      5.739350
    80      2.308390
    81      2.308390
    82      5.739350
    83      2.308390
    84      2.308390
    85      5.739350
    86      2.308390
    87      2.308390
    88      5.739350
    89      2.308390
    90      2.308390
    91      5.739350
    92      2.308390
    93      2.308390
    94      5.739350
    95      2.308390
    96      2.308390
    97      5.739350
    98      2.308390
    99      2.308390
   100      5.739350
   101      2.308390
   102      2.308390
   103      5.739350
   104      2.308390
   105      2.308390
   106      5.739350
   107      2.308390
   108      2.308390
   109      5.739350
   110      2.308390
   111      2.308390
   112      5.739350
   113      2.308390
   114      2.308390
   115      5.739350
   116      2.308390
   117      2.308390
   118      5.739350
   119      2.308390
   120      2.308390
   121      5.739350
   122      2.308390
   123      2.308390
   124      5.739350
   125      2.308390
   126      2.308390
   127      5.739350
   128      2.308390
   129      2.308390
   130      5.739350
   131      2.308390
   132      2.308390
   133      5.739350
   134      2.308390
   135      2.308390
   136      5.739350
   137      2.308390
   138      2.308390
   139      5.739350
   140      2.308390
   141      2.308390
   142      5.739350
   143      2.308390
   144      2.308390
   145      5.739350
   146      2.308390
   147      2.308390
   148      5.739350
   149      2.308390
   150      2.308390
   151      5.739350
   152      2.308390
   153      2.308390
   154      5.739350
   155      2.308390
   156      2.308390
   157      5.739350
   158      2.308390
   159      2.308390
   160      5.739350
   161      2.308390
   162      2.308390
   163      5.739350
   164      2.308390
   165      2.308390
   166      5.739350
   167      2.308390
   168      2.308390
   169      5.739350
   170      2.308390
   171      2.308390
   172      5.739350
   173      2.308390
   174      2.308390
   175      5.739350
   176      2.308390
   177      2.308390


     ************************************************************************
     ************************** Output from HERINT **************************
     ************************************************************************



                      Nuclear contribution to dipole moments
                      --------------------------------------

                 au               Debye          C m (/(10**-30)

      x    -12.06082172       -30.65554909      -102.25590494
      y     43.80070518       111.33028067       371.35784341
      z      8.36346863        21.25781550        70.90843993



 Threshold for neglecting two-electron integrals:  1.00D-12
 HERMIT - Number of two-electron integrals written:    37180009 ( 41.6% )
 HERMIT - Megabytes written:                            425.730

  Time used in TWOINT     is       7.19 seconds
  Total CPU  time used in HERMIT:   7.37 seconds
  Total wall time used in HERMIT:  26.33 seconds


                        .----------------------------------.
                        | End of Integral Section (HERMIT) |
                        `----------------------------------'



                   .--------------------------------------------.
                   | Starting in Wave Function Section (SIRIUS) |
                   `--------------------------------------------'

NCCEXCI for singlet:    1
 CCSD_INPUT: core-val requested
 Requested number of virtual orbs per sym
                     1
 Indices of requested virtual orbs
                     1
 CCSD_INPUT: core-val requested
 Requested number of core orbs per sym
                     1
 Indices of requested core orbs
                     1

 *** Output from Huckel module :

     Using EWMO model:          T
     Using EHT  model:          F
     Number of Huckel orbitals each symmetry:   37

 EWMO - Energy Weighted Maximum Overlap - is a Huckel type method,
        which normally is better than Extended Huckel Theory.
 Reference: Linderberg and Ohrn, Propagators in Quantum Chemistry (Wiley, 1973)

 Huckel EWMO eigenvalues for symmetry :  1
          -20.684901     -20.684524     -20.684220     -20.683714     -15.675660
           -1.794021      -1.623396      -1.580698      -1.571362      -1.487663
           -0.808503      -0.807666      -0.777020      -0.770042      -0.762755
           -0.759066      -0.739136      -0.691476      -0.675172      -0.666694
           -0.654125      -0.614834      -0.597132      -0.579545      -0.547422
           -0.269540      -0.254827      -0.244923      -0.230270      -0.198442
           -0.185547      -0.181964      -0.179284      -0.169604      -0.151544
           -0.146699      -0.142408

 **********************************************************************
 *SIRIUS* a direct, restricted step, second order MCSCF program       *
 **********************************************************************

 
     Date and time (Linux)  : Fri Dec  7 23:52:25 2018
     Host name              : n-62-24-5                               

 Title lines from ".mol" input file:
                                                                             
                                                                             

 Print level on unit LUPRI =   2 is   0
 Print level on unit LUW4  =   2 is  11

@    (Integral direct) CC calculation.

@    This is a combination run starting with
@              a restricted, closed shell Hartree-Fock calculation


 Initial molecular orbitals are obtained according to
 ".MOSTART EWMO  " input option

@    QM part is embedded in an environment :

@         Model: QMMM

     Wave function specification
     ============================

     For the specification of the Coupled Cluster: see later.

@    Wave function type        --- CC ---
@    Number of closed shell electrons          50
@    Number of electrons in active shells       0
@    Total charge of the molecule               1

@    Spin multiplicity and 2 M_S                1         0
@    Total number of symmetries                 1 (point group: C1 )
@    Reference state symmetry                   1 (irrep name : A  )

     Orbital specifications
     ======================
@    Abelian symmetry species          All |    1
@                                          |  A  
                                       --- |  ---
@    Occupied SCF orbitals              25 |   25
@    Secondary orbitals                138 |  138
@    Total number of orbitals          163 |  163
@    Number of basis functions         163 |  163

     Optimization information
     ========================
@    Number of configurations                 1
@    Number of orbital rotations           3450
     ------------------------------------------
@    Total number of variables             3451

     Maximum number of Fock   iterations      0
     Maximum number of DIIS   iterations     60
     Maximum number of QC-SCF iterations     60
     Threshold for SCF convergence     1.00D-07


 Changes of defaults for CC:
 ---------------------------


 -Implicit frozen core calculation
 -Excitation energies calculated
 -One-photon absorption strengths will be calculated
 -Oscillator strengths calculated
  
* Read MO coefficients from SIRIUS.RST with label "NEWORB  " and header info:  7Dec18  REORTHO 


 ***********************************************
 ***** DIIS acceleration of SCF iterations *****
 ***********************************************

 C1-DIIS algorithm; max error vectors =    8
 -----------------------------------------------------------------------------

 *** DIIS iteration number    1
 RDSUPM called. NFMAT, ISYMDM(1:NFMAT)                     1
                     1

Calculating AOSUPINT
     (Precalculated two-electron integrals are transformed to P-supermatrix elements.
      Threshold for discarding integrals :  1.00D-12 )
  CPU  time used in FORMSUP    is   2.97 seconds
  WALL time used in FORMSUP    is  1 minute  21 seconds

 ITDIIS, energy, error norm, change in energy, scr.thr., difden:
@ DIIS iter.   1    -360.229092671        4.01065D+00   -3.60D+02  -20    F

 (DIIS_RED) Control Parameters C2DIIS =         F NEVC =    1


 (DIIS_RED) B matrix:

               Column   1
       1      16.08528690
    ==== End of matrix output ====

 DIIS C vector; C2DIIS = F, LAMBDA = -1.61D+01
    1.000000
* Read MO coefficients from SIRIUS.RST with label "NEWORB  " and header info:  7Dec18  DIIS   1
      Virial theorem: -V/T =      2.003425
@      MULPOP N       0.18; H       0.15; H       0.19; H       0.16; H       0.15; O      -0.60; O      -0.60; O      -0.63; O      -0.58; H       0.32; 
@             H       0.32; H       0.31; H       0.32; H       0.34; H       0.33; H       0.32; H       0.32; 
   1  Level shift: doubly occupied orbital energies shifted by -2.00D-01

 DIIS Fock eigenvalues in symmetry 1
      -20.83905      -20.81217      -20.80428      -20.75995      -16.51735
       -1.75298       -1.65207       -1.64120       -1.63183       -1.56376
       -1.23017       -1.22340       -1.21544       -1.03045       -1.00738
       -1.00113       -0.93924       -0.90003       -0.89101       -0.88109
       -0.87104       -0.84162       -0.83655       -0.83350       -0.79740
       -0.01628       -0.00005        0.04391        0.05940        0.07915
        0.10278        0.12393        0.13722        0.14506        0.17546
        0.18581        0.19641        0.22609        0.24946        0.28866
        0.31892        0.42088        0.44541        0.45559        0.47451
        0.47768        0.48890        0.50742        0.52140        0.54988
        0.64457        0.65522        0.67007        0.82972        0.84123
        0.88637        0.90676        0.91136        0.94680        0.96432
        0.97127        0.99947        1.02284        1.03184        1.03302
        1.04642        1.07957        1.09378        1.23521        1.27107
        1.29002        1.31467        1.31893        1.32623        1.36874
        1.38206        1.40664        1.41356        1.41925        1.46958
        1.49938        1.53222        1.54216        1.56310        1.60480
        1.64004        1.67094        1.73490        1.75354        1.76534
        1.78679        1.83292        1.86809        1.92861        2.03058
        2.05229        2.08703        2.11025        2.12077        2.12469
        2.16242        2.19117        2.19887        2.22327        2.30690
        2.33981        2.45202        2.47187        2.49140        2.52833
        2.53951        2.58244        2.61304        2.64512        2.67338
        2.69779        2.70581        2.72981        2.75150        2.96440
        2.97473        3.00502        3.06387        3.32404        3.33070
        3.34697        3.36351        3.37283        3.37843        3.38359
        3.42726        3.49976        3.50194        3.51971        3.59436
        3.83213        3.87062        3.88044        3.88203        4.05712
        4.07589        4.10861        4.17136        4.65520        4.72373
        4.74959        5.23588        5.26179        5.28722        5.31860
        5.65550        5.68281        5.71163        5.72777        5.87713
        5.89521        5.97260        6.02865       36.30540       51.43918
       51.44531       51.46462       51.48853
 Time used in FCKEIG, thr_jaco:   4.30D-02  1.97D-01  1.71D-04
 CPU and wall times used in FCKEIG, THR_FCKEIG:   4.30D-02  1.97D-01  4.01D-02
 -----------------------------------------------------------------------------

 *** DIIS iteration number    2
 RDSUPM called. NFMAT, ISYMDM(1:NFMAT)                     1
                     1

 ITDIIS, energy, error norm, change in energy, scr.thr., difden:
@ DIIS iter.   2    -361.129829826        1.18492D+00   -9.01D-01  -20    F

 (DIIS_RED) Control Parameters C2DIIS =         F NEVC =    2


 (DIIS_RED) B matrix:

               Column   1     Column   2
       1      16.08528690
       2       0.45815361     1.40404295
    ==== End of matrix output ====

 DIIS C vector; C2DIIS = F, LAMBDA = -1.35D+00
    0.057074    0.942926
* Read MO coefficients from SIRIUS.RST with label "NEWORB  " and header info:  7Dec18  DIIS   2
      Virial theorem: -V/T =      2.002943
@      MULPOP N      -0.52; H       0.32; H       0.34; H       0.34; H       0.32; O      -0.61; O      -0.54; O      -0.57; O      -0.61; H       0.34; 
@             H       0.32; H       0.30; H       0.27; H       0.30; H       0.30; H       0.32; H       0.36; 
   2  Level shift: doubly occupied orbital energies shifted by -1.00D-01

 DIIS Fock eigenvalues in symmetry 1
      -20.78544      -20.78217      -20.75881      -20.74601      -15.65085
       -1.54351       -1.53035       -1.52690       -1.47689       -1.39627
       -0.91007       -0.89480       -0.88549       -0.87838       -0.87452
       -0.86444       -0.83190       -0.79148       -0.78238       -0.77651
       -0.74318       -0.72745       -0.72224       -0.70585       -0.68903
       -0.00005        0.04906        0.09286        0.10170        0.12628
        0.16158        0.17372        0.18553        0.20056        0.21823
        0.23377        0.24957        0.25415        0.33789        0.38411
        0.40304        0.45725        0.48499        0.49042        0.50444
        0.52127        0.53077        0.54653        0.59240        0.62121
        0.77408        0.80051        0.81884        0.87098        0.91318
        0.93378        0.94818        0.96713        0.98518        1.00036
        1.00810        1.03390        1.04995        1.05776        1.06851
        1.15355        1.16638        1.18361        1.26691        1.31811
        1.34492        1.36681        1.36902        1.37276        1.42101
        1.43835        1.45592        1.47003        1.48366        1.51022
        1.57180        1.61144        1.61857        1.65074        1.69881
        1.75285        1.76898        1.80156        1.81476        1.83013
        1.88282        1.90826        1.97688        2.03536        2.07660
        2.08405        2.15009        2.16464        2.22066        2.23168
        2.25270        2.25626        2.27947        2.34906        2.37342
        2.45602        2.51678        2.55274        2.59400        2.61347
        2.64024        2.69699        2.70757        2.72498        2.75617
        2.76731        2.78229        2.92118        2.98584        3.12364
        3.22731        3.30639        3.32884        3.33952        3.35027
        3.37564        3.38585        3.40041        3.40420        3.45271
        3.46074        3.50465        3.53421        3.53799        3.62298
        3.84388        3.88170        3.89682        3.90862        4.07567
        4.08388        4.12136        4.19517        5.06641        5.12012
        5.15260        5.23017        5.27652        5.28892        5.29834
        5.63547        5.68255        5.70362        5.73204        5.85918
        5.89637        5.99146        6.05192       37.05398       51.36713
       51.37277       51.40168       51.44936
 Time used in FCKEIG, thr_jaco:   3.20D-02  2.86D-01  5.04D-05
 CPU and wall times used in FCKEIG, THR_FCKEIG:   3.20D-02  2.86D-01  1.18D-02
 -----------------------------------------------------------------------------

 *** DIIS iteration number    3
 RDSUPM called. NFMAT, ISYMDM(1:NFMAT)                     1
                     1

 ITDIIS, energy, error norm, change in energy, scr.thr., difden:
@ DIIS iter.   3    -361.208871996        3.78678D-01   -7.90D-02  -20    F

 (DIIS_RED) Control Parameters C2DIIS =         F NEVC =    3


 (DIIS_RED) B matrix:

               Column   1     Column   2     Column   3
       1      16.08528690
       2       0.45815361     1.40404295
       3       0.84628623    -0.01259931     0.14339715
    ==== End of matrix output ====

 DIIS C vector; C2DIIS = F, LAMBDA = -9.61D-02
   -0.046881    0.092274    0.954607
* Read MO coefficients from SIRIUS.RST with label "NEWORB  " and header info:  7Dec18  DIIS   3
      Virial theorem: -V/T =      2.003665
@      MULPOP N      -0.29; H       0.27; H       0.31; H       0.30; H       0.26; O      -0.70; O      -0.60; O      -0.62; O      -0.68; H       0.38; 
@             H       0.35; H       0.33; H       0.29; H       0.33; H       0.32; H       0.34; H       0.40; 
   3  Level shift: doubly occupied orbital energies shifted by -5.00D-02

 DIIS Fock eigenvalues in symmetry 1
      -20.69142      -20.68729      -20.66630      -20.65232      -15.80597
       -1.47291       -1.46304       -1.46149       -1.40548       -1.39327
       -0.87350       -0.86303       -0.85107       -0.83353       -0.81120
       -0.81007       -0.75864       -0.72281       -0.71264       -0.70964
       -0.66885       -0.65258       -0.64784       -0.63367       -0.60764
       -0.00005        0.05449        0.09861        0.10778        0.13272
        0.16450        0.17722        0.18947        0.20575        0.22253
        0.23824        0.25015        0.25994        0.33927        0.38542
        0.40469        0.46829        0.49528        0.50180        0.51601
        0.53199        0.54072        0.55782        0.59992        0.62168
        0.76831        0.79083        0.80865        0.88718        0.91696
        0.94416        0.96110        0.97749        0.99838        1.01389
        1.02222        1.04861        1.06352        1.07392        1.08474
        1.15383        1.17019        1.18057        1.27858        1.33070
        1.35750        1.37634        1.38127        1.38482        1.43705
        1.45326        1.47126        1.48462        1.49618        1.52442
        1.58295        1.62113        1.62915        1.65773        1.70696
        1.75654        1.77471        1.81211        1.82456        1.84002
        1.88856        1.91573        1.97748        2.03914        2.09370
        2.10165        2.16736        2.17971        2.23389        2.24703
        2.25479        2.27288        2.27802        2.34925        2.39076
        2.46300        2.53020        2.56487        2.60212        2.62238
        2.64908        2.70653        2.71258        2.73714        2.76856
        2.77968        2.79470        2.88832        2.95715        3.11911
        3.20980        3.26040        3.30495        3.36043        3.37179
        3.40319        3.41502        3.42185        3.42944        3.46184
        3.47645        3.53731        3.56184        3.56472        3.64582
        3.86951        3.91248        3.91854        3.93663        4.10895
        4.11460        4.14863        4.21866        4.98822        5.04876
        5.07902        5.25815        5.30558        5.31699        5.33290
        5.67446        5.71672        5.73478        5.75726        5.89935
        5.92898        6.02667        6.07772       36.85508       51.41637
       51.42384       51.44686       51.47944
 Time used in FCKEIG, thr_jaco:   2.70D-02  1.42D-01  1.61D-05
 CPU and wall times used in FCKEIG, THR_FCKEIG:   2.70D-02  1.42D-01  3.79D-03
 -----------------------------------------------------------------------------

 *** DIIS iteration number    4
 RDSUPM called. NFMAT, ISYMDM(1:NFMAT)                     1
                     1

 ITDIIS, energy, error norm, change in energy, scr.thr., difden:
@ DIIS iter.   4    -361.219433867        9.24947D-02   -1.06D-02  -20    F

 (DIIS_RED) Control Parameters C2DIIS =         F NEVC =    4


 (DIIS_RED) B matrix:

               Column   1     Column   2     Column   3     Column   4
       1      16.08528690
       2       0.45815361     1.40404295
       3       0.84628623    -0.01259931     0.14339715
       4       0.05553511     0.07704981     0.00681535     0.00855527
    ==== End of matrix output ====

 DIIS C vector; C2DIIS = F, LAMBDA = -4.75D-03
   -0.000921   -0.055393   -0.017347    1.073662
* Read MO coefficients from SIRIUS.RST with label "NEWORB  " and header info:  7Dec18  DIIS   4
      Virial theorem: -V/T =      2.003720
@      MULPOP N      -0.36; H       0.29; H       0.32; H       0.31; H       0.28; O      -0.71; O      -0.61; O      -0.64; O      -0.70; H       0.39; 
@             H       0.36; H       0.34; H       0.30; H       0.33; H       0.33; H       0.35; H       0.41; 
   4  Level shift: doubly occupied orbital energies shifted by -1.25D-02

 DIIS Fock eigenvalues in symmetry 1
      -20.66802      -20.66669      -20.63775      -20.63271      -15.73967
       -1.44042       -1.43020       -1.42897       -1.37166       -1.34689
       -0.82706       -0.81581       -0.80586       -0.79706       -0.77704
       -0.77626       -0.72541       -0.68838       -0.67722       -0.67351
       -0.63462       -0.61586       -0.61172       -0.59543       -0.57166
       -0.00005        0.05457        0.09836        0.10694        0.13208
        0.16608        0.17755        0.19020        0.20589        0.22354
        0.23926        0.25342        0.26108        0.34432        0.39027
        0.40904        0.46708        0.49511        0.50155        0.51517
        0.52960        0.53952        0.55637        0.59956        0.62557
        0.77362        0.79700        0.81505        0.88702        0.91986
        0.94524        0.96212        0.97893        0.99717        1.01404
        1.02161        1.04702        1.06199        1.07305        1.08295
        1.15908        1.17268        1.18231        1.27808        1.33144
        1.35668        1.37593        1.38036        1.38455        1.43499
        1.45044        1.46927        1.48218        1.49613        1.52313
        1.58252        1.62279        1.62921        1.65980        1.70966
        1.76035        1.77789        1.81230        1.82376        1.84037
        1.89072        1.91672        1.98203        2.04335        2.08995
        2.09872        2.16463        2.17679        2.23398        2.24607
        2.25867        2.26853        2.28386        2.35460        2.38706
        2.46748        2.52738        2.56395        2.60620        2.62458
        2.65370        2.70847        2.71531        2.73774        2.76625
        2.77728        2.79332        2.89901        2.96700        3.12614
        3.21721        3.27297        3.31588        3.35620        3.36788
        3.39904        3.41097        3.41975        3.42613        3.46282
        3.47449        3.53294        3.55800        3.56080        3.64369
        3.86516        3.90790        3.91598        3.93218        4.10445
        4.11023        4.14457        4.21642        5.00416        5.06382
        5.09455        5.25143        5.29857        5.31223        5.32511
        5.66629        5.70909        5.72815        5.75311        5.89031
        5.92122        6.01820        6.07272       36.88360       51.40235
       51.40660       51.43038       51.47074
 Time used in FCKEIG, thr_jaco:   2.50D-02  2.42D-01  3.94D-06
 CPU and wall times used in FCKEIG, THR_FCKEIG:   2.50D-02  2.42D-01  9.25D-04
 -----------------------------------------------------------------------------

 *** DIIS iteration number    5
 RDSUPM called. NFMAT, ISYMDM(1:NFMAT)                     1
                     1

 ITDIIS, energy, error norm, change in energy, scr.thr., difden:
@ DIIS iter.   5    -361.220458717        3.13667D-02   -1.02D-03  -20    F

 (DIIS_RED) Control Parameters C2DIIS =         F NEVC =    5


 (DIIS_RED) B matrix:

               Column   1     Column   2     Column   3     Column   4     Column   5
       1      16.08528690
       2       0.45815361     1.40404295
       3       0.84628623    -0.01259931     0.14339715
       4       0.05553511     0.07704981     0.00681535     0.00855527
       5       0.02431105     0.00741800     0.00608003     0.00077547     0.00098387
    ==== End of matrix output ====

 DIIS C vector; C2DIIS = F, LAMBDA = -6.49D-04
    0.001099   -0.012893   -0.048782    0.140253    0.920323
* Read MO coefficients from SIRIUS.RST with label "NEWORB  " and header info:  7Dec18  DIIS   5
      Virial theorem: -V/T =      2.003325
@      MULPOP N      -0.35; H       0.28; H       0.32; H       0.31; H       0.27; O      -0.73; O      -0.62; O      -0.65; O      -0.71; H       0.40; 
@             H       0.37; H       0.35; H       0.30; H       0.34; H       0.34; H       0.36; H       0.41; 

 DIIS Fock eigenvalues in symmetry 1
      -20.64928      -20.64480      -20.62109      -20.61079      -15.72282
       -1.42459       -1.41577       -1.41472       -1.35583       -1.33249
       -0.81274       -0.80150       -0.79134       -0.78250       -0.76319
       -0.76248       -0.71051       -0.67426       -0.66231       -0.65947
       -0.61940       -0.59985       -0.59606       -0.58050       -0.55498
       -0.00005        0.05497        0.09880        0.10724        0.13246
        0.16669        0.17798        0.19073        0.20634        0.22414
        0.23977        0.25429        0.26187        0.34543        0.39135
        0.41020        0.46767        0.49584        0.50244        0.51583
        0.52997        0.54022        0.55701        0.59998        0.62660
        0.77521        0.79868        0.81664        0.88873        0.92189
        0.94669        0.96414        0.98047        0.99843        1.01585
        1.02347        1.04847        1.06296        1.07488        1.08458
        1.16071        1.17415        1.18360        1.27926        1.33322
        1.35758        1.37702        1.38127        1.38595        1.43569
        1.45078        1.46979        1.48246        1.49719        1.52405
        1.58310        1.62365        1.62980        1.66077        1.71059
        1.76145        1.77887        1.81276        1.82401        1.84094
        1.89136        1.91732        1.98310        2.04453        2.09056
        2.09976        2.16582        2.17718        2.23525        2.24740
        2.26001        2.26928        2.28519        2.35579        2.38758
        2.46855        2.52743        2.56426        2.60702        2.62535
        2.65479        2.70912        2.71621        2.73819        2.76615
        2.77717        2.79334        2.90072        2.96869        3.12768
        3.21959        3.27506        3.31799        3.35977        3.37031
        3.40149        3.41420        3.42168        3.42948        3.46580
        3.47610        3.53647        3.56095        3.56345        3.64520
        3.86742        3.91136        3.91757        3.93555        4.10821
        4.11393        4.14697        4.21811        5.00672        5.06648
        5.09711        5.25522        5.30400        5.31538        5.33032
        5.67164        5.71422        5.73161        5.75554        5.89540
        5.92445        6.02312        6.07480       36.88787       51.40875
       51.41570       51.43961       51.47486
 Time used in FCKEIG, thr_jaco:   2.50D-02  7.30D-02  1.34D-06
 CPU and wall times used in FCKEIG, THR_FCKEIG:   2.50D-02  7.30D-02  3.14D-04
 -----------------------------------------------------------------------------

 *** DIIS iteration number    6
 RDSUPM called. NFMAT, ISYMDM(1:NFMAT)                     1
                     1

 ITDIIS, energy, error norm, change in energy, scr.thr., difden:
@ DIIS iter.   6    -361.220550991        1.11238D-02   -9.23D-05  -20    F

 (DIIS_RED) Control Parameters C2DIIS =         F NEVC =    6


 (DIIS_RED) B matrix:

               Column   1     Column   2     Column   3     Column   4     Column   5     Column   6
       1      16.08528690
       2       0.45815361     1.40404295
       3       0.84628623    -0.01259931     0.14339715
       4       0.05553511     0.07704981     0.00681535     0.00855527
       5       0.02431105     0.00741800     0.00608003     0.00077547     0.00098387
       6      -0.00443639    -0.00014802     0.00082413     0.00059403     0.00001943     0.00012374
    ==== End of matrix output ====

 DIIS C vector; C2DIIS = F, LAMBDA = -3.77D-05
    0.000822    0.006758   -0.007789   -0.136698    0.102519    1.034389
* Read MO coefficients from SIRIUS.RST with label "NEWORB  " and header info:  7Dec18  DIIS   6
      Virial theorem: -V/T =      2.003589
@      MULPOP N      -0.34; H       0.28; H       0.32; H       0.31; H       0.27; O      -0.73; O      -0.62; O      -0.65; O      -0.71; H       0.40; 
@             H       0.37; H       0.35; H       0.30; H       0.34; H       0.34; H       0.36; H       0.41; 

 DIIS Fock eigenvalues in symmetry 1
      -20.65091      -20.64725      -20.62200      -20.61348      -15.72493
       -1.42527       -1.41608       -1.41500       -1.35658       -1.33305
       -0.81333       -0.80198       -0.79193       -0.78310       -0.76356
       -0.76288       -0.71129       -0.67504       -0.66305       -0.66006
       -0.62041       -0.60020       -0.59634       -0.58041       -0.55543
       -0.00005        0.05486        0.09865        0.10710        0.13231
        0.16663        0.17782        0.19060        0.20619        0.22402
        0.23967        0.25414        0.26172        0.34532        0.39121
        0.41004        0.46744        0.49563        0.50219        0.51562
        0.52968        0.53994        0.55669        0.59982        0.62645
        0.77490        0.79831        0.81631        0.88854        0.92160
        0.94648        0.96385        0.98015        0.99813        1.01553
        1.02298        1.04809        1.06268        1.07448        1.08416
        1.16047        1.17388        1.18327        1.27907        1.33286
        1.35729        1.37673        1.38102        1.38558        1.43532
        1.45047        1.46937        1.48220        1.49685        1.52366
        1.58286        1.62338        1.62958        1.66048        1.71041
        1.76121        1.77865        1.81245        1.82374        1.84069
        1.89115        1.91712        1.98290        2.04435        2.09013
        2.09919        2.16525        2.17684        2.23476        2.24694
        2.25974        2.26888        2.28498        2.35556        2.38727
        2.46837        2.52711        2.56402        2.60681        2.62513
        2.65475        2.70882        2.71594        2.73794        2.76580
        2.77686        2.79301        2.90016        2.96814        3.12747
        3.21887        3.27434        3.31728        3.35888        3.36971
        3.40086        3.41334        3.42126        3.42860        3.46505
        3.47573        3.53554        3.56023        3.56275        3.64486
        3.86684        3.91040        3.91722        3.93464        4.10723
        4.11299        4.14636        4.21774        5.00572        5.06548
        5.09608        5.25435        5.30269        5.31479        5.32903
        5.67019        5.71289        5.73071        5.75498        5.89388
        5.92351        6.02176        6.07424       36.88579       51.40708
       51.41309       51.43719       51.47395
 Time used in FCKEIG, thr_jaco:   2.30D-02  1.09D-01  4.73D-07
 CPU and wall times used in FCKEIG, THR_FCKEIG:   2.30D-02  1.09D-01  1.11D-04
 -----------------------------------------------------------------------------

 *** DIIS iteration number    7
 RDSUPM called. NFMAT, ISYMDM(1:NFMAT)                     1
                     1

 ITDIIS, energy, error norm, change in energy, scr.thr., difden:
@ DIIS iter.   7    -361.220565011        2.36726D-03   -1.40D-05  -20    F

 (DIIS_RED) Control Parameters C2DIIS =         F NEVC =    7


 (DIIS_RED) B matrix:

               Column   1     Column   2     Column   3     Column   4     Column   5     Column   6
       1      16.08528690
       2       0.45815361     1.40404295
       3       0.84628623    -0.01259931     0.14339715
       4       0.05553511     0.07704981     0.00681535     0.00855527
       5       0.02431105     0.00741800     0.00608003     0.00077547     0.00098387
       6      -0.00443639    -0.00014802     0.00082413     0.00059403     0.00001943     0.00012374
       7       0.00016703     0.00021739    -0.00000803     0.00000562     0.00005126     0.00000159

               Column   7
       7       0.00000560
    ==== End of matrix output ====

 DIIS C vector; C2DIIS = F, LAMBDA = -1.45D-06
   -0.000237   -0.000803    0.005277    0.022601   -0.097403   -0.141661    1.212226
* Read MO coefficients from SIRIUS.RST with label "NEWORB  " and header info:  7Dec18  DIIS   7
      Virial theorem: -V/T =      2.003531
@      MULPOP N      -0.34; H       0.28; H       0.32; H       0.31; H       0.27; O      -0.73; O      -0.62; O      -0.65; O      -0.71; H       0.40; 
@             H       0.37; H       0.35; H       0.30; H       0.34; H       0.34; H       0.36; H       0.42; 

 DIIS Fock eigenvalues in symmetry 1
      -20.65074      -20.64701      -20.62202      -20.61293      -15.72449
       -1.42513       -1.41599       -1.41493       -1.35633       -1.33284
       -0.81316       -0.80181       -0.79179       -0.78298       -0.76351
       -0.76282       -0.71112       -0.67506       -0.66304       -0.66008
       -0.62032       -0.60004       -0.59619       -0.58031       -0.55513
       -0.00005        0.05491        0.09869        0.10713        0.13234
        0.16668        0.17786        0.19065        0.20623        0.22407
        0.23972        0.25421        0.26178        0.34543        0.39132
        0.41015        0.46749        0.49569        0.50225        0.51567
        0.52969        0.53999        0.55673        0.59985        0.62656
        0.77503        0.79847        0.81646        0.88863        0.92174
        0.94655        0.96397        0.98024        0.99821        1.01563
        1.02310        1.04816        1.06272        1.07459        1.08424
        1.16061        1.17399        1.18339        1.27915        1.33301
        1.35736        1.37680        1.38107        1.38566        1.43534
        1.45048        1.46938        1.48220        1.49691        1.52371
        1.58291        1.62345        1.62962        1.66056        1.71049
        1.76131        1.77874        1.81249        1.82377        1.84073
        1.89121        1.91719        1.98301        2.04445        2.09016
        2.09926        2.16529        2.17684        2.23484        2.24700
        2.25985        2.26890        2.28510        2.35567        2.38728
        2.46847        2.52712        2.56404        2.60689        2.62521
        2.65484        2.70887        2.71602        2.73797        2.76579
        2.77686        2.79301        2.90036        2.96833        3.12762
        3.21906        3.27457        3.31750        3.35911        3.36982
        3.40097        3.41354        3.42132        3.42874        3.46520
        3.47578        3.53579        3.56035        3.56287        3.64491
        3.86692        3.91063        3.91725        3.93476        4.10748
        4.11314        4.14647        4.21778        5.00600        5.06575
        5.09636        5.25449        5.30291        5.31486        5.32932
        5.67050        5.71306        5.73084        5.75501        5.89420
        5.92363        6.02191        6.07426       36.88622       51.40727
       51.41361       51.43744       51.47394
 Time used in FCKEIG, thr_jaco:   2.40D-02  1.75D-01  1.01D-07
 CPU and wall times used in FCKEIG, THR_FCKEIG:   2.40D-02  1.75D-01  2.37D-05
 -----------------------------------------------------------------------------

 *** DIIS iteration number    8
 RDSUPM called. NFMAT, ISYMDM(1:NFMAT)                     1
                     1

 ITDIIS, energy, error norm, change in energy, scr.thr., difden:
@ DIIS iter.   8    -361.220565631        4.55579D-04   -6.20D-07  -20    F

 (DIIS_RED) Control Parameters C2DIIS =         F NEVC =    8


 (DIIS_RED) B matrix:

               Column   1     Column   2     Column   3     Column   4     Column   5     Column   6
       1      16.08528690
       2       0.45815361     1.40404295
       3       0.84628623    -0.01259931     0.14339715
       4       0.05553511     0.07704981     0.00681535     0.00855527
       5       0.02431105     0.00741800     0.00608003     0.00077547     0.00098387
       6      -0.00443639    -0.00014802     0.00082413     0.00059403     0.00001943     0.00012374
       7       0.00016703     0.00021739    -0.00000803     0.00000562     0.00005126     0.00000159
       8       0.00015339    -0.00004805     0.00000865     0.00000156     0.00000055     0.00000174

               Column   7     Column   8
       7       0.00000560
       8       0.00000036     0.00000021
    ==== End of matrix output ====

 DIIS C vector; C2DIIS = F, LAMBDA = -1.62D-07
   -0.000037   -0.000147    0.000221    0.003696   -0.001370   -0.033736   -0.012107    1.043481
* Read MO coefficients from SIRIUS.RST with label "NEWORB  " and header info:  7Dec18  DIIS   8
      Virial theorem: -V/T =      2.003546
@      MULPOP N      -0.34; H       0.28; H       0.32; H       0.31; H       0.27; O      -0.73; O      -0.62; O      -0.65; O      -0.71; H       0.40; 
@             H       0.37; H       0.35; H       0.30; H       0.34; H       0.34; H       0.36; H       0.42; 

 DIIS Fock eigenvalues in symmetry 1
      -20.65070      -20.64692      -20.62191      -20.61310      -15.72451
       -1.42510       -1.41596       -1.41489       -1.35638       -1.33284
       -0.81317       -0.80181       -0.79178       -0.78297       -0.76348
       -0.76279       -0.71116       -0.67506       -0.66303       -0.66006
       -0.62039       -0.60001       -0.59616       -0.58027       -0.55517
       -0.00005        0.05491        0.09869        0.10713        0.13234
        0.16668        0.17786        0.19065        0.20624        0.22407
        0.23972        0.25421        0.26178        0.34543        0.39132
        0.41014        0.46750        0.49570        0.50226        0.51567
        0.52969        0.53999        0.55671        0.59986        0.62656
        0.77503        0.79846        0.81646        0.88863        0.92174
        0.94657        0.96396        0.98024        0.99822        1.01564
        1.02309        1.04816        1.06274        1.07457        1.08424
        1.16061        1.17399        1.18339        1.27916        1.33299
        1.35736        1.37681        1.38108        1.38567        1.43535
        1.45048        1.46937        1.48221        1.49691        1.52370
        1.58291        1.62345        1.62963        1.66056        1.71049
        1.76131        1.77873        1.81248        1.82377        1.84074
        1.89121        1.91719        1.98301        2.04445        2.09017
        2.09923        2.16531        2.17686        2.23482        2.24701
        2.25985        2.26891        2.28510        2.35567        2.38730
        2.46847        2.52712        2.56405        2.60688        2.62520
        2.65484        2.70887        2.71602        2.73797        2.76579
        2.77686        2.79300        2.90035        2.96832        3.12761
        3.21906        3.27456        3.31749        3.35905        3.36983
        3.40098        3.41350        3.42135        3.42876        3.46522
        3.47582        3.53573        3.56037        3.56289        3.64495
        3.86694        3.91057        3.91728        3.93479        4.10742
[...]
 | 1 1 1 1 |  30   1   8   1 |      996        1 |       495511 |    0.079334  |
 | 1 1 1 1 |   6   1   9   1 |     1110        1 |       615496 |   -0.067071  |
 | 1 1 1 1 |  10   1   9   1 |     1114        1 |       619942 |    0.073014  |
 | 1 1 1 1 |  27   1   9   1 |     1131        1 |       639016 |    0.132848  |
 | 1 1 1 1 |   6   1  10   1 |     1248        1 |       778129 |    0.066064  |
 | 1 1 1 1 |  26   1  10   1 |     1268        1 |       803279 |    0.069377  |
 | 1 1 1 1 |  27   1  10   1 |     1269        1 |       804547 |   -0.072535  |
 | 1 1 1 1 |  28   1  10   1 |     1270        1 |       805816 |   -0.082559  |
 +=============================================================================+


          Norm of Printed Amplitude Vector :             0.8500

          Printed all single excitations greater than 0.382075

          Printed all double excitations greater than 0.064504



+======================================================================+
| contributions of excitation levels to right eigenvectors as computed |
| from the (RE|RE) self overlap                                        |
+----------------------------------------------------------------------+
| sym | multi | state |    E / eV  | % singles | % doubles | % triples |
+======================================================================+
|    1|   1   |   1   |  411.84576 |  88.2616  |  11.7384  |   0.0000  |
+======================================================================+





+======================================================================+
| contributions of excitation levels to excited states as computed     |
| from the (LE|RE) overlap                                             |
+----------------------------------------------------------------------+
| sym | multi | state |    E / eV  | % singles | % doubles | % triples |
+======================================================================+
|    1|   1   |   1   |  411.84576 |  79.2441  |  20.7559  |   0.0000  |
+======================================================================+



 --------------------------
 Symmetry class Nr.:     1
 Multiplicity      :     3
 --------------------------

 Length of Excitation vectors in this class is:   8404200
 No Excitation Energies calculated in this symmetry class
     

   *******************************************************************
   *                                                                 *
   *--------   OUTPUT FROM PROPERTY AND SYMMETRY ANALYSIS   ---------*
   *                                                                 *
   *******************************************************************



                         +-------------------------------+
                         ! REQUESTED PROPERTY OPERATORS: !
                         +-------------------------------+

             Index   Oper. Label  Symmetry  Transp.  PDBS  Atom
             --------------------------------------------------
                1     HAM0            1        1      T      0
                2     XDIPLEN         1        1      F      0
                3     YDIPLEN         1        1      F      0
                4     ZDIPLEN         1        1      F      0
             --------------------------------------------------




                         +-------------------------------+
                         ! REQUESTED EXPECTATION VALUES: !
                         +-------------------------------+

                       Index   Oper. Label  Symmetry
                       -----------------------------
                       -----------------------------




                       +------------------------------------+
                       ! REQUESTED EFFECTIVE FOCK MATRICES: !
                       +------------------------------------+

                       Index   Oper. Label  Symmetry
                       -----------------------------
                       -----------------------------




                        +----------------------------------+
                        ! REQUESTED FIRST ORDER M-VECTORS: !
                        +----------------------------------+

               Index   State Symmetry  Frequency
               --------------------------------------------------
                  1             1    1     1.513505D+01
               --------------------------------------------------


      

    *******************************************************************
    *          SOLVING COUPLED CLUSTER RESPONSE EQUATIONS             *
    *******************************************************************



 
 +======================================================================+
 !                     RHS & ETA VECTORS TO COMPUTE:                    !
 +======================================================================+
 | TYPE | # VEC. |  NEEDED FOR:                                         |
 +----------------------------------------------------------------------+
 +======================================================================+



 +======================================================================+
 !                       LINEAR EQUATIONS TO SOLVE:                     !
 +======================================================================+
 | TYPE | # VEC. |  EQUATION:                                           |
 +----------------------------------------------------------------------+
 |  M1  |    1   |  first-order ground - excited state multipliers      |
 +======================================================================+



 +======================================================================+
 !                F MATRIX TRANSFORMATIONS TO COMPUTE:                  !
 +======================================================================+
 | TYPE | # VEC. |  TRANSFORMED:                                        |
 +----------------------------------------------------------------------+
 |  FR  |    1   |  right eigenvectors (RE)                             |
 +======================================================================+





 Testing R1 list: 

 List nr.  Label     Symmetry      Frequency      T1-norm        T2-norm


 Testing L1 list: 

 List nr.  Label     Symmetry      Frequency      T1-norm        T2-norm
  Solvent 1-order response equations converged in                     0 
  solvent iterations
 SONIAPRI                     0
 CCEQ_STR: CVSEPARATION =  T
 CCEQ_STR: IONIZATION =  T
 CCEQ_STR: REMOVE_CORE =  F
 could not find required file CCM1_1___1
 IOPTSV is    33 ... program continues nevertheless.
 Vector nr.  1 of type M1  and symmetry  1 was not found on file.
     M1  start vector nr.  1 of symmetry  1 generated from gradient
 CCEQ_STR: freeze VALENCE OR VIRT
 CCEQ_SOL: CVSEPARA=     T
 CCEQ_SOL: LIONISAT=     T
 CCEQ_SOL: REMOVE_CORE =  F



 ----- COUPLED CLUSTER RESPONSE SOLVER -----

    Iter  #Vectors  time (min)   residual
    --------------------------------------
 CCRED CVS/IONIS sigma_                     1 
 project out valence occupied or virtual
      1       1         1.54     0.21E+01
 CCRED CVS/IONIS sigma_                     2 
 project out valence occupied or virtual
      2       1         1.55     0.38E+00
 CCRED CVS/IONIS sigma_                     3 
 project out valence occupied or virtual
      3       1         1.55     0.50E-01
 CCRED CVS/IONIS sigma_                     4 
 project out valence occupied or virtual
                    -1  vectors with norm le:  1.000000000000000E-035  REMOVED

 CCORT,**WARNING**  number vectors added is zero after check for vector norm , NBADD :    0

 CCORT, number vectors added is zero , NBADD :    0

 CCORT, number vectors added is zero , NBADD :    0

 CCORT, number vectors added is zero , NBADD :    0

 CCORT, number vectors added is zero , NBADD :    0

 *** MICROITERATIONS STOPPED DUE TO LINEAR DEPENDENCE BETWEEN ALL NEW TRIAL VECTORS
                     0  trial vectors converged
  LINEAR DEPENDENCE BETWEEN                     1  NON CONVERGED TRIAL VECTORS
      4       1         1.54     0.54E-02

 ***  CCEQ_SOL -MICROITERATIONS STOPPED  
     LINEAR DEPENDENCE BETWEEN ALL NEW TRIAL VECTORS
    --------------------------------------
    converged in  4 iterations
    threshold:    0.10E-08


         Routine          Time (min)
         ---------------------------
         CC_TRDRV            6.17
         CCRED               0.03
         CCNEX               0.05
         ---------------------------
         Total time          6.24


  Total CPU  time used in CCEQ_SOLV:  6 minutes 15 seconds
  Total wall time used in CCEQ_SOLV: 18 minutes 24 seconds


 xxxxxxxxxxxxxxxxxxxxxxxxxxxxxxxxxxxxx

 
 Solution of CC response equations completed.
 

 *******************************************************************
 *                                                                 *
 *--------  OUTPUT FROM COUPLED CLUSTER LINEAR RESPONSE   ---------*
 *                                                                 *
 *--------      CALCULATION OF SECOND ORDER RESIDUES      ---------*
 *                                                                 *
 *******************************************************************



                  +---------------------------------------------+
                  ! CC_SOPR: Calculation of CCSD       Residues !
                  +---------------------------------------------+

 Doing the Mf*CsiA
 Doing the Mf*CsiA
 Doing the Mf*CsiA


 CCSD  Right transition moments in atomic units:
 -----------------------------------------------

  1      15.135054  <XDIPLEN |f> =      -0.00000002
  1      15.135054  <YDIPLEN |f> =      -0.00000003
  1      15.135054  <ZDIPLEN |f> =      -0.00000002


 CCSD  Left  transition moments in atomic units:
 -----------------------------------------------

  1      15.135054  <f|XDIPLEN > =      -0.00000001
  1      15.135054  <f|YDIPLEN > =      -0.00000001
  1      15.135054  <f|ZDIPLEN > =      -0.00000001


 CCSD  linear response residue property in atomic units:
 -------------------------------------------------------

 RES{<<XDIPLEN ,XDIPLEN >>(15.135054)} =     0.00000000 (   0.00000001)
 RES{<<XDIPLEN ,YDIPLEN >>(15.135054)} =     0.00000000 (   0.00000002)
 RES{<<XDIPLEN ,ZDIPLEN >>(15.135054)} =     0.00000000 (   0.00000001)
 RES{<<YDIPLEN ,XDIPLEN >>(15.135054)} =     0.00000000 (   0.00000002)
 RES{<<YDIPLEN ,YDIPLEN >>(15.135054)} =     0.00000000 (   0.00000002)
 RES{<<YDIPLEN ,ZDIPLEN >>(15.135054)} =     0.00000000 (   0.00000001)
 RES{<<ZDIPLEN ,XDIPLEN >>(15.135054)} =     0.00000000 (   0.00000001)
 RES{<<ZDIPLEN ,YDIPLEN >>(15.135054)} =     0.00000000 (   0.00000001)
 RES{<<ZDIPLEN ,ZDIPLEN >>(15.135054)} =     0.00000000 (   0.00000001)


 CCSD  Transition strength matrix for state nr.  1 of symmetry 1
 CCSD  excitation energy:15.13505351

 Gauge: length

               Column   1     Column   2     Column   3
       1     1.724698D-16   2.468813D-16   1.551318D-16
       2     2.468813D-16   3.533961D-16   2.220628D-16
       3     1.551318D-16   2.220628D-16   1.395367D-16
    ==== End of matrix output ====

 Principal values of diagonalized transition strength matrix:

             a.u.               
 1       0.00000000
 2       0.00000000
 3       0.00000000

 Principal axis of diagonalized transition strength matrix:


               Column   1     Column   2     Column   3
       1       1.00000000     0.00000000     0.00000000
       2       0.00000000     1.00000000     0.00000000
       3       0.00000000     0.00000000     1.00000000
    ==== End of matrix output ====


 CCSD   oscillator strength matrix for state nr.  1 of symmetry 1
 CCSD  excitation energy:15.13505351


               Column   1     Column   2     Column   3
       1     1.740227D-15   2.491041D-15   1.565285D-15
       2     2.491041D-15   3.565779D-15   2.240622D-15
       3     1.565285D-15   2.240622D-15   1.407930D-15
    ==== End of matrix output ====

 Principal values of diagonalized oscillator strength matrix:

             a.u.               
 1       0.00000000
 2       0.00000000
 3       0.00000000

 Principal axis of diagonalized oscillator strength matrix:


               Column   1     Column   2     Column   3
       1       1.00000000     0.00000000     0.00000000
       2       0.00000000     1.00000000     0.00000000
       3       0.00000000     0.00000000     1.00000000
    ==== End of matrix output ====

  Total time for      9 linear response residues:       3.11 seconds.
  

 *******************************************************************************
 *******************************************************************************
 *                                                                             *
 *                                                                             *
 *                   SUMMARY OF COUPLED CLUSTER CALCULATION                    *
 *                                                                             *
 *                                                                             *
 *******************************************************************************
 *******************************************************************************

                                                                                
                                                                                
            Total SCF   energy:                  -361.2205656549                
            Total MP2   energy:                  -362.3281600862                
            Total CCSD  energy:                  -362.3693264684                
                                                                                
                                                                                
            Total SCF   energy:                  -361.2205656549                
            Total RSTAR energy:                  -362.3693264684                
            Total CCSD  energy:                  -362.3694654984                
                                                                                
                                                                                
            Total SCF   energy:                  -361.2205656549                
            Total RSTAR energy:                  -362.3694654984                
            Total CCSD  energy:                  -362.3694658495                
                                                                                
                                                                                
            Total SCF   energy:                  -361.2205656549                
            Total RSTAR energy:                  -362.3694658495                
            Total CCSD  energy:                  -362.3694659213                
                                                                                
                                                                                
            Total SCF   energy:                  -361.2205656549                
            Total RSTAR energy:                  -362.3694659213                
            Total CCSD  energy:                  -362.3694659225                
                                                                                
                                                                                
            Total SCF   energy:                  -361.2205656549                
            Total RSTAR energy:                  -362.3694659225                
            Total CCSD  energy:                  -362.3694659225                
            CCSD Total  energy:                  -362.8224423125                
            CCSD E(QM/MM)     :                    -0.4482262071                
                                                                                
                                                                                
                                                                                
 +=============================================================================+
 |  sym. | Exci.  |        CCSD       Excitation energies            | ||T1||  |
 |(spin, |        +------------------------------------------------------------+
 | spat) |        |     Hartree    |       eV.      |     cm-1       |    %    |
 +=============================================================================+
 | ^1A   |    1   |    15.1350535  |     411.84576  |   3321760.260  |  88.26  |
 +=============================================================================+
                                                                                
                                                                                
     Total energies in Hartree:                                                 
             1 ^1A       -347.2391625909                                        
                                                                                
                                                                                
 +=============================================================================+
 |  sym. | Exci.  |        CCSD       Length   Gauge Oscillator Strength       |
 |(spin, |        +------------------------------------------------------------+
 | spat) |        | Dipole Strength(a.u.) | Oscillator strength  | Direction   |
 +=============================================================================+
 | ^1A   |    1   |        0.0000000      |      0.0000000       |    -        |
 +=============================================================================+

  1 a.u. =        27.21138 eV.  
  1 a.u. =    219474.62934 cm-1.
  

 *******************************************************************************
 *******************************************************************************
 *                                                                             *
 *                                                                             *
 *                      END OF COUPLED CLUSTER CALCULATION                     *
 *                                                                             *
 *                                                                             *
 *******************************************************************************
 *******************************************************************************


 CPU and wall time for CC :    7008.841   17085.708

 
     Date and time (Linux)  : Sat Dec  8 04:47:49 2018
     Host name              : n-62-24-5                               


                      .-------------------------------------.
                      | End of Coupled Cluster Section (CC) |
                      `-------------------------------------'

  Total CPU  time used in DALTON:   1 hour  59 minutes  9 seconds
  Total wall time used in DALTON:   4 hours 55 minutes 58 seconds

 
     Date and time (Linux)  : Sat Dec  8 04:47:51 2018
     Host name              : n-62-24-5                               
  

 +---------------------------------------------------------+ 
 | List of selected calculated molecular properties (a.u.) | 
 +---------------------------------------------------------+ 

  Properties are read from unit number                      4

 CCSD       properties :
 #  1 1 CCSD/MM  Ground state Energy =    -362.8224423125
 #  2 1 E_QM/MM  Ground state Energy =      -0.4482262071
 #  3 1 Sy: 1 Sp: 1 Exc:  1 E_tot:   -347.2391625909 w:     15.1350535144 E_grs:   -362.3742161053
 #  4 1 Exctot   Excited state Energy =    -347.2391625909
 #  5 1 |<O|XDIPLEN |i(15.135054)>| =     0.00000001
 #  7 1 |<O|YDIPLEN |i(15.135054)>| =     0.00000002
 #  9 1 |<O|ZDIPLEN |i(15.135054)>| =     0.00000001

 THE_END   
