

     ************************************************************************
     *************** Dalton - An Electronic Structure Program ***************
     ************************************************************************

    This is output from DALTON release Dalton2017.alpha (2016)
         ( Web site: http://daltonprogram.org )

   ----------------------------------------------------------------------------

    NOTE:
     
    Dalton is an experimental code for the evaluation of molecular
    properties using (MC)SCF, DFT, CI, and CC wave functions.
    The authors accept no responsibility for the performance of
    the code or for the correctness of the results.
     
    The code (in whole or part) is provided under a licence and
    is not to be reproduced for further distribution without
    the written permission of the authors or their representatives.
     
    See the home page "http://daltonprogram.org" for further information.
     
    If results obtained with this code are published,
    the appropriate citations would be both of:
     
       K. Aidas, C. Angeli, K. L. Bak, V. Bakken, R. Bast,
       L. Boman, O. Christiansen, R. Cimiraglia, S. Coriani,
       P. Dahle, E. K. Dalskov, U. Ekstroem,
       T. Enevoldsen, J. J. Eriksen, P. Ettenhuber, B. Fernandez,
       L. Ferrighi, H. Fliegl, L. Frediani, K. Hald, A. Halkier,
       C. Haettig, H. Heiberg, T. Helgaker, A. C. Hennum,
       H. Hettema, E. Hjertenaes, S. Hoest, I.-M. Hoeyvik,
       M. F. Iozzi, B. Jansik, H. J. Aa. Jensen, D. Jonsson,
       P. Joergensen, J. Kauczor, S. Kirpekar,
       T. Kjaergaard, W. Klopper, S. Knecht, R. Kobayashi, H. Koch,
       J. Kongsted, A. Krapp, K. Kristensen, A. Ligabue,
       O. B. Lutnaes, J. I. Melo, K. V. Mikkelsen, R. H. Myhre,
       C. Neiss, C. B. Nielsen, P. Norman, J. Olsen,
       J. M. H. Olsen, A. Osted, M. J. Packer, F. Pawlowski,
       T. B. Pedersen, P. F. Provasi, S. Reine, Z. Rinkevicius,
       T. A. Ruden, K. Ruud, V. Rybkin, P. Salek, C. C. M. Samson,
       A. Sanchez de Meras, T. Saue, S. P. A. Sauer,
       B. Schimmelpfennig, K. Sneskov, A. H. Steindal,
       K. O. Sylvester-Hvid, P. R. Taylor, A. M. Teale,
       E. I. Tellgren, D. P. Tew, A. J. Thorvaldsen, L. Thoegersen,
       O. Vahtras, M. A. Watson, D. J. D. Wilson, M. Ziolkowski
       and H. Agren,
       "The Dalton quantum chemistry program system",
       WIREs Comput. Mol. Sci. 2014, 4:269–284 (doi: 10.1002/wcms.1172)
     
    and
     
       Dalton, a Molecular Electronic Structure Program,
       Release Dalton2017.alpha (2016), see http://daltonprogram.org
   ----------------------------------------------------------------------------

    Authors in alphabetical order (major contribution(s) in parenthesis):

  Kestutis Aidas,           Vilnius University,           Lithuania   (QM/MM)
  Celestino Angeli,         University of Ferrara,        Italy       (NEVPT2)
  Keld L. Bak,              UNI-C,                        Denmark     (AOSOPPA, non-adiabatic coupling, magnetic properties)
  Vebjoern Bakken,          University of Oslo,           Norway      (DALTON; geometry optimizer, symmetry detection)
  Radovan Bast,             UiT The Arctic U. of Norway,  Norway      (DALTON installation and execution frameworks)
  Pablo Baudin,             University of Valencia,       Spain       (Cholesky excitation energies)
  Linus Boman,              NTNU,                         Norway      (Cholesky decomposition and subsystems)
  Ove Christiansen,         Aarhus University,            Denmark     (CC module)
  Renzo Cimiraglia,         University of Ferrara,        Italy       (NEVPT2)
  Sonia Coriani,            University of Trieste,        Italy       (CC module, MCD in RESPONS)
  Janusz Cukras,            University of Trieste,        Italy       (MChD in RESPONS)
  Paal Dahle,               University of Oslo,           Norway      (Parallelization)
  Erik K. Dalskov,          UNI-C,                        Denmark     (SOPPA)
  Thomas Enevoldsen,        Univ. of Southern Denmark,    Denmark     (SOPPA)
  Janus J. Eriksen,         Aarhus University,            Denmark     (Polarizable embedding model, TDA)
  Rasmus Faber,             University of Copenhagen,     Denmark     (Vib.avg. NMR with SOPPA, parallel AO-SOPPA)
  Berta Fernandez,          U. of Santiago de Compostela, Spain       (doublet spin, ESR in RESPONS)
  Lara Ferrighi,            Aarhus University,            Denmark     (PCM Cubic response)
  Heike Fliegl,             University of Oslo,           Norway      (CCSD(R12))
  Luca Frediani,            UiT The Arctic U. of Norway,  Norway      (PCM)
  Bin Gao,                  UiT The Arctic U. of Norway,  Norway      (Gen1Int library)
  Christof Haettig,         Ruhr-University Bochum,       Germany     (CC module)
  Kasper Hald,              Aarhus University,            Denmark     (CC module)
  Asger Halkier,            Aarhus University,            Denmark     (CC module)
  Frederik Beyer Hansen,    University of Copenhagen,     Denmark     (Parallel AO-SOPPA)
  Erik D. Hedegaard,        Univ. of Southern Denmark,    Denmark     (Polarizable embedding model, QM/MM)
  Hanne Heiberg,            University of Oslo,           Norway      (geometry analysis, selected one-electron integrals)
  Trygve Helgaker,          University of Oslo,           Norway      (DALTON; ABACUS, ERI, DFT modules, London, and much more)
  Alf Christian Hennum,     University of Oslo,           Norway      (Parity violation)
  Hinne Hettema,            University of Auckland,       New Zealand (quadratic response in RESPONS; SIRIUS supersymmetry)
  Eirik Hjertenaes,         NTNU,                         Norway      (Cholesky decomposition)
  Pi A. B. Haase,           University of Copenhagen,     Denmark     (Triplet AO-SOPPA)
  Maria Francesca Iozzi,    University of Oslo,           Norway      (RPA)
  Brano Jansik              Technical Univ. of Ostrava    Czech Rep.  (DFT cubic response)
  Hans Joergen Aa. Jensen,  Univ. of Southern Denmark,    Denmark     (DALTON; SIRIUS, RESPONS, ABACUS modules, London, and much more)
  Dan Jonsson,              UiT The Arctic U. of Norway,  Norway      (cubic response in RESPONS module)
  Poul Joergensen,          Aarhus University,            Denmark     (RESPONS, ABACUS, and CC modules)
  Maciej Kaminski,          University of Warsaw,         Poland      (CPPh in RESPONS)
  Joanna Kauczor,           Linkoeping University,        Sweden      (Complex polarization propagator (CPP) module)
  Sheela Kirpekar,          Univ. of Southern Denmark,    Denmark     (Mass-velocity & Darwin integrals)
  Wim Klopper,              KIT Karlsruhe,                Germany     (R12 code in CC, SIRIUS, and ABACUS modules)
  Stefan Knecht,            ETH Zurich,                   Switzerland (Parallel CI and MCSCF)
  Rika Kobayashi,           Australian National Univ.,    Australia   (DIIS in CC, London in MCSCF)
  Henrik Koch,              NTNU,                         Norway      (CC module, Cholesky decomposition)
  Jacob Kongsted,           Univ. of Southern Denmark,    Denmark     (Polarizable embedding model, QM/MM)
  Andrea Ligabue,           University of Modena,         Italy       (CTOCD, AOSOPPA)
  Nanna H. List             Univ. of Southern Denmark,    Denmark     (Polarizable embedding model)
  Ola B. Lutnaes,           University of Oslo,           Norway      (DFT Hessian)
  Juan I. Melo,             University of Buenos Aires,   Argentina   (LRESC, Relativistic Effects on NMR Shieldings)
  Kurt V. Mikkelsen,        University of Copenhagen,     Denmark     (MC-SCRF and QM/MM)
  Rolf H. Myhre,            NTNU,                         Norway      (Cholesky, subsystems and ECC2)
  Christian Neiss,          Univ. Erlangen-Nuernberg,     Germany     (CCSD(R12))
  Christian B. Nielsen,     University of Copenhagen,     Denmark     (QM/MM)
  Patrick Norman,           Linkoeping University,        Sweden      (Cubic response and complex frequency response in RESPONS)
  Jeppe Olsen,              Aarhus University,            Denmark     (SIRIUS CI/density modules)
  Jogvan Magnus H. Olsen,   Univ. of Southern Denmark,    Denmark     (Polarizable embedding model, QM/MM)
  Anders Osted,             Copenhagen University,        Denmark     (QM/MM)
  Martin J. Packer,         University of Sheffield,      UK          (SOPPA)
  Filip Pawlowski,          Kazimierz Wielki University,  Poland      (CC3)
  Morten N. Pedersen,       Univ. of Southern Denmark,    Denmark     (Polarizable embedding model)
  Thomas B. Pedersen,       University of Oslo,           Norway      (Cholesky decomposition)
  Patricio F. Provasi,      University of Northeastern,   Argentina   (Analysis of coupling constants in localized orbitals)
  Zilvinas Rinkevicius,     KTH Stockholm,                Sweden      (open-shell DFT, ESR)
  Elias Rudberg,            KTH Stockholm,                Sweden      (DFT grid and basis info)
  Torgeir A. Ruden,         University of Oslo,           Norway      (Numerical derivatives in ABACUS)
  Kenneth Ruud,             UiT The Arctic U. of Norway,  Norway      (DALTON; ABACUS magnetic properties and much more)
  Pawel Salek,              KTH Stockholm,                Sweden      (DALTON; DFT code)
  Claire C. M. Samson       University of Karlsruhe       Germany     (Boys localization, r12 integrals in ERI)
  Alfredo Sanchez de Meras, University of Valencia,       Spain       (CC module, Cholesky decomposition)
  Trond Saue,               Paul Sabatier University,     France      (direct Fock matrix construction)
  Stephan P. A. Sauer,      University of Copenhagen,     Denmark     (SOPPA(CCSD), SOPPA prop., AOSOPPA, vibrational g-factors)
  Bernd Schimmelpfennig,    Forschungszentrum Karlsruhe,  Germany     (AMFI module)
  Kristian Sneskov,         Aarhus University,            Denmark     (Polarizable embedding model, QM/MM)
  Arnfinn H. Steindal,      UiT The Arctic U. of Norway,  Norway      (parallel QM/MM, Polarizable embedding model)
  Casper Steinmann,         Univ. of Southern Denmark,    Denmark     (QFIT, Polarizable embedding model)
  K. O. Sylvester-Hvid,     University of Copenhagen,     Denmark     (MC-SCRF)
  Peter R. Taylor,          VLSCI/Univ. of Melbourne,     Australia   (Symmetry handling ABACUS, integral transformation)
  Andrew M. Teale,          University of Nottingham,     England     (DFT-AC, DFT-D)
  David P. Tew,             University of Bristol,        England     (CCSD(R12))
  Olav Vahtras,             KTH Stockholm,                Sweden      (triplet response, spin-orbit, ESR, TDDFT, open-shell DFT)
  David J. Wilson,          La Trobe University,          Australia   (DFT Hessian and DFT magnetizabilities)
  Hans Agren,               KTH Stockholm,                Sweden      (SIRIUS module, RESPONS, MC-SCRF solvation model)
 --------------------------------------------------------------------------------

     Date and time (Linux)  : Fri Dec  7 19:42:07 2018
     Host name              : n-62-23-12                              

 * Work memory size             :  1280000000 =  9.537 gigabytes.

 * Directories for basis set searches:
   1) /zhome/d7/7/119775/My_Codes/dalton-private/build2016/basis/diffs
   2) /zhome/37/3/129401/NH3NH4/CCSD/AIMD_SAMPLING/nh4_4h2o_nd
   3) /zhome/9a/4/124800/source/dalton/build-mlcc/basis


Compilation information
-----------------------

 Who compiled             | rfaber
 Host                     | hpclogin1
 System                   | Linux-2.6.32-696.1.1.el6.x86_64
 CMake generator          | Unix Makefiles
 Processor                | x86_64
 64-bit integers          | ON
 MPI                      | OFF
 Fortran compiler         | /opt/intel/2016update2/compilers_and_libraries_201
                          | 6.2.181/linux/bin/intel64/ifort
 Fortran compiler version | ifort (IFORT) 16.0.2 20160204
 C compiler               | /opt/intel/2016update2/compilers_and_libraries_201
                          | 6.2.181/linux/bin/intel64/icc
 C compiler version       | icc (ICC) 16.0.2 20160204
 C++ compiler             | /opt/intel/2016update2/compilers_and_libraries_201
                          | 6.2.181/linux/bin/intel64/icpc
 C++ compiler version     | icpc (ICC) 16.0.2 20160204
 Static linking           | OFF
 Last Git revision        | bb4d1599ca5680a9f3980451fc8bbefdba436d59
 Git branch               | mlcc
 Configuration time       | 2017-06-13 16:11:03.928841


   Content of the .dal input file
 ----------------------------------

**DALTON
.RUN WAVE FUNCTIONS
*QMMM
.QMMM
**INTEGRALS
.DIPLEN
**WAVE FUNCTIONS
.CC
*PRINT
!To check the origin of excit
.PRINTL
   0 11
*SCF INP
.THRESH
1.0D-7
!*ORBITAL INPUT
!.MOSTART
!NEWORB
*CC INP
!.RESTART
.CCSD
.THRLEQ
 1.0D-9
.THRENR
 1.0D-10
.FROIMP
4
0
.PRINT
 1
.MAX IT
 1200
.MAXRED
 1200
.MXLRV
1199
*CCSLV
.CCMM
.MXSLIT
200
.MXINIT
4 5
*CCEXCI
.NCCEXC
 1
.IONISATION
1
1
.CVSEPARA
1
1
*CCLRSD
.DIPOLE
**END OF DALTON INPUT


   Content of the .mol file
 ----------------------------

ATOMBASIS


Atomtypes=5 Charge=1 Nosymm Angstrom
   7.00000    1    Basis=6-311G**
N          0.000000        0.000000        0.000000
   1.00000    4    Basis=6-311G**
H          0.110084        0.902009       -0.505236
H          0.840170       -0.671694       -0.179214
H         -0.780353       -0.375681       -0.445611
H         -0.127880        0.094745        1.037917
   8.00000    4    Basis=6-311G**
O          0.066424        2.508849       -1.610366
O         -2.443906       -0.500278       -1.232679
O         -0.352274        0.030315        2.823043
O          2.079648       -1.698302       -1.267503
   1.00000    8    Basis=6-311G**
H         -0.316313        1.908642       -2.271468
H          1.001009        2.601638       -1.958939
H         -2.682967       -1.329456       -0.778433
H         -3.222332        0.160990       -1.054460
H          0.176437       -0.469296        3.481829
H         -0.339757        1.006964        3.027854
H          2.035523       -2.527965       -0.679106
H          2.897591       -1.292093       -0.970955
   0.00000    1    Basis=diffs
X          0.000000        0.000000        0.000000


       *******************************************************************
       *********** Output from DALTON general input processing ***********
       *******************************************************************

 --------------------------------------------------------------------------------
   Overall default print level:    0
   Print level for DALTON.STAT:    1

    HERMIT 1- and 2-electron integral sections will be executed
    "Old" integral transformation used (limited to max 255 basis functions)
    Wave function sections will be executed (SIRIUS module)
 --------------------------------------------------------------------------------


 Changes of defaults for *QMMM  :
 --------------------------------

 +------------------+
 |  WORD: | CHANGE: |
 +------------------+
 |   QMMM |       T |
 +------------------+
 


   ****************************************************************************
   *************** Output of molecule and basis set information ***************
   ****************************************************************************


    The two title cards from your ".mol" input:
    ------------------------------------------------------------------------
 1:                                                                         
 2:                                                                         
    ------------------------------------------------------------------------

  Coordinates are entered in Angstrom and converted to atomic units.
          - Conversion factor : 1 bohr = 0.52917721 A

  Atomic type no.    1
  --------------------
  Nuclear charge:   7.00000
  Number of symmetry independent centers:    1
  Number of basis sets to read;    2
  The basis set is "6-311G**" from the basis set library.
  Basis set file used for this atomic type with Z =   7 :
     "/zhome/9a/4/124800/source/dalton/build-mlcc/basis/6-311G**"

  Info about the basis set file: your basis has no documentation.
  Basis set: 6-311G**                                                                        

  Atomic type no.    2
  --------------------
  Nuclear charge:   1.00000
  Number of symmetry independent centers:    4
  Number of basis sets to read;    2
  The basis set is "6-311G**" from the basis set library.
  Basis set file used for this atomic type with Z =   1 :
     "/zhome/9a/4/124800/source/dalton/build-mlcc/basis/6-311G**"

  Info about the basis set file: your basis has no documentation.
  Basis set: 6-311G**                                                                        

  Atomic type no.    3
  --------------------
  Nuclear charge:   8.00000
  Number of symmetry independent centers:    4
  Number of basis sets to read;    2
  The basis set is "6-311G**" from the basis set library.
  Basis set file used for this atomic type with Z =   8 :
     "/zhome/9a/4/124800/source/dalton/build-mlcc/basis/6-311G**"

  Info about the basis set file: your basis has no documentation.
  Basis set: 6-311G**                                                                        

  Atomic type no.    4
  --------------------
  Nuclear charge:   1.00000
  Number of symmetry independent centers:    8
  Number of basis sets to read;    2
  The basis set is "6-311G**" from the basis set library.
  Basis set file used for this atomic type with Z =   1 :
     "/zhome/9a/4/124800/source/dalton/build-mlcc/basis/6-311G**"

  Info about the basis set file: your basis has no documentation.
  Basis set: 6-311G**                                                                        

  Atomic type no.    5
  --------------------
  Nuclear charge:   0.00000
  Number of symmetry independent centers:    1
  Number of basis sets to read;    2
  The basis set is "diffs" from the basis set library.
  Basis set file used for this atomic type with Z =   0 :
     "/zhome/9a/4/124800/source/dalton/build-mlcc/basis/diffs"

  Info about the basis set file: your basis has no documentation.
  Basis set: diffs                                                                           


                         SYMGRP: Point group information
                         -------------------------------

@    Point group: C1 


                                 Isotopic Masses
                                 ---------------

                           N          14.003074
                           H           1.007825
                           H           1.007825
                           H           1.007825
                           H           1.007825
                           O          15.994915
                           O          15.994915
                           O          15.994915
                           O          15.994915
                           H           1.007825
                           H           1.007825
                           H           1.007825
                           H           1.007825
                           H           1.007825
                           H           1.007825
                           H           1.007825
                           H           1.007825

                       Total mass:    90.076634 amu
                       Natural abundance:  98.500 %

 Center-of-mass coordinates (a.u.):   -0.226793    0.114472   -0.459432


  Atoms and basis sets
  --------------------

  Number of atom types :    5
  Total number of atoms:   18

  label    atoms   charge   prim   cont     basis
  ----------------------------------------------------------------------
  N           1    7.0000    31    18      [11s5p1d|4s3p1d]                                   
  H           4    1.0000     8     6      [5s1p|3s1p]                                        
  O           4    8.0000    31    18      [11s5p1d|4s3p1d]                                   
  H           8    1.0000     8     6      [5s1p|3s1p]                                        
  X           1    0.0000     1     1      [1s|1s]                                            
  ----------------------------------------------------------------------
  total:     18   51.0000   252   163
  ----------------------------------------------------------------------
  Spherical harmonic basis used.

  Threshold for neglecting AO integrals:  1.00D-12


  Cartesian Coordinates (a.u.)
  ----------------------------

  Total number of coordinates:   54
  N       :     1  x   0.0000000000    2  y   0.0000000000    3  z   0.0000000000
  H       :     4  x   0.2080286107    5  y   1.7045499723    6  z  -0.9547576685
  H       :     7  x   1.5876911984    8  y  -1.2693176998    9  z  -0.3386653778
  H       :    10  x  -1.4746534508   11  y  -0.7099342004   12  z  -0.8420827483
  H       :    13  x  -0.2416581769   14  y   0.1790421017   15  z   1.9613788705
  O       :    16  x   0.1255231681   17  y   4.7410374990   18  z  -3.0431507010
  O       :    19  x  -4.6183130152   20  y  -0.9453884064   21  z  -2.3294257100
  O       :    22  x  -0.6657013810   23  y   0.0572870475   24  z   5.3347781091
  O       :    25  x   3.9299651564   26  y  -3.2093256575   27  z  -2.3952335326
  H       :    28  x  -0.5977449398   29  y   3.6068106507   30  z  -4.2924524217
  H       :    31  x   1.8916328587   32  y   4.9163832964   33  z  -3.7018582056
  H       :    34  x  -5.0700728324   35  y  -2.5123077352   36  z  -1.4710251767
  H       :    37  x  -6.0893249638   38  y   0.3042270089   39  z  -1.9926406098
  H       :    40  x   0.3334176083   41  y  -0.8868409116   42  z   6.5797032241
  H       :    43  x  -0.6420476790   44  y   1.9028861777   45  z   5.7218148065
  H       :    46  x   3.8465809911   47  y  -4.7771615036   48  z  -1.2833243498
  H       :    49  x   5.4756534122   50  y  -2.4417018980   51  z  -1.8348390297
  X       :    52  x   0.0000000000   53  y   0.0000000000   54  z   0.0000000000

  Max    interatomic separation is    6.3018 Angstrom (   11.9087 Bohr)
  between atoms   14 and   11, "H     " and "H     ".

  Min HX interatomic separation is    0.9602 Angstrom (    1.8145 Bohr)

  Min YX interatomic separation is    2.7825 Angstrom (    5.2582 Bohr)


  Bond distances (Angstrom):
  --------------------------

                  atom 1     atom 2       distance
                  ------     ------       --------
  bond distance:  H          N            1.039713
  bond distance:  H          N            1.090494
  bond distance:  H          N            0.973990
  bond distance:  H          N            1.050048
  bond distance:  H          O            0.971490
  bond distance:  H          O            1.001779
  bond distance:  H          O            0.975205
  bond distance:  H          O            1.036815
  bond distance:  H          O            0.981400
  bond distance:  H          O            0.997972
  bond distance:  H          O            1.018086
  bond distance:  H          O            0.960196


  Bond angles (degrees):
  ----------------------

                  atom 1     atom 2     atom 3         angle
                  ------     ------     ------         -----
  bond angle:     H          N          H            111.897
  bond angle:     H          N          H            101.370
  bond angle:     H          N          H            114.516
  bond angle:     H          N          H            107.729
  bond angle:     H          N          H            108.171
  bond angle:     H          N          H            112.921
  bond angle:     H          O          H            100.835
  bond angle:     H          O          H            106.151
  bond angle:     H          O          H            110.713
  bond angle:     H          O          H            101.723




 Principal moments of inertia (u*A**2) and principal axes
 --------------------------------------------------------

   IA     365.666841         -0.107761   -0.210308    0.971678
   IB     394.690024          0.815075   -0.578310   -0.034775
   IC     481.448955          0.569245    0.788243    0.233737


 Rotational constants
 --------------------

               A                   B                   C

           1382.0750           1280.4454           1049.7042 MHz
            0.046101            0.042711            0.035014 cm-1


@  Nuclear repulsion energy :  197.968844007177 Hartree

  Number of floating/multiple basis set orbitals :    1


                     .---------------------------------------.
                     | Starting in Integral Section (HERMIT) |
                     `---------------------------------------'



 ***************************************************************************************
 ****************** Output from **INTEGRALS input processing (HERMIT) ******************
 ***************************************************************************************



    *************************************************************************
    ****************** Output from HERMIT input processing ******************
    *************************************************************************


 Default print level:        1

 * Nuclear model: Point charge

 Calculation of one- and two-electron Hamiltonian integrals.

 The following one-electron property integrals are calculated as requested:
          - overlap integrals
          - dipole length integrals

 Center of mass  (bohr):     -0.226792580267      0.114472088195     -0.459431549488
 Operator center (bohr):      0.000000000000      0.000000000000      0.000000000000
 Gauge origin    (bohr):      0.000000000000      0.000000000000      0.000000000000
 Dipole origin   (bohr):      0.000000000000      0.000000000000      0.000000000000
 
  *********************************** 
  QMMM electrostatic potential: 
  Multipole order                                    0
  Isotropic polarization  
  *********************************** 
 
  ---------------- 
  QMMM information 
  ---------------- 
 
  MM coordinates in au 
  -------------------- 
     1      9.112435      9.709029     -8.221046
     2      7.779583     11.025274     -8.045475
     3      8.039989      8.149468     -8.661216
     4      5.041899      5.354507     -5.441395
     5      6.174724      5.971971     -4.132292
     6      6.038892      4.354779     -6.686274
     7      7.412194      9.102038     -2.164241
     8      7.223688      8.545043     -0.401898
     9      9.127285      9.972546     -2.485432
    10      8.171813     -5.871423     -9.652560
    11      8.322607     -6.984912    -11.382087
    12      9.835267     -5.456817     -9.050703
    13      5.170493      2.582452      1.875343
    14      4.497858      4.224071      2.436915
    15      6.687399      3.156829      0.685201
    16    -11.505563     11.126809     -3.443903
    17    -11.782520     10.251719     -5.071600
    18    -10.500488     12.654689     -3.888712
    19     -0.819542     -7.379719      2.507678
    20     -0.534891     -9.252708      2.444389
    21     -0.809243     -6.862771      4.409918
    22      5.324630     -1.001683    -11.077716
    23      4.086380     -1.618471     -9.865370
    24      6.570122     -2.475159    -10.908280
    25      6.288623    -11.091634      4.116481
    26      7.477992    -10.475971      2.894170
    27      5.291906     -9.608836      4.717231
    28     -1.852559      6.713203     -9.560336
    29     -2.912950      6.593496    -11.041407
    30     -1.822365      4.974942     -8.849909
    31     -8.616802      2.567824     -2.200698
    32     -9.595952      2.208534     -0.640309
    33     -8.204792      4.440960     -1.948400
    34      5.257545     -9.453206     -7.374537
    35      6.153619     -8.129545     -8.391678
    36      5.227205     -9.135775     -5.520185
    37      2.001195     -2.398845     -7.129181
    38      0.822671     -3.771313     -7.353350
    39      3.004370     -2.840194     -5.628823
    40     11.123357      0.917904     -5.148262
    41     11.768649     -0.640468     -6.157760
    42     12.656805      1.533038     -4.320808
    43      9.848960     -6.657241     -2.631453
    44      8.334318     -7.131127     -3.442652
    45      9.717616     -4.809255     -2.238766
    46      9.622480      5.789197      3.056228
    47     11.290617      6.711173      3.217040
    48      9.084380      5.761119      4.869410
    49      5.362776     10.869132      9.419780
    50      6.803519     10.295759      8.486123
    51      5.450919      9.659129     10.745019
    52     -3.216954      8.934536     -1.900796
    53     -2.101980      7.412708     -1.795400
    54     -4.931276      8.323134     -1.394896
    55    -11.344542      1.061304      2.185325
    56    -10.454687      0.257080      3.556852
    57    -12.480861      2.443852      2.816370
    58     -0.600211     -9.414546     -4.031508
    59      1.204356     -9.893047     -4.138525
    60     -1.350056    -10.827724     -5.152499
    61     -6.733096      1.322776     11.615774
    62     -5.988514      0.347870     12.979034
    63     -6.526146      0.294933     10.094754
    64     -5.567203     -1.741948      7.812133
    65     -3.897942     -1.718235      6.942364
    66     -5.424740     -3.222280      8.889020
    67     -9.045146     -7.712893     -3.911041
    68     -8.349753     -7.501079     -5.623158
    69    -10.759607     -6.783794     -3.902534
    70     -4.198079     10.498273     -6.469381
    71     -3.855716      9.649522     -4.666085
    72     -3.450988      9.262268     -7.774628
    73    -10.334470     -3.866126      9.819656
    74    -11.233791     -5.003203      8.575067
    75    -10.566706     -2.289543      8.797085
    76     -4.298596     -6.642300     10.488613
    77     -5.121789     -8.032916      9.491219
    78     -4.936615     -6.783257     12.220264
    79      3.353669      7.312894      3.361466
    80      4.616491      8.649163      3.859153
    81      2.502304      7.995303      1.904587
    82     -5.174064     -1.849484     -7.755083
    83     -4.012129     -3.284983     -8.087132
    84     -5.433794     -1.703650     -5.963261
    85      7.076983     -0.885494      4.911222
    86      6.586501      0.570654      3.831807
    87      5.617986     -1.562548      5.844639
    88      0.504555     -9.554493    -10.477541
    89      0.652755    -10.396950    -12.122485
    90      2.106230     -9.798115     -9.476366
    91      2.753639     -2.509435      7.884124
    92      2.041889     -4.264004      8.360916
    93      3.767107     -1.902295      9.333939
    94      4.159087      4.615399     10.549969
    95      3.790895      6.040689     11.857281
    96      4.425064      3.087967     11.510934
    97     -8.456747      9.345508      7.991909
    98     -9.065022     10.066983      9.726551
    99     -7.100767      7.968401      8.312892
   100     -8.131091     -6.546380      4.086939
   101     -7.269809     -5.878464      2.564602
   102     -8.254864     -5.135720      5.326191
   103     -7.205386     -8.825837     -8.770376
   104     -8.546016     -9.865909     -9.548994
   105     -6.289296    -10.248644     -7.841071
   106      8.513180     -8.318590      9.582913
   107      7.111096     -9.613139      9.881726
   108      7.957229     -7.161629      8.081820
   109    -10.691479    -11.400856    -11.489059
   110    -12.154953    -12.172251    -10.512454
   111    -11.417189     -9.963874    -12.425847
   112     -5.365675     -5.702668     -0.283198
   113     -3.828050     -6.668314      0.045032
   114     -6.102054     -6.465023     -1.861201
   115    -11.499766      0.428711      7.192878
   116    -11.152863      1.858442      8.430399
   117    -13.368234      0.300192      6.955326
   118      8.216346     -5.780451      5.547255
   119      9.046125     -6.852427      4.258643
   120      8.622556     -4.073787      4.872606
   121      0.047134    -11.656736      6.628434
   122     -1.898835    -11.427270      6.320758
   123      0.583493    -13.248600      5.899759
   124      8.886859     -1.371586     -1.285222
   125      9.737300     -0.937493      0.244986
   126      9.573107     -0.218469     -2.569975
   127     -4.740881      6.055608      9.158085
   128     -3.065792      5.979001      8.196925
   129     -5.171324      4.353901      9.954044
   130    -11.178832      4.151543     11.320595
   131    -12.516191      3.321014     12.177543
   132     -9.612341      3.334737     11.818003
   133      8.231176      2.894255     -8.995404
   134      7.010910      1.567214     -9.680249
   135      9.291543      2.168325     -7.676616
   136      0.273109      5.354492      7.307010
   137      1.318621      5.893829      5.984589
   138      1.450183      4.612587      8.681219
   139     -0.832950      2.172395     -7.762256
   140      0.615112      0.964783     -7.703452
   141     -2.273594      0.941477     -7.996248
   142     -0.115861     -6.653253      7.648833
   143      0.359513     -8.452123      7.351331
   144     -1.455851     -6.586448      8.932367
   145     -1.954100     -5.521245     -7.985826
   146     -2.213835     -6.794146     -6.631673
   147     -1.230692     -6.725356     -9.226401
   148    -10.374655     -3.100838     -8.635268
   149    -10.631195     -3.266065    -10.422597
   150     -8.567843     -3.452335     -8.146500
   151      2.961021      8.299430     -9.571639
   152      1.174272      7.794480     -9.762418
   153      3.297719      7.631273     -7.833245
   154      8.618289      6.619456      8.570479
   155      7.080454      5.574613      9.011877
   156     10.067138      5.836878      9.504689
   157      5.019234     -9.789490     -2.264884
   158      5.216525     -8.579965     -0.779232
   159      6.180826    -11.305364     -1.861991
   160      4.016416     -6.614240      1.940926
   161      4.567001     -5.330668      3.187159
   162      2.247773     -6.899959      2.078799
   163     11.072002     -8.931407      2.035906
   164     11.130415     -8.566917      0.195231
   165     12.544576     -8.030368      2.836330
   166     -8.038844      7.669170     -0.887221
   167     -9.151951      8.574780     -2.018549
   168     -8.674013      8.371396      0.731237
   169     -4.731532    -10.184078      6.300235
   170     -6.437040    -11.219295      6.533787
   171     -5.259267     -8.632586      5.391498
   172    -10.178630      8.978338      3.545909
   173    -11.422261     10.276867      3.050959
   174     -9.751382      9.267801      5.426630
   175      1.008840     11.129960      0.387942
   176     -0.457981     10.899364     -0.771823
   177      2.086362     12.343024     -0.541866
 
  MM charges 
  ---------- 
     1     -0.674440
     2      0.337220
     3      0.337220
     4     -0.674440
     5      0.337220
     6      0.337220
     7     -0.674440
     8      0.337220
     9      0.337220
    10     -0.674440
    11      0.337220
    12      0.337220
    13     -0.674440
    14      0.337220
    15      0.337220
    16     -0.674440
    17      0.337220
    18      0.337220
    19     -0.674440
    20      0.337220
    21      0.337220
    22     -0.674440
    23      0.337220
    24      0.337220
    25     -0.674440
    26      0.337220
    27      0.337220
    28     -0.674440
    29      0.337220
    30      0.337220
    31     -0.674440
    32      0.337220
    33      0.337220
    34     -0.674440
    35      0.337220
    36      0.337220
    37     -0.674440
    38      0.337220
    39      0.337220
    40     -0.674440
    41      0.337220
    42      0.337220
    43     -0.674440
    44      0.337220
    45      0.337220
    46     -0.674440
    47      0.337220
    48      0.337220
    49     -0.674440
    50      0.337220
    51      0.337220
    52     -0.674440
    53      0.337220
    54      0.337220
    55     -0.674440
    56      0.337220
    57      0.337220
    58     -0.674440
    59      0.337220
    60      0.337220
    61     -0.674440
    62      0.337220
    63      0.337220
    64     -0.674440
    65      0.337220
    66      0.337220
    67     -0.674440
    68      0.337220
    69      0.337220
    70     -0.674440
    71      0.337220
    72      0.337220
    73     -0.674440
    74      0.337220
    75      0.337220
    76     -0.674440
    77      0.337220
    78      0.337220
    79     -0.674440
    80      0.337220
    81      0.337220
    82     -0.674440
    83      0.337220
    84      0.337220
    85     -0.674440
    86      0.337220
    87      0.337220
    88     -0.674440
    89      0.337220
    90      0.337220
    91     -0.674440
    92      0.337220
    93      0.337220
    94     -0.674440
    95      0.337220
    96      0.337220
    97     -0.674440
    98      0.337220
    99      0.337220
   100     -0.674440
   101      0.337220
   102      0.337220
   103     -0.674440
   104      0.337220
   105      0.337220
   106     -0.674440
   107      0.337220
   108      0.337220
   109     -0.674440
   110      0.337220
   111      0.337220
   112     -0.674440
   113      0.337220
   114      0.337220
   115     -0.674440
   116      0.337220
   117      0.337220
   118     -0.674440
   119      0.337220
   120      0.337220
   121     -0.674440
   122      0.337220
   123      0.337220
   124     -0.674440
   125      0.337220
   126      0.337220
   127     -0.674440
   128      0.337220
   129      0.337220
   130     -0.674440
   131      0.337220
   132      0.337220
   133     -0.674440
   134      0.337220
   135      0.337220
   136     -0.674440
   137      0.337220
   138      0.337220
   139     -0.674440
   140      0.337220
   141      0.337220
   142     -0.674440
   143      0.337220
   144      0.337220
   145     -0.674440
   146      0.337220
   147      0.337220
   148     -0.674440
   149      0.337220
   150      0.337220
   151     -0.674440
   152      0.337220
   153      0.337220
   154     -0.674440
   155      0.337220
   156      0.337220
   157     -0.674440
   158      0.337220
   159      0.337220
   160     -0.674440
   161      0.337220
   162      0.337220
   163     -0.674440
   164      0.337220
   165      0.337220
   166     -0.674440
   167      0.337220
   168      0.337220
   169     -0.674440
   170      0.337220
   171      0.337220
   172     -0.674440
   173      0.337220
   174      0.337220
   175     -0.674440
   176      0.337220
   177      0.337220
 
  MM isotropic polarizabilities in au 
  ----------------------------------- 
     1      5.739350
     2      2.308390
     3      2.308390
     4      5.739350
     5      2.308390
     6      2.308390
     7      5.739350
     8      2.308390
     9      2.308390
    10      5.739350
    11      2.308390
    12      2.308390
    13      5.739350
    14      2.308390
    15      2.308390
    16      5.739350
    17      2.308390
    18      2.308390
    19      5.739350
    20      2.308390
    21      2.308390
    22      5.739350
    23      2.308390
    24      2.308390
    25      5.739350
    26      2.308390
    27      2.308390
    28      5.739350
    29      2.308390
    30      2.308390
    31      5.739350
    32      2.308390
    33      2.308390
    34      5.739350
    35      2.308390
    36      2.308390
    37      5.739350
    38      2.308390
    39      2.308390
    40      5.739350
    41      2.308390
    42      2.308390
    43      5.739350
    44      2.308390
    45      2.308390
    46      5.739350
    47      2.308390
    48      2.308390
    49      5.739350
    50      2.308390
    51      2.308390
    52      5.739350
    53      2.308390
    54      2.308390
    55      5.739350
    56      2.308390
    57      2.308390
    58      5.739350
    59      2.308390
    60      2.308390
    61      5.739350
    62      2.308390
    63      2.308390
    64      5.739350
    65      2.308390
    66      2.308390
    67      5.739350
    68      2.308390
    69      2.308390
    70      5.739350
    71      2.308390
    72      2.308390
    73      5.739350
    74      2.308390
    75      2.308390
    76      5.739350
    77      2.308390
    78      2.308390
    79      5.739350
    80      2.308390
    81      2.308390
    82      5.739350
    83      2.308390
    84      2.308390
    85      5.739350
    86      2.308390
    87      2.308390
    88      5.739350
    89      2.308390
    90      2.308390
    91      5.739350
    92      2.308390
    93      2.308390
    94      5.739350
    95      2.308390
    96      2.308390
    97      5.739350
    98      2.308390
    99      2.308390
   100      5.739350
   101      2.308390
   102      2.308390
   103      5.739350
   104      2.308390
   105      2.308390
   106      5.739350
   107      2.308390
   108      2.308390
   109      5.739350
   110      2.308390
   111      2.308390
   112      5.739350
   113      2.308390
   114      2.308390
   115      5.739350
   116      2.308390
   117      2.308390
   118      5.739350
   119      2.308390
   120      2.308390
   121      5.739350
   122      2.308390
   123      2.308390
   124      5.739350
   125      2.308390
   126      2.308390
   127      5.739350
   128      2.308390
   129      2.308390
   130      5.739350
   131      2.308390
   132      2.308390
   133      5.739350
   134      2.308390
   135      2.308390
   136      5.739350
   137      2.308390
   138      2.308390
   139      5.739350
   140      2.308390
   141      2.308390
   142      5.739350
   143      2.308390
   144      2.308390
   145      5.739350
   146      2.308390
   147      2.308390
   148      5.739350
   149      2.308390
   150      2.308390
   151      5.739350
   152      2.308390
   153      2.308390
   154      5.739350
   155      2.308390
   156      2.308390
   157      5.739350
   158      2.308390
   159      2.308390
   160      5.739350
   161      2.308390
   162      2.308390
   163      5.739350
   164      2.308390
   165      2.308390
   166      5.739350
   167      2.308390
   168      2.308390
   169      5.739350
   170      2.308390
   171      2.308390
   172      5.739350
   173      2.308390
   174      2.308390
   175      5.739350
   176      2.308390
   177      2.308390


     ************************************************************************
     ************************** Output from HERINT **************************
     ************************************************************************



                      Nuclear contribution to dipole moments
                      --------------------------------------

                 au               Debye          C m (/(10**-30)

      x    -10.60070594       -26.94430517       -89.87652776
      y      5.16551912        13.12943915        43.79509490
      z    -21.91300336       -55.69729539      -185.78617942



 Threshold for neglecting two-electron integrals:  1.00D-12
 HERMIT - Number of two-electron integrals written:    36928508 ( 41.3% )
 HERMIT - Megabytes written:                            422.851

  Time used in TWOINT     is       6.79 seconds
  Total CPU  time used in HERMIT:   6.96 seconds
  Total wall time used in HERMIT:  21.26 seconds


                        .----------------------------------.
                        | End of Integral Section (HERMIT) |
                        `----------------------------------'



                   .--------------------------------------------.
                   | Starting in Wave Function Section (SIRIUS) |
                   `--------------------------------------------'

NCCEXCI for singlet:    1
 CCSD_INPUT: core-val requested
 Requested number of virtual orbs per sym
                     1
 Indices of requested virtual orbs
                     1
 CCSD_INPUT: core-val requested
 Requested number of core orbs per sym
                     1
 Indices of requested core orbs
                     1

 *** Output from Huckel module :

     Using EWMO model:          T
     Using EHT  model:          F
     Number of Huckel orbitals each symmetry:   37

 EWMO - Energy Weighted Maximum Overlap - is a Huckel type method,
        which normally is better than Extended Huckel Theory.
 Reference: Linderberg and Ohrn, Propagators in Quantum Chemistry (Wiley, 1973)

 Huckel EWMO eigenvalues for symmetry :  1
          -20.684617     -20.684563     -20.684551     -20.684337     -15.675758
           -1.811487      -1.612776      -1.608614      -1.594925      -1.481778
           -0.820222      -0.806846      -0.791844      -0.773377      -0.760418
           -0.746301      -0.728677      -0.692783      -0.691789      -0.672626
           -0.655424      -0.611322      -0.568568      -0.565366      -0.558887
           -0.261531      -0.245701      -0.242428      -0.237978      -0.183968
           -0.180523      -0.177626      -0.177071      -0.175293      -0.152656
           -0.143201      -0.129966

 **********************************************************************
 *SIRIUS* a direct, restricted step, second order MCSCF program       *
 **********************************************************************

 
     Date and time (Linux)  : Fri Dec  7 19:42:38 2018
     Host name              : n-62-23-12                              

 Title lines from ".mol" input file:
                                                                             
                                                                             

 Print level on unit LUPRI =   2 is   0
 Print level on unit LUW4  =   2 is  11

@    (Integral direct) CC calculation.

@    This is a combination run starting with
@              a restricted, closed shell Hartree-Fock calculation


 Initial molecular orbitals are obtained according to
 ".MOSTART EWMO  " input option

@    QM part is embedded in an environment :

@         Model: QMMM

     Wave function specification
     ============================

     For the specification of the Coupled Cluster: see later.

@    Wave function type        --- CC ---
@    Number of closed shell electrons          50
@    Number of electrons in active shells       0
@    Total charge of the molecule               1

@    Spin multiplicity and 2 M_S                1         0
@    Total number of symmetries                 1 (point group: C1 )
@    Reference state symmetry                   1 (irrep name : A  )

     Orbital specifications
     ======================
@    Abelian symmetry species          All |    1
@                                          |  A  
                                       --- |  ---
@    Occupied SCF orbitals              25 |   25
@    Secondary orbitals                138 |  138
@    Total number of orbitals          163 |  163
@    Number of basis functions         163 |  163

     Optimization information
     ========================
@    Number of configurations                 1
@    Number of orbital rotations           3450
     ------------------------------------------
@    Total number of variables             3451

     Maximum number of Fock   iterations      0
     Maximum number of DIIS   iterations     60
     Maximum number of QC-SCF iterations     60
     Threshold for SCF convergence     1.00D-07


 Changes of defaults for CC:
 ---------------------------


 -Implicit frozen core calculation
 -Excitation energies calculated
 -One-photon absorption strengths will be calculated
 -Oscillator strengths calculated
  
* Read MO coefficients from SIRIUS.RST with label "NEWORB  " and header info:  7Dec18  REORTHO 


 ***********************************************
 ***** DIIS acceleration of SCF iterations *****
 ***********************************************

 C1-DIIS algorithm; max error vectors =    8
 -----------------------------------------------------------------------------

 *** DIIS iteration number    1
 RDSUPM called. NFMAT, ISYMDM(1:NFMAT)                     1
                     1

Calculating AOSUPINT
     (Precalculated two-electron integrals are transformed to P-supermatrix elements.
      Threshold for discarding integrals :  1.00D-12 )
  CPU  time used in FORMSUP    is   2.76 seconds
  WALL time used in FORMSUP    is  49.29 seconds

 ITDIIS, energy, error norm, change in energy, scr.thr., difden:
@ DIIS iter.   1    -360.246253074        4.02304D+00   -3.60D+02  -20    F

 (DIIS_RED) Control Parameters C2DIIS =         F NEVC =    1


 (DIIS_RED) B matrix:

               Column   1
       1      16.18481182
    ==== End of matrix output ====

 DIIS C vector; C2DIIS = F, LAMBDA = -1.62D+01
    1.000000
* Read MO coefficients from SIRIUS.RST with label "NEWORB  " and header info:  7Dec18  DIIS   1
      Virial theorem: -V/T =      2.003090
@      MULPOP N       0.10; H       0.16; H       0.15; H       0.19; H       0.16; O      -0.62; O      -0.59; O      -0.58; O      -0.61; H       0.34; 
@             H       0.33; H       0.33; H       0.31; H       0.31; H       0.33; H       0.33; H       0.34; 
   1  Level shift: doubly occupied orbital energies shifted by -2.00D-01

 DIIS Fock eigenvalues in symmetry 1
      -20.85454      -20.83868      -20.79132      -20.78679      -16.47376
       -1.74512       -1.67545       -1.65058       -1.61866       -1.60488
       -1.23285       -1.21148       -1.19431       -1.04368       -1.03821
       -0.98727       -0.97783       -0.92605       -0.89560       -0.87926
       -0.86612       -0.86235       -0.85383       -0.82235       -0.82007
       -0.01651       -0.00005        0.04052        0.06288        0.08691
        0.11671        0.14114        0.15373        0.16506        0.18102
        0.19367        0.19944        0.22514        0.25449        0.26643
        0.27994        0.41227        0.44136        0.45580        0.46452
        0.47236        0.50430        0.51409        0.51803        0.55284
        0.68365        0.70160        0.72356        0.83283        0.84772
        0.87675        0.90169        0.91833        0.95832        0.97269
        0.98551        0.99354        1.01117        1.03354        1.03982
        1.06870        1.07229        1.11850        1.21332        1.25743
        1.28893        1.30517        1.32319        1.34489        1.34956
        1.39467        1.40314        1.41032        1.45653        1.48064
        1.49054        1.53125        1.54877        1.56547        1.59408
        1.62023        1.71403        1.73352        1.76170        1.78080
        1.82076        1.90307        1.96662        2.01456        2.03380
        2.09625        2.10307        2.11485        2.12988        2.16822
        2.18563        2.20071        2.20462        2.24086        2.26815
        2.36980        2.44031        2.49295        2.50843        2.52795
        2.53998        2.57856        2.58950        2.64195        2.65508
        2.67903        2.71341        2.73545        2.75341        2.98421
        3.00075        3.05321        3.11564        3.30619        3.31522
        3.36309        3.36689        3.37658        3.41408        3.42315
        3.43092        3.49639        3.51268        3.54990        3.57411
        3.84634        3.89068        3.89410        3.90753        4.05677
        4.08065        4.11893        4.15072        4.65290        4.76171
        4.90007        5.23299        5.29720        5.31015        5.37071
        5.67508        5.69701        5.73120        5.77515        5.93245
        5.97799        5.98332        5.99970       36.37179       51.42064
       51.45167       51.48513       51.48977
 Time used in FCKEIG, thr_jaco:   4.50D-02  1.04D-01  1.71D-04
 CPU and wall times used in FCKEIG, THR_FCKEIG:   4.50D-02  1.04D-01  4.02D-02
 -----------------------------------------------------------------------------

 *** DIIS iteration number    2
 RDSUPM called. NFMAT, ISYMDM(1:NFMAT)                     1
                     1

 ITDIIS, energy, error norm, change in energy, scr.thr., difden:
@ DIIS iter.   2    -361.155588376        1.14428D+00   -9.09D-01  -20    F

 (DIIS_RED) Control Parameters C2DIIS =         F NEVC =    2


 (DIIS_RED) B matrix:

               Column   1     Column   2
       1      16.18481182
       2       0.71566632     1.30937265
    ==== End of matrix output ====

 DIIS C vector; C2DIIS = F, LAMBDA = -1.29D+00
    0.036961    0.963039
* Read MO coefficients from SIRIUS.RST with label "NEWORB  " and header info:  7Dec18  DIIS   2
      Virial theorem: -V/T =      2.002562
@      MULPOP N      -0.53; H       0.32; H       0.32; H       0.31; H       0.34; O      -0.55; O      -0.59; O      -0.58; O      -0.56; H       0.30; 
@             H       0.32; H       0.30; H       0.35; H       0.33; H       0.31; H       0.31; H       0.31; 
   2  Level shift: doubly occupied orbital energies shifted by -1.00D-01

 DIIS Fock eigenvalues in symmetry 1
      -20.80416      -20.77849      -20.75565      -20.74762      -15.64223
       -1.56558       -1.54103       -1.51521       -1.49984       -1.39388
       -0.91817       -0.91770       -0.89743       -0.87390       -0.86819
       -0.86162       -0.85326       -0.82009       -0.77680       -0.77015
       -0.74875       -0.74087       -0.72632       -0.69547       -0.69014
       -0.00005        0.04953        0.08398        0.10959        0.13176
        0.16395        0.17170        0.19031        0.20842        0.23261
        0.26152        0.27743        0.29915        0.33410        0.35310
        0.38759        0.44764        0.47566        0.49473        0.51007
        0.51652        0.54278        0.55563        0.58472        0.61451
        0.82916        0.83980        0.85407        0.86670        0.88987
        0.93163        0.94775        0.97847        0.98948        1.00887
        1.01705        1.05013        1.05666        1.06847        1.10108
        1.14692        1.18286        1.19836        1.27392        1.31207
        1.33870        1.35391        1.38345        1.40254        1.40845
        1.45142        1.46236        1.46924        1.51229        1.55270
        1.58130        1.61441        1.62909        1.64680        1.68254
        1.72647        1.78061        1.80629        1.83223        1.83853
        1.87889        2.01113        2.06073        2.08499        2.12185
        2.13880        2.15615        2.15962        2.24716        2.25090
        2.28139        2.29067        2.29855        2.35428        2.36939
        2.48081        2.54374        2.58485        2.59165        2.61586
        2.63830        2.67186        2.70157        2.71037        2.74326
        2.77970        2.78563        2.92765        2.98456        3.15946
        3.24339        3.27492        3.33504        3.34191        3.36760
        3.39209        3.39566        3.41698        3.45126        3.47863
        3.51399        3.52962        3.53989        3.57935        3.59360
        3.87283        3.91180        3.91838        3.92617        4.08387
        4.10269        4.13717        4.16557        5.04537        5.14447
        5.23750        5.26855        5.30590        5.32655        5.36590
        5.68125        5.70197        5.72937        5.77518        5.94941
        5.98743        5.99194        6.02123       37.08637       51.37363
       51.41370       51.42563       51.42960
 Time used in FCKEIG, thr_jaco:   3.00D-02  1.77D-01  4.87D-05
 CPU and wall times used in FCKEIG, THR_FCKEIG:   3.00D-02  1.77D-01  1.14D-02
 -----------------------------------------------------------------------------

 *** DIIS iteration number    3
 RDSUPM called. NFMAT, ISYMDM(1:NFMAT)                     1
                     1

 ITDIIS, energy, error norm, change in energy, scr.thr., difden:
@ DIIS iter.   3    -361.231130006        3.75776D-01   -7.55D-02  -20    F

 (DIIS_RED) Control Parameters C2DIIS =         F NEVC =    3


 (DIIS_RED) B matrix:

               Column   1     Column   2     Column   3
       1      16.18481182
       2       0.71566632     1.30937265
       3       0.81812419    -0.00413747     0.14120792
    ==== End of matrix output ====

 DIIS C vector; C2DIIS = F, LAMBDA = -9.51D-02
   -0.046376    0.100993    0.945383
* Read MO coefficients from SIRIUS.RST with label "NEWORB  " and header info:  7Dec18  DIIS   3
      Virial theorem: -V/T =      2.003214
@      MULPOP N      -0.33; H       0.28; H       0.28; H       0.27; H       0.31; O      -0.61; O      -0.66; O      -0.64; O      -0.62; H       0.32; 
@             H       0.35; H       0.32; H       0.39; H       0.36; H       0.33; H       0.33; H       0.34; 
   3  Level shift: doubly occupied orbital energies shifted by -5.00D-02

 DIIS Fock eigenvalues in symmetry 1
      -20.71251      -20.69038      -20.65905      -20.65107      -15.80042
       -1.49656       -1.47361       -1.44515       -1.43056       -1.39441
       -0.88448       -0.85417       -0.85205       -0.84604       -0.83789
       -0.79414       -0.78642       -0.74994       -0.71005       -0.69798
       -0.67715       -0.66974       -0.65421       -0.61964       -0.61475
       -0.00005        0.05462        0.09010        0.11612        0.13727
        0.16977        0.17658        0.19166        0.21394        0.23776
        0.26111        0.28076        0.29877        0.33460        0.35309
        0.38434        0.45908        0.48823        0.50498        0.52061
        0.52628        0.55341        0.56732        0.59210        0.61729
        0.82257        0.82662        0.85747        0.87068        0.90085
        0.93567        0.95660        0.99336        0.99891        1.02364
        1.03165        1.06228        1.06930        1.08105        1.11727
        1.14855        1.17618        1.19633        1.28404        1.32312
        1.35021        1.36779        1.39569        1.41691        1.42393
        1.46479        1.47687        1.48259        1.52368        1.56023
        1.58979        1.62242        1.63811        1.65577        1.68865
        1.73090        1.79166        1.81611        1.84183        1.85034
        1.89214        2.01288        2.06672        2.09908        2.12615
        2.15535        2.17033        2.17615        2.25823        2.26427
        2.29058        2.30344        2.30395        2.35640        2.36800
        2.48696        2.55067        2.59463        2.60076        2.62377
        2.64594        2.68034        2.71154        2.72119        2.75080
        2.78869        2.79463        2.89807        2.95032        3.15251
        3.22037        3.24952        3.32813        3.36227        3.38395
        3.41931        3.41961        3.43604        3.47463        3.48718
        3.50990        3.55242        3.56693        3.60421        3.62204
        3.89732        3.93866        3.94357        3.95232        4.11066
        4.13058        4.16674        4.19501        4.96446        5.06900
        5.20810        5.27020        5.33162        5.34428        5.39712
        5.71129        5.73260        5.76253        5.80639        5.98137
        6.02191        6.02646        6.05155       36.88450       51.41541
       51.45212       51.47226       51.47607
 Time used in FCKEIG, thr_jaco:   2.80D-02  1.29D-01  1.60D-05
 CPU and wall times used in FCKEIG, THR_FCKEIG:   2.80D-02  1.30D-01  3.76D-03
 -----------------------------------------------------------------------------

 *** DIIS iteration number    4
 RDSUPM called. NFMAT, ISYMDM(1:NFMAT)                     1
                     1

 ITDIIS, energy, error norm, change in energy, scr.thr., difden:
@ DIIS iter.   4    -361.241314260        9.34115D-02   -1.02D-02  -20    F

 (DIIS_RED) Control Parameters C2DIIS =         F NEVC =    4


 (DIIS_RED) B matrix:

               Column   1     Column   2     Column   3     Column   4
       1      16.18481182
       2       0.71566632     1.30937265
       3       0.81812419    -0.00413747     0.14120792
       4       0.05090533     0.07849232     0.00438962     0.00872570
    ==== End of matrix output ====

 DIIS C vector; C2DIIS = F, LAMBDA = -4.53D-03
   -0.000387   -0.059915   -0.000401    1.060702
* Read MO coefficients from SIRIUS.RST with label "NEWORB  " and header info:  7Dec18  DIIS   4
      Virial theorem: -V/T =      2.003221
@      MULPOP N      -0.40; H       0.29; H       0.29; H       0.29; H       0.32; O      -0.62; O      -0.67; O      -0.65; O      -0.63; H       0.32; 
@             H       0.35; H       0.33; H       0.40; H       0.37; H       0.33; H       0.34; H       0.34; 
   4  Level shift: doubly occupied orbital energies shifted by -1.25D-02

 DIIS Fock eigenvalues in symmetry 1
      -20.68874      -20.66579      -20.63655      -20.62892      -15.73044
       -1.46411       -1.44032       -1.41272       -1.39763       -1.34561
       -0.83703       -0.81498       -0.81206       -0.80372       -0.79470
       -0.76037       -0.75295       -0.71496       -0.67366       -0.66337
       -0.64214       -0.63269       -0.61665       -0.58282       -0.57787
       -0.00005        0.05518        0.08934        0.11572        0.13684
        0.16909        0.17627        0.19337        0.21406        0.23810
        0.26491        0.28291        0.30240        0.33953        0.35858
        0.39102        0.45847        0.48772        0.50455        0.51979
        0.52574        0.55232        0.56570        0.59254        0.61998
        0.82840        0.83334        0.86342        0.87103        0.90213
        0.93811        0.95818        0.99196        0.99949        1.02271
        1.03131        1.06184        1.06836        1.08035        1.11514
        1.15161        1.18345        1.19811        1.28465        1.32367
        1.35114        1.36728        1.39547        1.41558        1.42178
        1.46332        1.47533        1.48194        1.52306        1.56094
        1.59248        1.62378        1.63882        1.65729        1.69094
        1.73563        1.79147        1.81679        1.84226        1.84919
        1.89056        2.01781        2.07096        2.09778        2.12934
        2.15224        2.16905        2.17301        2.26008        2.26192
        2.29132        2.30220        2.30630        2.35977        2.37137
        2.49010        2.55372        2.59568        2.60203        2.62599
        2.64830        2.68277        2.71234        2.72043        2.75318
        2.78895        2.79401        2.90799        2.96198        3.16008
        3.22979        3.25910        3.33381        3.35977        3.38303
        3.41555        3.41631        3.43443        3.47166        3.48747
        3.51210        3.54967        3.56332        3.60087        3.61830
        3.89368        3.93458        3.94010        3.94842        4.10754
        4.12675        4.16268        4.19104        4.98208        5.08568
        5.22354        5.26471        5.32530        5.33843        5.39038
        5.70524        5.72648        5.75552        5.79996        5.97419
        6.01414        6.01870        6.04508       36.91658       51.40202
       51.43954       51.45746       51.46128
 Time used in FCKEIG, thr_jaco:   2.60D-02  1.20D-01  3.98D-06
 CPU and wall times used in FCKEIG, THR_FCKEIG:   2.60D-02  1.20D-01  9.34D-04
 -----------------------------------------------------------------------------

 *** DIIS iteration number    5
 RDSUPM called. NFMAT, ISYMDM(1:NFMAT)                     1
                     1

 ITDIIS, energy, error norm, change in energy, scr.thr., difden:
@ DIIS iter.   5    -361.242306267        2.97082D-02   -9.92D-04  -20    F

 (DIIS_RED) Control Parameters C2DIIS =         F NEVC =    5


 (DIIS_RED) B matrix:

               Column   1     Column   2     Column   3     Column   4     Column   5
       1      16.18481182
       2       0.71566632     1.30937265
       3       0.81812419    -0.00413747     0.14120792
       4       0.05090533     0.07849232     0.00438962     0.00872570
       5       0.02244239     0.00747318     0.00566492     0.00076451     0.00088258
    ==== End of matrix output ====

 DIIS C vector; C2DIIS = F, LAMBDA = -6.00D-04
    0.001158   -0.012569   -0.044139    0.114861    0.940688
* Read MO coefficients from SIRIUS.RST with label "NEWORB  " and header info:  7Dec18  DIIS   5
      Virial theorem: -V/T =      2.002843
@      MULPOP N      -0.39; H       0.29; H       0.28; H       0.29; H       0.32; O      -0.63; O      -0.69; O      -0.66; O      -0.64; H       0.33; 
@             H       0.36; H       0.33; H       0.41; H       0.37; H       0.34; H       0.34; H       0.35; 

 DIIS Fock eigenvalues in symmetry 1
      -20.66922      -20.64636      -20.61668      -20.60875      -15.71398
       -1.44904       -1.42538       -1.39756       -1.38244       -1.33139
       -0.82301       -0.80064       -0.79785       -0.78952       -0.78041
       -0.74594       -0.73859       -0.70041       -0.65909       -0.64877
       -0.62740       -0.61706       -0.60098       -0.56691       -0.56188
       -0.00005        0.05569        0.08966        0.11615        0.13722
        0.16940        0.17657        0.19402        0.21453        0.23854
        0.26588        0.28366        0.30334        0.34055        0.35973
        0.39226        0.45918        0.48853        0.50514        0.52044
        0.52641        0.55296        0.56630        0.59328        0.62098
        0.82981        0.83469        0.86487        0.87272        0.90404
        0.93976        0.96004        0.99341        1.00090        1.02426
        1.03308        1.06334        1.06986        1.08198        1.11670
        1.15305        1.18485        1.19962        1.28599        1.32515
        1.35263        1.36852        1.39654        1.41620        1.42236
        1.46392        1.47602        1.48270        1.52386        1.56193
        1.59345        1.62461        1.63958        1.65813        1.69179
        1.73666        1.79192        1.81736        1.84284        1.84942
        1.89079        2.01900        2.07213        2.09872        2.13054
        2.15306        2.16993        2.17386        2.26117        2.26289
        2.29243        2.30326        2.30752        2.36088        2.37248
        2.49096        2.55456        2.59621        2.60269        2.62671
        2.64908        2.68350        2.71274        2.72082        2.75391
        2.78913        2.79424        2.90946        2.96360        3.16160
        3.23176        3.26114        3.33613        3.36240        3.38560
        3.41834        3.41893        3.43722        3.47437        3.48993
        3.51462        3.55216        3.56592        3.60364        3.62101
        3.89632        3.93731        3.94262        3.95113        4.11026
        4.12959        4.16571        4.19399        4.98450        5.08807
        5.22604        5.26886        5.32982        5.34263        5.39479
        5.70913        5.73043        5.75975        5.80399        5.97787
        6.01808        6.02261        6.04868       36.92046       51.40895
       51.44638       51.46488       51.46871
 Time used in FCKEIG, thr_jaco:   2.40D-02  9.10D-02  1.26D-06
 CPU and wall times used in FCKEIG, THR_FCKEIG:   2.40D-02  9.10D-02  2.97D-04
 -----------------------------------------------------------------------------

 *** DIIS iteration number    6
 RDSUPM called. NFMAT, ISYMDM(1:NFMAT)                     1
                     1

 ITDIIS, energy, error norm, change in energy, scr.thr., difden:
@ DIIS iter.   6    -361.242392732        1.07952D-02   -8.65D-05  -20    F

 (DIIS_RED) Control Parameters C2DIIS =         F NEVC =    6


 (DIIS_RED) B matrix:

               Column   1     Column   2     Column   3     Column   4     Column   5     Column   6
       1      16.18481182
       2       0.71566632     1.30937265
       3       0.81812419    -0.00413747     0.14120792
       4       0.05090533     0.07849232     0.00438962     0.00872570
       5       0.02244239     0.00747318     0.00566492     0.00076451     0.00088258
       6      -0.00505377    -0.00007717     0.00074562     0.00055340     0.00002048     0.00011654
    ==== End of matrix output ====

 DIIS C vector; C2DIIS = F, LAMBDA = -3.59D-05
    0.000774    0.006868   -0.010026   -0.131934    0.117922    1.016395
* Read MO coefficients from SIRIUS.RST with label "NEWORB  " and header info:  7Dec18  DIIS   6
      Virial theorem: -V/T =      2.003100
@      MULPOP N      -0.38; H       0.29; H       0.28; H       0.28; H       0.32; O      -0.63; O      -0.69; O      -0.66; O      -0.64; H       0.33; 
@             H       0.36; H       0.33; H       0.41; H       0.37; H       0.34; H       0.34; H       0.35; 

 DIIS Fock eigenvalues in symmetry 1
      -20.67113      -20.64830      -20.61879      -20.61102      -15.71595
       -1.44949       -1.42590       -1.39814       -1.38309       -1.33187
       -0.82355       -0.80113       -0.79841       -0.78997       -0.78079
       -0.74657       -0.73933       -0.70113       -0.65981       -0.64964
       -0.62826       -0.61732       -0.60123       -0.56719       -0.56220
       -0.00005        0.05560        0.08952        0.11599        0.13709
        0.16929        0.17647        0.19391        0.21440        0.23840
        0.26578        0.28358        0.30322        0.34050        0.35962
        0.39209        0.45903        0.48828        0.50493        0.52020
        0.52624        0.55268        0.56599        0.59306        0.62077
        0.82948        0.83440        0.86457        0.87240        0.90385
        0.93942        0.95973        0.99307        1.00054        1.02385
        1.03285        1.06297        1.06949        1.08161        1.11626
        1.15280        1.18468        1.19929        1.28574        1.32484
        1.35232        1.36817        1.39625        1.41588        1.42209
        1.46352        1.47567        1.48236        1.52353        1.56164
        1.59333        1.62443        1.63930        1.65792        1.69154
        1.73656        1.79166        1.81716        1.84260        1.84911
        1.89049        2.01888        2.07205        2.09839        2.13030
        2.15250        2.16952        2.17330        2.26082        2.26255
        2.29209        2.30284        2.30724        2.36056        2.37217
        2.49076        2.55439        2.59593        2.60245        2.62650
        2.64890        2.68331        2.71248        2.72058        2.75374
        2.78878        2.79390        2.90902        2.96312        3.16141
        3.23117        3.26062        3.33544        3.36178        3.38494
        3.41758        3.41831        3.43643        3.47362        3.48926
        3.51385        3.55152        3.56530        3.60283        3.62025
        3.89568        3.93648        3.94188        3.95035        4.10953
        4.12891        4.16484        4.19317        4.98362        5.08716
        5.22512        5.26785        5.32861        5.34164        5.39365
        5.70811        5.72936        5.75852        5.80286        5.97683
        6.01683        6.02139        6.04759       36.91853       51.40706
       51.44447       51.46272       51.46654
 Time used in FCKEIG, thr_jaco:   2.20D-02  9.60D-02  4.59D-07
 CPU and wall times used in FCKEIG, THR_FCKEIG:   2.20D-02  9.60D-02  1.08D-04
 -----------------------------------------------------------------------------

 *** DIIS iteration number    7
 RDSUPM called. NFMAT, ISYMDM(1:NFMAT)                     1
                     1

 ITDIIS, energy, error norm, change in energy, scr.thr., difden:
@ DIIS iter.   7    -361.242405576        2.26899D-03   -1.28D-05  -20    F

 (DIIS_RED) Control Parameters C2DIIS =         F NEVC =    7


 (DIIS_RED) B matrix:

               Column   1     Column   2     Column   3     Column   4     Column   5     Column   6
       1      16.18481182
       2       0.71566632     1.30937265
       3       0.81812419    -0.00413747     0.14120792
       4       0.05090533     0.07849232     0.00438962     0.00872570
       5       0.02244239     0.00747318     0.00566492     0.00076451     0.00088258
       6      -0.00505377    -0.00007717     0.00074562     0.00055340     0.00002048     0.00011654
       7       0.00027172     0.00021284    -0.00000501     0.00000853     0.00004701     0.00000137

               Column   7
       7       0.00000515
    ==== End of matrix output ====

 DIIS C vector; C2DIIS = F, LAMBDA = -1.14D-06
   -0.000244   -0.000937    0.005630    0.024573   -0.103763   -0.150261    1.225002
* Read MO coefficients from SIRIUS.RST with label "NEWORB  " and header info:  7Dec18  DIIS   7
      Virial theorem: -V/T =      2.003039
@      MULPOP N      -0.38; H       0.29; H       0.28; H       0.28; H       0.32; O      -0.63; O      -0.69; O      -0.67; O      -0.64; H       0.33; 
@             H       0.36; H       0.33; H       0.41; H       0.37; H       0.34; H       0.34; H       0.35; 

 DIIS Fock eigenvalues in symmetry 1
      -20.67084      -20.64806      -20.61852      -20.61069      -15.71550
       -1.44933       -1.42577       -1.39801       -1.38293       -1.33164
       -0.82337       -0.80101       -0.79830       -0.78978       -0.78061
       -0.74649       -0.73922       -0.70109       -0.65976       -0.64962
       -0.62820       -0.61714       -0.60104       -0.56698       -0.56198
       -0.00005        0.05567        0.08956        0.11604        0.13713
        0.16932        0.17651        0.19398        0.21444        0.23845
        0.26587        0.28366        0.30332        0.34062        0.35975
        0.39224        0.45909        0.48834        0.50498        0.52025
        0.52630        0.55273        0.56603        0.59312        0.62089
        0.82963        0.83455        0.86471        0.87249        0.90397
        0.93953        0.95985        0.99318        1.00065        1.02396
        1.03296        1.06306        1.06959        1.08172        1.11633
        1.15293        1.18484        1.19943        1.28585        1.32496
        1.35244        1.36825        1.39633        1.41592        1.42212
        1.46355        1.47570        1.48242        1.52358        1.56173
        1.59343        1.62450        1.63936        1.65800        1.69163
        1.73669        1.79171        1.81722        1.84267        1.84913
        1.89049        2.01902        2.07217        2.09846        2.13042
        2.15253        2.16958        2.17334        2.26089        2.26263
        2.29218        2.30291        2.30735        2.36066        2.37229
        2.49086        2.55448        2.59598        2.60252        2.62657
        2.64898        2.68339        2.71252        2.72063        2.75381
        2.78880        2.79391        2.90921        2.96334        3.16159
        3.23138        3.26083        3.33564        3.36193        3.38509
        3.41771        3.41845        3.43660        3.47376        3.48941
        3.51404        3.55165        3.56544        3.60300        3.62038
        3.89581        3.93662        3.94201        3.95048        4.10968
        4.12907        4.16501        4.19332        4.98391        5.08745
        5.22541        5.26804        5.32885        5.34184        5.39384
        5.70829        5.72953        5.75872        5.80303        5.97701
        6.01702        6.02156        6.04775       36.91897       51.40734
       51.44471       51.46301       51.46684
 Time used in FCKEIG, thr_jaco:   2.30D-02  9.10D-02  9.66D-08
 CPU and wall times used in FCKEIG, THR_FCKEIG:   2.30D-02  9.10D-02  2.27D-05
 -----------------------------------------------------------------------------

 *** DIIS iteration number    8
 RDSUPM called. NFMAT, ISYMDM(1:NFMAT)                     1
                     1

 ITDIIS, energy, error norm, change in energy, scr.thr., difden:
@ DIIS iter.   8    -361.242406165        3.49979D-04   -5.89D-07  -20    F

 (DIIS_RED) Control Parameters C2DIIS =         F NEVC =    8


 (DIIS_RED) B matrix:

               Column   1     Column   2     Column   3     Column   4     Column   5     Column   6
       1      16.18481182
       2       0.71566632     1.30937265
       3       0.81812419    -0.00413747     0.14120792
       4       0.05090533     0.07849232     0.00438962     0.00872570
       5       0.02244239     0.00747318     0.00566492     0.00076451     0.00088258
       6      -0.00505377    -0.00007717     0.00074562     0.00055340     0.00002048     0.00011654
       7       0.00027172     0.00021284    -0.00000501     0.00000853     0.00004701     0.00000137
       8       0.00009874    -0.00004310     0.00000716     0.00000208     0.00000008     0.00000159

               Column   7     Column   8
       7       0.00000515
       8       0.00000034     0.00000012
    ==== End of matrix output ====

 DIIS C vector; C2DIIS = F, LAMBDA = -4.93D-08
    0.000026    0.000129   -0.001081   -0.003169    0.023213    0.005584   -0.290366    1.265664
* Read MO coefficients from SIRIUS.RST with label "NEWORB  " and header info:  7Dec18  DIIS   8
      Virial theorem: -V/T =      2.003055
@      MULPOP N      -0.38; H       0.29; H       0.28; H       0.28; H       0.32; O      -0.63; O      -0.69; O      -0.67; O      -0.64; H       0.33; 
@             H       0.36; H       0.34; H       0.41; H       0.37; H       0.34; H       0.34; H       0.35; 

 DIIS Fock eigenvalues in symmetry 1
      -20.67085      -20.64802      -20.61854      -20.61073      -15.71553
       -1.44933       -1.42575       -1.39801       -1.38294       -1.33165
       -0.82337       -0.80100       -0.79829       -0.78979       -0.78061
       -0.74649       -0.73923       -0.70111       -0.65977       -0.64965
       -0.62823       -0.61714       -0.60103       -0.56698       -0.56199
       -0.00005        0.05567        0.08956        0.11604        0.13713
        0.16932        0.17651        0.19398        0.21444        0.23844
        0.26587        0.28365        0.30331        0.34062        0.35975
        0.39223        0.45910        0.48834        0.50499        0.52025
        0.52630        0.55273        0.56602        0.59312        0.62088
        0.82962        0.83455        0.86471        0.87249        0.90397
        0.93952        0.95984        0.99318        1.00066        1.02396
        1.03296        1.06306        1.06958        1.08171        1.11632
        1.15292        1.18483        1.19942        1.28585        1.32496
        1.35244        1.36824        1.39632        1.41592        1.42212
        1.46354        1.47569        1.48241        1.52358        1.56172
        1.59342        1.62450        1.63935        1.65799        1.69163
        1.73668        1.79171        1.81722        1.84266        1.84913
        1.89049        2.01901        2.07217        2.09846        2.13042
        2.15252        2.16958        2.17333        2.26089        2.26263
        2.29217        2.30290        2.30734        2.36065        2.37228
        2.49085        2.55448        2.59597        2.60252        2.62657
        2.64898        2.68338        2.71251        2.72063        2.75381
        2.78880        2.79390        2.90920        2.96333        3.16158
        3.23136        3.26082        3.33563        3.36193        3.38509
        3.41769        3.41845        3.43658        3.47374        3.48942
        3.51402        3.55166        3.56544        3.60298        3.62037
        3.89581        3.93660        3.94201        3.95046        4.10969
        4.12906        4.16499        4.19331        4.98389        5.08743
[...]
 | 1 1 1 1 |  28   1   7   1 |      856        1 |       365941 |   -0.065227  |
 | 1 1 1 1 |  31   1   7   1 |      859        1 |       368512 |   -0.081087  |
 | 1 1 1 1 |  12   1  10   1 |     1254        1 |       785632 |   -0.078401  |
 | 1 1 1 1 |  13   1  10   1 |     1255        1 |       786886 |   -0.078975  |
 | 1 1 1 1 |  28   1  10   1 |     1270        1 |       805816 |   -0.127136  |
 | 1 1 1 1 |  11   1  11   1 |     1391        1 |       966746 |   -0.122887  |
 | 1 1 1 1 |  26   1  11   1 |     1406        1 |       987716 |    0.078484  |
 | 1 1 1 1 |  27   1  11   1 |     1407        1 |       989122 |    0.132804  |
 +=============================================================================+


          Norm of Printed Amplitude Vector :             0.8400

          Printed all single excitations greater than 0.381656

          Printed all double excitations greater than 0.064603



+======================================================================+
| contributions of excitation levels to right eigenvectors as computed |
| from the (RE|RE) self overlap                                        |
+----------------------------------------------------------------------+
| sym | multi | state |    E / eV  | % singles | % doubles | % triples |
+======================================================================+
|    1|   1   |   1   |  411.51441 |  88.1609  |  11.8391  |   0.0000  |
+======================================================================+





+======================================================================+
| contributions of excitation levels to excited states as computed     |
| from the (LE|RE) overlap                                             |
+----------------------------------------------------------------------+
| sym | multi | state |    E / eV  | % singles | % doubles | % triples |
+======================================================================+
|    1|   1   |   1   |  411.51441 |  79.1115  |  20.8885  |   0.0000  |
+======================================================================+



 --------------------------
 Symmetry class Nr.:     1
 Multiplicity      :     3
 --------------------------

 Length of Excitation vectors in this class is:   8404200
 No Excitation Energies calculated in this symmetry class
     

   *******************************************************************
   *                                                                 *
   *--------   OUTPUT FROM PROPERTY AND SYMMETRY ANALYSIS   ---------*
   *                                                                 *
   *******************************************************************



                         +-------------------------------+
                         ! REQUESTED PROPERTY OPERATORS: !
                         +-------------------------------+

             Index   Oper. Label  Symmetry  Transp.  PDBS  Atom
             --------------------------------------------------
                1     HAM0            1        1      T      0
                2     XDIPLEN         1        1      F      0
                3     YDIPLEN         1        1      F      0
                4     ZDIPLEN         1        1      F      0
             --------------------------------------------------




                         +-------------------------------+
                         ! REQUESTED EXPECTATION VALUES: !
                         +-------------------------------+

                       Index   Oper. Label  Symmetry
                       -----------------------------
                       -----------------------------




                       +------------------------------------+
                       ! REQUESTED EFFECTIVE FOCK MATRICES: !
                       +------------------------------------+

                       Index   Oper. Label  Symmetry
                       -----------------------------
                       -----------------------------




                        +----------------------------------+
                        ! REQUESTED FIRST ORDER M-VECTORS: !
                        +----------------------------------+

               Index   State Symmetry  Frequency
               --------------------------------------------------
                  1             1    1     1.512288D+01
               --------------------------------------------------


      

    *******************************************************************
    *          SOLVING COUPLED CLUSTER RESPONSE EQUATIONS             *
    *******************************************************************



 
 +======================================================================+
 !                     RHS & ETA VECTORS TO COMPUTE:                    !
 +======================================================================+
 | TYPE | # VEC. |  NEEDED FOR:                                         |
 +----------------------------------------------------------------------+
 +======================================================================+



 +======================================================================+
 !                       LINEAR EQUATIONS TO SOLVE:                     !
 +======================================================================+
 | TYPE | # VEC. |  EQUATION:                                           |
 +----------------------------------------------------------------------+
 |  M1  |    1   |  first-order ground - excited state multipliers      |
 +======================================================================+



 +======================================================================+
 !                F MATRIX TRANSFORMATIONS TO COMPUTE:                  !
 +======================================================================+
 | TYPE | # VEC. |  TRANSFORMED:                                        |
 +----------------------------------------------------------------------+
 |  FR  |    1   |  right eigenvectors (RE)                             |
 +======================================================================+





 Testing R1 list: 

 List nr.  Label     Symmetry      Frequency      T1-norm        T2-norm


 Testing L1 list: 

 List nr.  Label     Symmetry      Frequency      T1-norm        T2-norm
  Solvent 1-order response equations converged in                     0 
  solvent iterations
 SONIAPRI                     0
 CCEQ_STR: CVSEPARATION =  T
 CCEQ_STR: IONIZATION =  T
 CCEQ_STR: REMOVE_CORE =  F
 could not find required file CCM1_1___1
 IOPTSV is    33 ... program continues nevertheless.
 Vector nr.  1 of type M1  and symmetry  1 was not found on file.
     M1  start vector nr.  1 of symmetry  1 generated from gradient
 CCEQ_STR: freeze VALENCE OR VIRT
 CCEQ_SOL: CVSEPARA=     T
 CCEQ_SOL: LIONISAT=     T
 CCEQ_SOL: REMOVE_CORE =  F



 ----- COUPLED CLUSTER RESPONSE SOLVER -----

    Iter  #Vectors  time (min)   residual
    --------------------------------------
 CCRED CVS/IONIS sigma_                     1 
 project out valence occupied or virtual
      1       1         1.49     0.21E+01
 CCRED CVS/IONIS sigma_                     2 
 project out valence occupied or virtual
      2       1         1.49     0.38E+00
 CCRED CVS/IONIS sigma_                     3 
 project out valence occupied or virtual
      3       1         1.49     0.49E-01
 CCRED CVS/IONIS sigma_                     4 
 project out valence occupied or virtual
                    -1  vectors with norm le:  1.000000000000000E-035  REMOVED

 CCORT,**WARNING**  number vectors added is zero after check for vector norm , NBADD :    0

 CCORT, number vectors added is zero , NBADD :    0

 CCORT, number vectors added is zero , NBADD :    0

 CCORT, number vectors added is zero , NBADD :    0

 CCORT, number vectors added is zero , NBADD :    0

 *** MICROITERATIONS STOPPED DUE TO LINEAR DEPENDENCE BETWEEN ALL NEW TRIAL VECTORS
                     0  trial vectors converged
  LINEAR DEPENDENCE BETWEEN                     1  NON CONVERGED TRIAL VECTORS
      4       1         1.49     0.52E-02

 ***  CCEQ_SOL -MICROITERATIONS STOPPED  
     LINEAR DEPENDENCE BETWEEN ALL NEW TRIAL VECTORS
    --------------------------------------
    converged in  4 iterations
    threshold:    0.10E-08


         Routine          Time (min)
         ---------------------------
         CC_TRDRV            5.95
         CCRED               0.03
         CCNEX               0.05
         ---------------------------
         Total time          6.02


  Total CPU  time used in CCEQ_SOLV:  6 minutes  1 second 
  Total wall time used in CCEQ_SOLV:  9 minutes  0 seconds


 xxxxxxxxxxxxxxxxxxxxxxxxxxxxxxxxxxxxx

 
 Solution of CC response equations completed.
 

 *******************************************************************
 *                                                                 *
 *--------  OUTPUT FROM COUPLED CLUSTER LINEAR RESPONSE   ---------*
 *                                                                 *
 *--------      CALCULATION OF SECOND ORDER RESIDUES      ---------*
 *                                                                 *
 *******************************************************************



                  +---------------------------------------------+
                  ! CC_SOPR: Calculation of CCSD       Residues !
                  +---------------------------------------------+

 Doing the Mf*CsiA
 Doing the Mf*CsiA
 Doing the Mf*CsiA


 CCSD  Right transition moments in atomic units:
 -----------------------------------------------

  1      15.122877  <XDIPLEN |f> =       0.00000005
  1      15.122877  <YDIPLEN |f> =      -0.00000003
  1      15.122877  <ZDIPLEN |f> =       0.00000002


 CCSD  Left  transition moments in atomic units:
 -----------------------------------------------

  1      15.122877  <f|XDIPLEN > =       0.00000002
  1      15.122877  <f|YDIPLEN > =      -0.00000001
  1      15.122877  <f|ZDIPLEN > =       0.00000001


 CCSD  linear response residue property in atomic units:
 -------------------------------------------------------

 RES{<<XDIPLEN ,XDIPLEN >>(15.122877)} =     0.00000000 (   0.00000004)
 RES{<<XDIPLEN ,YDIPLEN >>(15.122877)} =    -0.00000000 (  -0.00000003)
 RES{<<XDIPLEN ,ZDIPLEN >>(15.122877)} =     0.00000000 (   0.00000002)
 RES{<<YDIPLEN ,XDIPLEN >>(15.122877)} =    -0.00000000 (  -0.00000003)
 RES{<<YDIPLEN ,YDIPLEN >>(15.122877)} =     0.00000000 (   0.00000002)
 RES{<<YDIPLEN ,ZDIPLEN >>(15.122877)} =    -0.00000000 (  -0.00000001)
 RES{<<ZDIPLEN ,XDIPLEN >>(15.122877)} =     0.00000000 (   0.00000002)
 RES{<<ZDIPLEN ,YDIPLEN >>(15.122877)} =    -0.00000000 (  -0.00000001)
 RES{<<ZDIPLEN ,ZDIPLEN >>(15.122877)} =     0.00000000 (   0.00000001)


 CCSD  Transition strength matrix for state nr.  1 of symmetry 1
 CCSD  excitation energy:15.12287689

 Gauge: length

               Column   1     Column   2     Column   3
       1     1.349747D-15  -6.998247D-16   3.842749D-16
       2    -6.998247D-16   3.628404D-16  -1.992395D-16
       3     3.842749D-16  -1.992395D-16   1.094033D-16
    ==== End of matrix output ====

 Principal values of diagonalized transition strength matrix:

             a.u.               
 1       0.00000000
 2       0.00000000
 3       0.00000000

 Principal axis of diagonalized transition strength matrix:


               Column   1     Column   2     Column   3
       1       1.00000000     0.00000000     0.00000000
       2       0.00000000     1.00000000     0.00000000
       3       0.00000000     0.00000000     1.00000000
    ==== End of matrix output ====


 CCSD   oscillator strength matrix for state nr.  1 of symmetry 1
 CCSD  excitation energy:15.12287689


               Column   1     Column   2     Column   3
       1     1.360803D-14  -7.055575D-15   3.874228D-15
       2    -7.055575D-15   3.658127D-15  -2.008716D-15
       3     3.874228D-15  -2.008716D-15   1.102995D-15
    ==== End of matrix output ====

 Principal values of diagonalized oscillator strength matrix:

             a.u.               
 1       0.00000000
 2       0.00000000
 3       0.00000000

 Principal axis of diagonalized oscillator strength matrix:


               Column   1     Column   2     Column   3
       1       1.00000000     0.00000000     0.00000000
       2       0.00000000     1.00000000     0.00000000
       3       0.00000000     0.00000000     1.00000000
    ==== End of matrix output ====

  Total time for      9 linear response residues:       3.06 seconds.
  

 *******************************************************************************
 *******************************************************************************
 *                                                                             *
 *                                                                             *
 *                   SUMMARY OF COUPLED CLUSTER CALCULATION                    *
 *                                                                             *
 *                                                                             *
 *******************************************************************************
 *******************************************************************************

                                                                                
                                                                                
            Total SCF   energy:                  -361.2424061831                
            Total MP2   energy:                  -362.3501562988                
            Total CCSD  energy:                  -362.3908863797                
                                                                                
                                                                                
            Total SCF   energy:                  -361.2424061831                
            Total RSTAR energy:                  -362.3908863797                
            Total CCSD  energy:                  -362.3910144841                
                                                                                
                                                                                
            Total SCF   energy:                  -361.2424061831                
            Total RSTAR energy:                  -362.3910144841                
            Total CCSD  energy:                  -362.3910145422                
                                                                                
                                                                                
            Total SCF   energy:                  -361.2424061831                
            Total RSTAR energy:                  -362.3910145422                
            Total CCSD  energy:                  -362.3910146259                
                                                                                
                                                                                
            Total SCF   energy:                  -361.2424061831                
            Total RSTAR energy:                  -362.3910146259                
            Total CCSD  energy:                  -362.3910146263                
                                                                                
                                                                                
            Total SCF   energy:                  -361.2424061831                
            Total RSTAR energy:                  -362.3910146263                
            Total CCSD  energy:                  -362.3910146264                
            CCSD Total  energy:                  -362.8470330204                
            CCSD E(QM/MM)     :                    -0.4517942527                
                                                                                
                                                                                
                                                                                
 +=============================================================================+
 |  sym. | Exci.  |        CCSD       Excitation energies            | ||T1||  |
 |(spin, |        +------------------------------------------------------------+
 | spat) |        |     Hartree    |       eV.      |     cm-1       |    %    |
 +=============================================================================+
 | ^1A   |    1   |    15.1228769  |     411.51441  |   3319087.801  |  88.16  |
 +=============================================================================+
                                                                                
                                                                                
     Total energies in Hartree:                                                 
             1 ^1A       -347.2723618744                                        
                                                                                
                                                                                
 +=============================================================================+
 |  sym. | Exci.  |        CCSD       Length   Gauge Oscillator Strength       |
 |(spin, |        +------------------------------------------------------------+
 | spat) |        | Dipole Strength(a.u.) | Oscillator strength  | Direction   |
 +=============================================================================+
 | ^1A   |    1   |        0.0000000      |      0.0000000       |    -        |
 +=============================================================================+

  1 a.u. =        27.21138 eV.  
  1 a.u. =    219474.62934 cm-1.
  

 *******************************************************************************
 *******************************************************************************
 *                                                                             *
 *                                                                             *
 *                      END OF COUPLED CLUSTER CALCULATION                     *
 *                                                                             *
 *                                                                             *
 *******************************************************************************
 *******************************************************************************


 CPU and wall time for CC :    6675.072   10737.446

 
     Date and time (Linux)  : Fri Dec  7 22:48:25 2018
     Host name              : n-62-23-12                              


                      .-------------------------------------.
                      | End of Coupled Cluster Section (CC) |
                      `-------------------------------------'

  Total CPU  time used in DALTON:   1 hour  53 minutes 24 seconds
  Total wall time used in DALTON:   3 hours  6 minutes 16 seconds

 
     Date and time (Linux)  : Fri Dec  7 22:48:26 2018
     Host name              : n-62-23-12                              
  

 +---------------------------------------------------------+ 
 | List of selected calculated molecular properties (a.u.) | 
 +---------------------------------------------------------+ 

  Properties are read from unit number                      4

 CCSD       properties :
 #  1 1 CCSD/MM  Ground state Energy =    -362.8470330204
 #  2 1 E_QM/MM  Ground state Energy =      -0.4517942527
 #  3 1 Sy: 1 Sp: 1 Exc:  1 E_tot:   -347.2723618744 w:     15.1228768934 E_grs:   -362.3952387677
 #  4 1 Exctot   Excited state Energy =    -347.2723618744
 #  5 1 |<O|XDIPLEN |i(15.122877)>| =     0.00000004
 #  7 1 |<O|YDIPLEN |i(15.122877)>| =     0.00000002
 #  9 1 |<O|ZDIPLEN |i(15.122877)>| =     0.00000001

 THE_END   
