

     ************************************************************************
     *************** Dalton - An Electronic Structure Program ***************
     ************************************************************************

    This is output from DALTON release Dalton2017.alpha (2016)
         ( Web site: http://daltonprogram.org )

   ----------------------------------------------------------------------------

    NOTE:
     
    Dalton is an experimental code for the evaluation of molecular
    properties using (MC)SCF, DFT, CI, and CC wave functions.
    The authors accept no responsibility for the performance of
    the code or for the correctness of the results.
     
    The code (in whole or part) is provided under a licence and
    is not to be reproduced for further distribution without
    the written permission of the authors or their representatives.
     
    See the home page "http://daltonprogram.org" for further information.
     
    If results obtained with this code are published,
    the appropriate citations would be both of:
     
       K. Aidas, C. Angeli, K. L. Bak, V. Bakken, R. Bast,
       L. Boman, O. Christiansen, R. Cimiraglia, S. Coriani,
       P. Dahle, E. K. Dalskov, U. Ekstroem,
       T. Enevoldsen, J. J. Eriksen, P. Ettenhuber, B. Fernandez,
       L. Ferrighi, H. Fliegl, L. Frediani, K. Hald, A. Halkier,
       C. Haettig, H. Heiberg, T. Helgaker, A. C. Hennum,
       H. Hettema, E. Hjertenaes, S. Hoest, I.-M. Hoeyvik,
       M. F. Iozzi, B. Jansik, H. J. Aa. Jensen, D. Jonsson,
       P. Joergensen, J. Kauczor, S. Kirpekar,
       T. Kjaergaard, W. Klopper, S. Knecht, R. Kobayashi, H. Koch,
       J. Kongsted, A. Krapp, K. Kristensen, A. Ligabue,
       O. B. Lutnaes, J. I. Melo, K. V. Mikkelsen, R. H. Myhre,
       C. Neiss, C. B. Nielsen, P. Norman, J. Olsen,
       J. M. H. Olsen, A. Osted, M. J. Packer, F. Pawlowski,
       T. B. Pedersen, P. F. Provasi, S. Reine, Z. Rinkevicius,
       T. A. Ruden, K. Ruud, V. Rybkin, P. Salek, C. C. M. Samson,
       A. Sanchez de Meras, T. Saue, S. P. A. Sauer,
       B. Schimmelpfennig, K. Sneskov, A. H. Steindal,
       K. O. Sylvester-Hvid, P. R. Taylor, A. M. Teale,
       E. I. Tellgren, D. P. Tew, A. J. Thorvaldsen, L. Thoegersen,
       O. Vahtras, M. A. Watson, D. J. D. Wilson, M. Ziolkowski
       and H. Agren,
       "The Dalton quantum chemistry program system",
       WIREs Comput. Mol. Sci. 2014, 4:269–284 (doi: 10.1002/wcms.1172)
     
    and
     
       Dalton, a Molecular Electronic Structure Program,
       Release Dalton2017.alpha (2016), see http://daltonprogram.org
   ----------------------------------------------------------------------------

    Authors in alphabetical order (major contribution(s) in parenthesis):

  Kestutis Aidas,           Vilnius University,           Lithuania   (QM/MM)
  Celestino Angeli,         University of Ferrara,        Italy       (NEVPT2)
  Keld L. Bak,              UNI-C,                        Denmark     (AOSOPPA, non-adiabatic coupling, magnetic properties)
  Vebjoern Bakken,          University of Oslo,           Norway      (DALTON; geometry optimizer, symmetry detection)
  Radovan Bast,             UiT The Arctic U. of Norway,  Norway      (DALTON installation and execution frameworks)
  Pablo Baudin,             University of Valencia,       Spain       (Cholesky excitation energies)
  Linus Boman,              NTNU,                         Norway      (Cholesky decomposition and subsystems)
  Ove Christiansen,         Aarhus University,            Denmark     (CC module)
  Renzo Cimiraglia,         University of Ferrara,        Italy       (NEVPT2)
  Sonia Coriani,            University of Trieste,        Italy       (CC module, MCD in RESPONS)
  Janusz Cukras,            University of Trieste,        Italy       (MChD in RESPONS)
  Paal Dahle,               University of Oslo,           Norway      (Parallelization)
  Erik K. Dalskov,          UNI-C,                        Denmark     (SOPPA)
  Thomas Enevoldsen,        Univ. of Southern Denmark,    Denmark     (SOPPA)
  Janus J. Eriksen,         Aarhus University,            Denmark     (Polarizable embedding model, TDA)
  Rasmus Faber,             University of Copenhagen,     Denmark     (Vib.avg. NMR with SOPPA, parallel AO-SOPPA)
  Berta Fernandez,          U. of Santiago de Compostela, Spain       (doublet spin, ESR in RESPONS)
  Lara Ferrighi,            Aarhus University,            Denmark     (PCM Cubic response)
  Heike Fliegl,             University of Oslo,           Norway      (CCSD(R12))
  Luca Frediani,            UiT The Arctic U. of Norway,  Norway      (PCM)
  Bin Gao,                  UiT The Arctic U. of Norway,  Norway      (Gen1Int library)
  Christof Haettig,         Ruhr-University Bochum,       Germany     (CC module)
  Kasper Hald,              Aarhus University,            Denmark     (CC module)
  Asger Halkier,            Aarhus University,            Denmark     (CC module)
  Frederik Beyer Hansen,    University of Copenhagen,     Denmark     (Parallel AO-SOPPA)
  Erik D. Hedegaard,        Univ. of Southern Denmark,    Denmark     (Polarizable embedding model, QM/MM)
  Hanne Heiberg,            University of Oslo,           Norway      (geometry analysis, selected one-electron integrals)
  Trygve Helgaker,          University of Oslo,           Norway      (DALTON; ABACUS, ERI, DFT modules, London, and much more)
  Alf Christian Hennum,     University of Oslo,           Norway      (Parity violation)
  Hinne Hettema,            University of Auckland,       New Zealand (quadratic response in RESPONS; SIRIUS supersymmetry)
  Eirik Hjertenaes,         NTNU,                         Norway      (Cholesky decomposition)
  Pi A. B. Haase,           University of Copenhagen,     Denmark     (Triplet AO-SOPPA)
  Maria Francesca Iozzi,    University of Oslo,           Norway      (RPA)
  Brano Jansik              Technical Univ. of Ostrava    Czech Rep.  (DFT cubic response)
  Hans Joergen Aa. Jensen,  Univ. of Southern Denmark,    Denmark     (DALTON; SIRIUS, RESPONS, ABACUS modules, London, and much more)
  Dan Jonsson,              UiT The Arctic U. of Norway,  Norway      (cubic response in RESPONS module)
  Poul Joergensen,          Aarhus University,            Denmark     (RESPONS, ABACUS, and CC modules)
  Maciej Kaminski,          University of Warsaw,         Poland      (CPPh in RESPONS)
  Joanna Kauczor,           Linkoeping University,        Sweden      (Complex polarization propagator (CPP) module)
  Sheela Kirpekar,          Univ. of Southern Denmark,    Denmark     (Mass-velocity & Darwin integrals)
  Wim Klopper,              KIT Karlsruhe,                Germany     (R12 code in CC, SIRIUS, and ABACUS modules)
  Stefan Knecht,            ETH Zurich,                   Switzerland (Parallel CI and MCSCF)
  Rika Kobayashi,           Australian National Univ.,    Australia   (DIIS in CC, London in MCSCF)
  Henrik Koch,              NTNU,                         Norway      (CC module, Cholesky decomposition)
  Jacob Kongsted,           Univ. of Southern Denmark,    Denmark     (Polarizable embedding model, QM/MM)
  Andrea Ligabue,           University of Modena,         Italy       (CTOCD, AOSOPPA)
  Nanna H. List             Univ. of Southern Denmark,    Denmark     (Polarizable embedding model)
  Ola B. Lutnaes,           University of Oslo,           Norway      (DFT Hessian)
  Juan I. Melo,             University of Buenos Aires,   Argentina   (LRESC, Relativistic Effects on NMR Shieldings)
  Kurt V. Mikkelsen,        University of Copenhagen,     Denmark     (MC-SCRF and QM/MM)
  Rolf H. Myhre,            NTNU,                         Norway      (Cholesky, subsystems and ECC2)
  Christian Neiss,          Univ. Erlangen-Nuernberg,     Germany     (CCSD(R12))
  Christian B. Nielsen,     University of Copenhagen,     Denmark     (QM/MM)
  Patrick Norman,           Linkoeping University,        Sweden      (Cubic response and complex frequency response in RESPONS)
  Jeppe Olsen,              Aarhus University,            Denmark     (SIRIUS CI/density modules)
  Jogvan Magnus H. Olsen,   Univ. of Southern Denmark,    Denmark     (Polarizable embedding model, QM/MM)
  Anders Osted,             Copenhagen University,        Denmark     (QM/MM)
  Martin J. Packer,         University of Sheffield,      UK          (SOPPA)
  Filip Pawlowski,          Kazimierz Wielki University,  Poland      (CC3)
  Morten N. Pedersen,       Univ. of Southern Denmark,    Denmark     (Polarizable embedding model)
  Thomas B. Pedersen,       University of Oslo,           Norway      (Cholesky decomposition)
  Patricio F. Provasi,      University of Northeastern,   Argentina   (Analysis of coupling constants in localized orbitals)
  Zilvinas Rinkevicius,     KTH Stockholm,                Sweden      (open-shell DFT, ESR)
  Elias Rudberg,            KTH Stockholm,                Sweden      (DFT grid and basis info)
  Torgeir A. Ruden,         University of Oslo,           Norway      (Numerical derivatives in ABACUS)
  Kenneth Ruud,             UiT The Arctic U. of Norway,  Norway      (DALTON; ABACUS magnetic properties and much more)
  Pawel Salek,              KTH Stockholm,                Sweden      (DALTON; DFT code)
  Claire C. M. Samson       University of Karlsruhe       Germany     (Boys localization, r12 integrals in ERI)
  Alfredo Sanchez de Meras, University of Valencia,       Spain       (CC module, Cholesky decomposition)
  Trond Saue,               Paul Sabatier University,     France      (direct Fock matrix construction)
  Stephan P. A. Sauer,      University of Copenhagen,     Denmark     (SOPPA(CCSD), SOPPA prop., AOSOPPA, vibrational g-factors)
  Bernd Schimmelpfennig,    Forschungszentrum Karlsruhe,  Germany     (AMFI module)
  Kristian Sneskov,         Aarhus University,            Denmark     (Polarizable embedding model, QM/MM)
  Arnfinn H. Steindal,      UiT The Arctic U. of Norway,  Norway      (parallel QM/MM, Polarizable embedding model)
  Casper Steinmann,         Univ. of Southern Denmark,    Denmark     (QFIT, Polarizable embedding model)
  K. O. Sylvester-Hvid,     University of Copenhagen,     Denmark     (MC-SCRF)
  Peter R. Taylor,          VLSCI/Univ. of Melbourne,     Australia   (Symmetry handling ABACUS, integral transformation)
  Andrew M. Teale,          University of Nottingham,     England     (DFT-AC, DFT-D)
  David P. Tew,             University of Bristol,        England     (CCSD(R12))
  Olav Vahtras,             KTH Stockholm,                Sweden      (triplet response, spin-orbit, ESR, TDDFT, open-shell DFT)
  David J. Wilson,          La Trobe University,          Australia   (DFT Hessian and DFT magnetizabilities)
  Hans Agren,               KTH Stockholm,                Sweden      (SIRIUS module, RESPONS, MC-SCRF solvation model)
 --------------------------------------------------------------------------------

     Date and time (Linux)  : Sun Dec  2 17:03:41 2018
     Host name              : n-62-23-21                              

 * Work memory size             :  1280000000 =  9.537 gigabytes.

 * Directories for basis set searches:
   1) /zhome/d7/7/119775/My_Codes/dalton-private/build2016/basis/diffs
   2) /zhome/37/3/129401/NH3NH4/CCSD/AIMD_SAMPLING/nh4_4h2o_nd
   3) /zhome/9a/4/124800/source/dalton/build-mlcc/basis


Compilation information
-----------------------

 Who compiled             | rfaber
 Host                     | hpclogin1
 System                   | Linux-2.6.32-696.1.1.el6.x86_64
 CMake generator          | Unix Makefiles
 Processor                | x86_64
 64-bit integers          | ON
 MPI                      | OFF
 Fortran compiler         | /opt/intel/2016update2/compilers_and_libraries_201
                          | 6.2.181/linux/bin/intel64/ifort
 Fortran compiler version | ifort (IFORT) 16.0.2 20160204
 C compiler               | /opt/intel/2016update2/compilers_and_libraries_201
                          | 6.2.181/linux/bin/intel64/icc
 C compiler version       | icc (ICC) 16.0.2 20160204
 C++ compiler             | /opt/intel/2016update2/compilers_and_libraries_201
                          | 6.2.181/linux/bin/intel64/icpc
 C++ compiler version     | icpc (ICC) 16.0.2 20160204
 Static linking           | OFF
 Last Git revision        | bb4d1599ca5680a9f3980451fc8bbefdba436d59
 Git branch               | mlcc
 Configuration time       | 2017-06-13 16:11:03.928841


   Content of the .dal input file
 ----------------------------------

**DALTON
.RUN WAVE FUNCTIONS
*QMMM
.QMMM
**INTEGRALS
.DIPLEN
**WAVE FUNCTIONS
.CC
*PRINT
!To check the origin of excit
.PRINTL
   0 11
*SCF INP
.THRESH
1.0D-7
!*ORBITAL INPUT
!.MOSTART
!NEWORB
*CC INP
!.RESTART
.CCSD
.THRLEQ
 1.0D-9
.THRENR
 1.0D-10
.FROIMP
4
0
.PRINT
 1
.MAX IT
 1200
.MAXRED
 1200
.MXLRV
1199
*CCSLV
.CCMM
.MXSLIT
200
.MXINIT
4 5
*CCEXCI
.NCCEXC
 1
.IONISATION
1
1
.CVSEPARA
1
1
*CCLRSD
.DIPOLE
**END OF DALTON INPUT


   Content of the .mol file
 ----------------------------

ATOMBASIS


Atomtypes=5 Charge=1 Nosymm Angstrom
   7.00000    1    Basis=6-311G**
N          0.000000        0.000000        0.000000
   1.00000    4    Basis=6-311G**
H          0.632034        0.750492       -0.398531
H          0.507056       -0.878054        0.189607
H         -0.717450       -0.195987       -0.759496
H         -0.534347        0.449551        0.931692
   8.00000    4    Basis=6-311G**
O         -2.027093       -0.324660       -2.046247
O          1.531338        2.372027       -0.456277
O         -1.632974        1.242660        1.787518
O          1.567547       -2.694416       -0.238226
   1.00000    8    Basis=6-311G**
H         -2.350848       -1.230945       -1.906545
H         -2.862594        0.196691       -2.013528
H          1.358084        3.273936       -0.734784
H          2.450656        2.181927       -0.949388
H         -1.158302        1.685042        2.574309
H         -1.914887        2.063100        1.244719
H          2.297513       -3.279757       -0.127923
H          0.792454       -3.276936       -0.420672
   0.00000    1    Basis=diffs
X          0.000000        0.000000        0.000000


       *******************************************************************
       *********** Output from DALTON general input processing ***********
       *******************************************************************

 --------------------------------------------------------------------------------
   Overall default print level:    0
   Print level for DALTON.STAT:    1

    HERMIT 1- and 2-electron integral sections will be executed
    "Old" integral transformation used (limited to max 255 basis functions)
    Wave function sections will be executed (SIRIUS module)
 --------------------------------------------------------------------------------


 Changes of defaults for *QMMM  :
 --------------------------------

 +------------------+
 |  WORD: | CHANGE: |
 +------------------+
 |   QMMM |       T |
 +------------------+
 


   ****************************************************************************
   *************** Output of molecule and basis set information ***************
   ****************************************************************************


    The two title cards from your ".mol" input:
    ------------------------------------------------------------------------
 1:                                                                         
 2:                                                                         
    ------------------------------------------------------------------------

  Coordinates are entered in Angstrom and converted to atomic units.
          - Conversion factor : 1 bohr = 0.52917721 A

  Atomic type no.    1
  --------------------
  Nuclear charge:   7.00000
  Number of symmetry independent centers:    1
  Number of basis sets to read;    2
  The basis set is "6-311G**" from the basis set library.
  Basis set file used for this atomic type with Z =   7 :
     "/zhome/9a/4/124800/source/dalton/build-mlcc/basis/6-311G**"

  Info about the basis set file: your basis has no documentation.
  Basis set: 6-311G**                                                                        

  Atomic type no.    2
  --------------------
  Nuclear charge:   1.00000
  Number of symmetry independent centers:    4
  Number of basis sets to read;    2
  The basis set is "6-311G**" from the basis set library.
  Basis set file used for this atomic type with Z =   1 :
     "/zhome/9a/4/124800/source/dalton/build-mlcc/basis/6-311G**"

  Info about the basis set file: your basis has no documentation.
  Basis set: 6-311G**                                                                        

  Atomic type no.    3
  --------------------
  Nuclear charge:   8.00000
  Number of symmetry independent centers:    4
  Number of basis sets to read;    2
  The basis set is "6-311G**" from the basis set library.
  Basis set file used for this atomic type with Z =   8 :
     "/zhome/9a/4/124800/source/dalton/build-mlcc/basis/6-311G**"

  Info about the basis set file: your basis has no documentation.
  Basis set: 6-311G**                                                                        

  Atomic type no.    4
  --------------------
  Nuclear charge:   1.00000
  Number of symmetry independent centers:    8
  Number of basis sets to read;    2
  The basis set is "6-311G**" from the basis set library.
  Basis set file used for this atomic type with Z =   1 :
     "/zhome/9a/4/124800/source/dalton/build-mlcc/basis/6-311G**"

  Info about the basis set file: your basis has no documentation.
  Basis set: 6-311G**                                                                        

  Atomic type no.    5
  --------------------
  Nuclear charge:   0.00000
  Number of symmetry independent centers:    1
  Number of basis sets to read;    2
  The basis set is "diffs" from the basis set library.
  Basis set file used for this atomic type with Z =   0 :
     "/zhome/9a/4/124800/source/dalton/build-mlcc/basis/diffs"

  Info about the basis set file: your basis has no documentation.
  Basis set: diffs                                                                           


                         SYMGRP: Point group information
                         -------------------------------

@    Point group: C1 


                                 Isotopic Masses
                                 ---------------

                           N          14.003074
                           H           1.007825
                           H           1.007825
                           H           1.007825
                           H           1.007825
                           O          15.994915
                           O          15.994915
                           O          15.994915
                           O          15.994915
                           H           1.007825
                           H           1.007825
                           H           1.007825
                           H           1.007825
                           H           1.007825
                           H           1.007825
                           H           1.007825
                           H           1.007825

                       Total mass:    90.076634 amu
                       Natural abundance:  98.500 %

 Center-of-mass coordinates (a.u.):   -0.220038    0.236632   -0.369986


  Atoms and basis sets
  --------------------

  Number of atom types :    5
  Total number of atoms:   18

  label    atoms   charge   prim   cont     basis
  ----------------------------------------------------------------------
  N           1    7.0000    31    18      [11s5p1d|4s3p1d]                                   
  H           4    1.0000     8     6      [5s1p|3s1p]                                        
  O           4    8.0000    31    18      [11s5p1d|4s3p1d]                                   
  H           8    1.0000     8     6      [5s1p|3s1p]                                        
  X           1    0.0000     1     1      [1s|1s]                                            
  ----------------------------------------------------------------------
  total:     18   51.0000   252   163
  ----------------------------------------------------------------------
  Spherical harmonic basis used.

  Threshold for neglecting AO integrals:  1.00D-12


  Cartesian Coordinates (a.u.)
  ----------------------------

  Total number of coordinates:   54
  N       :     1  x   0.0000000000    2  y   0.0000000000    3  z   0.0000000000
  H       :     4  x   1.1943711617    5  y   1.4182243390    6  z  -0.7531144423
  H       :     7  x   0.9581969700    8  y  -1.6592815830    9  z   0.3583053014
  H       :    10  x  -1.3557840084   11  y  -0.3703617541   12  z  -1.4352394330
  H       :    13  x  -1.0097694857   14  y   0.8495282692   15  z   1.7606427128
  O       :    16  x  -3.8306505999   17  y  -0.6135184837   18  z  -3.8668464141
  O       :    19  x   2.8938094248   20  y   4.4824813911   21  z  -0.8622385671
  O       :    22  x  -3.0858736292   23  y   2.3482870665   24  z   3.3779194635
  O       :    25  x   2.9622345181   26  y  -5.0917083068   27  z  -0.4501818959
  H       :    28  x  -4.4424588815   29  y  -2.3261489249   30  z  -3.6028478950
  H       :    31  x  -5.4095186670   32  y   0.3716921213   33  z  -3.8050164650
  H       :    34  x   2.5664068147   35  y   6.1868423908   36  z  -1.3885405210
  H       :    37  x   4.6310686666   38  y   4.1232444547   39  z  -1.7940833064
  H       :    40  x  -2.1888735500   41  y   3.1842678891   42  z   4.8647389711
  H       :    43  x  -3.6186119903   44  y   3.8986939685   45  z   2.3521780126
  H       :    46  x   4.3416703386   47  y  -6.1978424865   48  z  -0.2417394351
  H       :    49  x   1.4975210267   50  y  -6.1925115691   51  z  -0.7949548685
  X       :    52  x   0.0000000000   53  y   0.0000000000   54  z   0.0000000000

  Max    interatomic separation is    6.9408 Angstrom (   13.1162 Bohr)
  between atoms   16 and   15, "H     " and "H     ".

  Min HX interatomic separation is    0.9421 Angstrom (    1.7804 Bohr)

  Min YX interatomic separation is    2.7214 Angstrom (    5.1427 Bohr)


  Bond distances (Angstrom):
  --------------------------

                  atom 1     atom 2       distance
                  ------     ------       --------
  bond distance:  H          N            1.059024
  bond distance:  H          N            1.031521
  bond distance:  H          N            1.063005
  bond distance:  H          N            1.164334
  bond distance:  H          O            0.972464
  bond distance:  H          O            0.985363
  bond distance:  H          O            0.959699
  bond distance:  H          O            1.060397
  bond distance:  H          O            1.019831
  bond distance:  H          O            1.023341
  bond distance:  H          O            0.942147
  bond distance:  H          O            0.986603


  Bond angles (degrees):
  ----------------------

                  atom 1     atom 2     atom 3         angle
                  ------     ------     ------         -----
  bond angle:     H          N          H            112.274
  bond angle:     H          N          H            105.342
  bond angle:     H          N          H            107.542
  bond angle:     H          N          H            107.828
  bond angle:     H          N          H            114.027
  bond angle:     H          N          H            109.461
  bond angle:     H          O          H            101.890
  bond angle:     H          O          H            100.955
  bond angle:     H          O          H            100.933
  bond angle:     H          O          H            105.279




 Principal moments of inertia (u*A**2) and principal axes
 --------------------------------------------------------

   IA     329.692265         -0.349124    0.901875    0.254427
   IB     427.413275          0.928860    0.297189    0.221127
   IC     512.868942         -0.123816   -0.313528    0.941472


 Rotational constants
 --------------------

               A                   B                   C

           1532.8810           1182.4130            985.3960 MHz
            0.051131            0.039441            0.032869 cm-1


@  Nuclear repulsion energy :  196.333328472792 Hartree

  Number of floating/multiple basis set orbitals :    1


                     .---------------------------------------.
                     | Starting in Integral Section (HERMIT) |
                     `---------------------------------------'



 ***************************************************************************************
 ****************** Output from **INTEGRALS input processing (HERMIT) ******************
 ***************************************************************************************



    *************************************************************************
    ****************** Output from HERMIT input processing ******************
    *************************************************************************


 Default print level:        1

 * Nuclear model: Point charge

 Calculation of one- and two-electron Hamiltonian integrals.

 The following one-electron property integrals are calculated as requested:
          - overlap integrals
          - dipole length integrals

 Center of mass  (bohr):     -0.220037791753      0.236631911382     -0.369986333664
 Operator center (bohr):      0.000000000000      0.000000000000      0.000000000000
 Gauge origin    (bohr):      0.000000000000      0.000000000000      0.000000000000
 Dipole origin   (bohr):      0.000000000000      0.000000000000      0.000000000000
 
  *********************************** 
  QMMM electrostatic potential: 
  Multipole order                                    0
  Isotropic polarization  
  *********************************** 
 
  ---------------- 
  QMMM information 
  ---------------- 
 
  MM coordinates in au 
  -------------------- 
     1      0.714328      5.875323     -7.712093
     2      1.427382      4.136662     -7.475142
     3      2.195688      6.962533     -7.765584
     4     10.176557    -11.376370     11.572666
     5      9.474397     -9.745633     12.200803
     6      8.790154    -12.640888     11.763022
     7      5.684462      8.826280     -8.755725
     8      6.289065      9.803215     -7.266690
     9      6.656677      7.317057     -8.981180
    10      8.492204     10.105989     -4.318402
    11      9.099804      9.302513     -2.751471
    12     10.035049     10.775063     -5.104347
    13     -9.713257     -5.185454     -9.777362
    14     -8.369170     -6.080190    -10.711083
    15    -10.078501     -3.491605    -10.565232
    16    -10.221655     10.850535     -7.837048
    17    -11.386182     11.029158     -9.323523
    18     -9.737832     12.595344     -7.521915
    19     -1.360644     -8.008166     -0.853002
    20     -1.039215     -9.613513     -1.807417
    21     -2.589821     -8.446951      0.649841
    22      5.112835      0.993242     11.422535
    23      4.202305      0.557165     12.985790
    24      5.849171     -0.480616     10.764300
    25      5.818822     -9.658046      0.851503
    26      7.608491     -9.120771      0.423745
    27      5.746343     -9.958199      2.688946
    28     -2.110595      6.633079     11.227110
    29     -2.960487      4.953171     10.932334
    30     -1.254249      6.437636     12.922456
    31     -8.921486      2.202824     -3.450799
    32    -10.103906      2.439096     -2.157805
    33     -8.293362      3.858267     -3.960460
    34      8.605331     -6.752390    -10.009724
    35     10.219966     -6.130615     -9.290874
    36      7.526292     -7.305749     -8.479218
    37      2.317139      0.910222     -7.536309
    38      0.891493     -0.259089     -8.174815
    39      3.288579     -0.119126     -6.298625
    40     10.971345      1.039947     -6.794501
    41     11.706608      0.326773     -8.452492
    42     12.549790      1.400126     -5.769903
    43      9.580284     -4.066976     -4.923026
    44      7.692822     -3.530515     -5.007084
    45     10.560120     -2.502188     -4.965943
    46     11.115137      8.827207      0.385678
    47     11.924572     10.462796      0.250718
    48     10.059037      9.129777      1.875619
    49      6.235272    -10.135941      7.238483
    50      7.332041    -11.670646      6.972980
    51      4.842771    -10.862669      8.255444
    52     -2.916250      7.001399     -3.967582
    53     -1.743134      6.291374     -5.227107
    54     -4.623876      7.113944     -4.580766
    55     10.932944      3.458284      0.398103
    56     10.792991      2.675546      2.092067
    57     11.506017      5.135455      0.815744
    58     -1.109504    -10.731350     -9.165310
    59     -0.497676    -11.903765    -10.433580
    60     -2.905034    -11.174124     -9.156396
    61     -7.858003      1.763337      8.494948
    62     -6.252344      2.149811      9.504967
    63     -7.505920      0.354380      7.458500
    64     -6.408377     -1.591253      4.243501
    65     -5.449432     -0.099341      3.738455
    66     -5.082800     -2.431426      5.242023
    67     -9.326301     -7.944480     -5.840646
    68     -9.591702     -6.500533     -6.987191
    69    -10.735891     -7.873886     -4.531537
    70     -5.580985     10.347190    -11.093633
    71     -7.127051     10.074173     -9.879044
    72     -4.394596      8.807310    -11.290719
    73      9.060281     -2.088635      8.690380
    74      8.696453     -0.775572      7.446479
    75      9.283540     -3.675308      7.713522
    76     -3.223929     -5.426143      7.493505
    77     -4.658130     -6.167915      8.502585
    78     -1.874569     -5.405686      8.696512
    79      2.500675      9.842085     -0.089960
    80      3.891897     11.016489      0.289209
    81      1.830867     10.590097     -1.735547
    82     -1.778366     -1.625917     -9.319742
    83     -1.451198     -3.254456    -10.297496
    84     -2.992056     -1.706326     -7.895359
    85      4.486830      4.747536      4.273096
    86      3.973472      4.712712      2.560620
    87      2.895986      5.455592      4.963249
    88      4.488784     -5.395648     10.128913
    89      4.549487     -6.564653      8.652909
    90      6.152693     -5.323215     11.072733
    91      0.390550      0.158539      8.200926
    92      0.789892     -1.213212      7.009416
    93      2.071578      0.308220      9.221788
    94     -0.148720      5.920072      6.142107
    95     -0.533330      7.540646      5.396013
    96     -0.419124      6.154874      8.059431
    97     -8.685478     11.699740      3.282193
    98     -9.793012     12.352941      4.536639
    99     -7.989892     10.169429      4.144186
   100     -8.568738     -5.932765      1.565598
   101     -7.681844     -5.628780     -0.069555
   102     -8.086134     -4.486310      2.467039
   103     -6.872811     -8.283692     10.635258
   104     -8.320553     -8.638528      9.325058
   105     -6.108201     -9.826680     11.240681
   106      9.131795     -6.257199      5.259140
   107      7.754559     -7.359075      5.805282
   108      8.541332     -5.425188      3.680313
   109    -10.734225     -9.540212      7.239633
   110    -12.011400    -10.251881      8.497460
   111    -11.795459     -8.037946      6.739623
   112     -5.425171     -5.239610     -2.998565
   113     -4.078556     -6.516685     -2.642750
   114     -6.391914     -5.915232     -4.456976
   115      8.666617      1.756669      4.976376
   116      9.782693      2.786734      6.023646
   117      7.117128      2.765078      4.557209
   118      7.514212     -2.401044      2.145674
   119      8.089831     -1.380349      0.718948
   120      7.649050     -1.038151      3.516482
   121     -1.918359      9.931030      2.925181
   122     -0.209911     10.365807      2.238715
   123     -2.868406     11.557289      3.048041
   124      7.645172      2.594252     -3.169290
   125      8.792266      2.916567     -1.668617
   126      8.825544      2.097420     -4.571805
   127     -8.876590      5.508310      4.150876
   128     -7.532291      5.781419      2.815516
   129     -8.273013      3.967665      4.897339
   130     10.633636      5.392352      8.695159
   131     10.002543      5.174492     10.452933
   132     12.409896      5.465721      8.751804
   133      8.463645      4.442451    -10.111142
   134      7.308729      2.955405    -10.683228
   135      9.553327      3.483744     -8.758351
   136     -4.771804      6.269361      0.765492
   137     -4.089980      6.225147     -0.977102
   138     -3.766780      7.685270      1.858113
   139     -3.472281      1.817852     10.917320
   140     -2.040553      1.109020      9.833927
   141     -3.142067      0.858470     12.511083
   142      2.151389     -4.128670      5.106809
   143      2.875301     -4.542378      3.418987
   144      0.816137     -5.367669      5.257551
   145     -0.128522     -6.008951    -11.580478
   146     -0.486374     -7.634662    -10.582464
   147      1.683502     -5.659654    -11.613777
   148    -10.755193     -0.482453     11.738060
   149    -12.310604     -0.944364     10.686660
   150     -9.616289      0.382983     10.607146
   151      2.972346     10.255532     10.291962
   152      2.385001      8.760126      9.282401
   153      4.195889      9.467594     11.523745
   154      8.348557      8.668172      5.176126
   155      6.985673      7.462978      4.877198
   156      9.349696      7.730879      6.485158
   157      5.997864     -8.639285     -5.659031
   158      4.295954     -8.847331     -6.112228
   159      6.520806     -9.903805     -4.390966
   160     10.450847     -7.397061     -1.012168
   161      9.909136     -6.312154     -2.514095
   162     11.722041     -6.529259      0.000157
   163     -7.926725      7.682277     -4.286798
   164     -9.030202      8.215647     -5.617230
   165     -7.610366      9.306810     -3.337460
   166      4.712754     -1.831759     -4.088640
   167      4.314594     -3.041261     -2.710846
   168      5.618821     -0.288221     -3.328201
   169     -4.130182     -8.600563      3.412622
   170     -5.898778     -9.058684      3.552131
   171     -3.710608     -7.601937      4.968356
   172     -6.796294    -11.317160     -1.650277
   173     -7.730728    -10.093099     -2.579144
   174     -7.480152    -11.221260      0.146295
   175     -0.364120     11.381866     -3.888937
   176     -1.400399      9.817743     -3.673272
   177     -0.427957     11.672559     -5.712924
 
  MM charges 
  ---------- 
     1     -0.674440
     2      0.337220
     3      0.337220
     4     -0.674440
     5      0.337220
     6      0.337220
     7     -0.674440
     8      0.337220
     9      0.337220
    10     -0.674440
    11      0.337220
    12      0.337220
    13     -0.674440
    14      0.337220
    15      0.337220
    16     -0.674440
    17      0.337220
    18      0.337220
    19     -0.674440
    20      0.337220
    21      0.337220
    22     -0.674440
    23      0.337220
    24      0.337220
    25     -0.674440
    26      0.337220
    27      0.337220
    28     -0.674440
    29      0.337220
    30      0.337220
    31     -0.674440
    32      0.337220
    33      0.337220
    34     -0.674440
    35      0.337220
    36      0.337220
    37     -0.674440
    38      0.337220
    39      0.337220
    40     -0.674440
    41      0.337220
    42      0.337220
    43     -0.674440
    44      0.337220
    45      0.337220
    46     -0.674440
    47      0.337220
    48      0.337220
    49     -0.674440
    50      0.337220
    51      0.337220
    52     -0.674440
    53      0.337220
    54      0.337220
    55     -0.674440
    56      0.337220
    57      0.337220
    58     -0.674440
    59      0.337220
    60      0.337220
    61     -0.674440
    62      0.337220
    63      0.337220
    64     -0.674440
    65      0.337220
    66      0.337220
    67     -0.674440
    68      0.337220
    69      0.337220
    70     -0.674440
    71      0.337220
    72      0.337220
    73     -0.674440
    74      0.337220
    75      0.337220
    76     -0.674440
    77      0.337220
    78      0.337220
    79     -0.674440
    80      0.337220
    81      0.337220
    82     -0.674440
    83      0.337220
    84      0.337220
    85     -0.674440
    86      0.337220
    87      0.337220
    88     -0.674440
    89      0.337220
    90      0.337220
    91     -0.674440
    92      0.337220
    93      0.337220
    94     -0.674440
    95      0.337220
    96      0.337220
    97     -0.674440
    98      0.337220
    99      0.337220
   100     -0.674440
   101      0.337220
   102      0.337220
   103     -0.674440
   104      0.337220
   105      0.337220
   106     -0.674440
   107      0.337220
   108      0.337220
   109     -0.674440
   110      0.337220
   111      0.337220
   112     -0.674440
   113      0.337220
   114      0.337220
   115     -0.674440
   116      0.337220
   117      0.337220
   118     -0.674440
   119      0.337220
   120      0.337220
   121     -0.674440
   122      0.337220
   123      0.337220
   124     -0.674440
   125      0.337220
   126      0.337220
   127     -0.674440
   128      0.337220
   129      0.337220
   130     -0.674440
   131      0.337220
   132      0.337220
   133     -0.674440
   134      0.337220
   135      0.337220
   136     -0.674440
   137      0.337220
   138      0.337220
   139     -0.674440
   140      0.337220
   141      0.337220
   142     -0.674440
   143      0.337220
   144      0.337220
   145     -0.674440
   146      0.337220
   147      0.337220
   148     -0.674440
   149      0.337220
   150      0.337220
   151     -0.674440
   152      0.337220
   153      0.337220
   154     -0.674440
   155      0.337220
   156      0.337220
   157     -0.674440
   158      0.337220
   159      0.337220
   160     -0.674440
   161      0.337220
   162      0.337220
   163     -0.674440
   164      0.337220
   165      0.337220
   166     -0.674440
   167      0.337220
   168      0.337220
   169     -0.674440
   170      0.337220
   171      0.337220
   172     -0.674440
   173      0.337220
   174      0.337220
   175     -0.674440
   176      0.337220
   177      0.337220
 
  MM isotropic polarizabilities in au 
  ----------------------------------- 
     1      5.739350
     2      2.308390
     3      2.308390
     4      5.739350
     5      2.308390
     6      2.308390
     7      5.739350
     8      2.308390
     9      2.308390
    10      5.739350
    11      2.308390
    12      2.308390
    13      5.739350
    14      2.308390
    15      2.308390
    16      5.739350
    17      2.308390
    18      2.308390
    19      5.739350
    20      2.308390
    21      2.308390
    22      5.739350
    23      2.308390
    24      2.308390
    25      5.739350
    26      2.308390
    27      2.308390
    28      5.739350
    29      2.308390
    30      2.308390
    31      5.739350
    32      2.308390
    33      2.308390
    34      5.739350
    35      2.308390
    36      2.308390
    37      5.739350
    38      2.308390
    39      2.308390
    40      5.739350
    41      2.308390
    42      2.308390
    43      5.739350
    44      2.308390
    45      2.308390
    46      5.739350
    47      2.308390
    48      2.308390
    49      5.739350
    50      2.308390
    51      2.308390
    52      5.739350
    53      2.308390
    54      2.308390
    55      5.739350
    56      2.308390
    57      2.308390
    58      5.739350
    59      2.308390
    60      2.308390
    61      5.739350
    62      2.308390
    63      2.308390
    64      5.739350
    65      2.308390
    66      2.308390
    67      5.739350
    68      2.308390
    69      2.308390
    70      5.739350
    71      2.308390
    72      2.308390
    73      5.739350
    74      2.308390
    75      2.308390
    76      5.739350
    77      2.308390
    78      2.308390
    79      5.739350
    80      2.308390
    81      2.308390
    82      5.739350
    83      2.308390
    84      2.308390
    85      5.739350
    86      2.308390
    87      2.308390
    88      5.739350
    89      2.308390
    90      2.308390
    91      5.739350
    92      2.308390
    93      2.308390
    94      5.739350
    95      2.308390
    96      2.308390
    97      5.739350
    98      2.308390
    99      2.308390
   100      5.739350
   101      2.308390
   102      2.308390
   103      5.739350
   104      2.308390
   105      2.308390
   106      5.739350
   107      2.308390
   108      2.308390
   109      5.739350
   110      2.308390
   111      2.308390
   112      5.739350
   113      2.308390
   114      2.308390
   115      5.739350
   116      2.308390
   117      2.308390
   118      5.739350
   119      2.308390
   120      2.308390
   121      5.739350
   122      2.308390
   123      2.308390
   124      5.739350
   125      2.308390
   126      2.308390
   127      5.739350
   128      2.308390
   129      2.308390
   130      5.739350
   131      2.308390
   132      2.308390
   133      5.739350
   134      2.308390
   135      2.308390
   136      5.739350
   137      2.308390
   138      2.308390
   139      5.739350
   140      2.308390
   141      2.308390
   142      5.739350
   143      2.308390
   144      2.308390
   145      5.739350
   146      2.308390
   147      2.308390
   148      5.739350
   149      2.308390
   150      2.308390
   151      5.739350
   152      2.308390
   153      2.308390
   154      5.739350
   155      2.308390
   156      2.308390
   157      5.739350
   158      2.308390
   159      2.308390
   160      5.739350
   161      2.308390
   162      2.308390
   163      5.739350
   164      2.308390
   165      2.308390
   166      5.739350
   167      2.308390
   168      2.308390
   169      5.739350
   170      2.308390
   171      2.308390
   172      5.739350
   173      2.308390
   174      2.308390
   175      5.739350
   176      2.308390
   177      2.308390


     ************************************************************************
     ************************** Output from HERINT **************************
     ************************************************************************



                      Nuclear contribution to dipole moments
                      --------------------------------------

                 au               Debye          C m (/(10**-30)

      x    -11.31962389       -28.77161224       -95.97176804
      y     12.29068045        31.23979166       104.20472838
      z    -18.89045068       -48.01473326      -160.15991056



 Threshold for neglecting two-electron integrals:  1.00D-12
 HERMIT - Number of two-electron integrals written:    35878743 ( 40.2% )
 HERMIT - Megabytes written:                            410.828

  Time used in TWOINT     is       7.96 seconds
  Total CPU  time used in HERMIT:   8.14 seconds
  Total wall time used in HERMIT:   8.93 seconds


                        .----------------------------------.
                        | End of Integral Section (HERMIT) |
                        `----------------------------------'



                   .--------------------------------------------.
                   | Starting in Wave Function Section (SIRIUS) |
                   `--------------------------------------------'

NCCEXCI for singlet:    1
 CCSD_INPUT: core-val requested
 Requested number of virtual orbs per sym
                     1
 Indices of requested virtual orbs
                     1
 CCSD_INPUT: core-val requested
 Requested number of core orbs per sym
                     1
 Indices of requested core orbs
                     1

 *** Output from Huckel module :

     Using EWMO model:          T
     Using EHT  model:          F
     Number of Huckel orbitals each symmetry:   37

 EWMO - Energy Weighted Maximum Overlap - is a Huckel type method,
        which normally is better than Extended Huckel Theory.
 Reference: Linderberg and Ohrn, Propagators in Quantum Chemistry (Wiley, 1973)

 Huckel EWMO eigenvalues for symmetry :  1
          -20.684897     -20.684715     -20.684359     -20.684213     -15.674391
           -1.777431      -1.615415      -1.610938      -1.594236      -1.477064
           -0.820144      -0.804664      -0.793576      -0.773844      -0.761254
           -0.755062      -0.747870      -0.687300      -0.671345      -0.658250
           -0.646598      -0.615824      -0.590504      -0.568957      -0.546902
           -0.266335      -0.248601      -0.240491      -0.234588      -0.189252
           -0.189039      -0.180785      -0.175406      -0.169691      -0.156773
           -0.150195      -0.144890

 **********************************************************************
 *SIRIUS* a direct, restricted step, second order MCSCF program       *
 **********************************************************************

 
     Date and time (Linux)  : Sun Dec  2 17:03:50 2018
     Host name              : n-62-23-21                              

 Title lines from ".mol" input file:
                                                                             
                                                                             

 Print level on unit LUPRI =   2 is   0
 Print level on unit LUW4  =   2 is  11

@    (Integral direct) CC calculation.

@    This is a combination run starting with
@              a restricted, closed shell Hartree-Fock calculation


 Initial molecular orbitals are obtained according to
 ".MOSTART EWMO  " input option

@    QM part is embedded in an environment :

@         Model: QMMM

     Wave function specification
     ============================

     For the specification of the Coupled Cluster: see later.

@    Wave function type        --- CC ---
@    Number of closed shell electrons          50
@    Number of electrons in active shells       0
@    Total charge of the molecule               1

@    Spin multiplicity and 2 M_S                1         0
@    Total number of symmetries                 1 (point group: C1 )
@    Reference state symmetry                   1 (irrep name : A  )

     Orbital specifications
     ======================
@    Abelian symmetry species          All |    1
@                                          |  A  
                                       --- |  ---
@    Occupied SCF orbitals              25 |   25
@    Secondary orbitals                138 |  138
@    Total number of orbitals          163 |  163
@    Number of basis functions         163 |  163

     Optimization information
     ========================
@    Number of configurations                 1
@    Number of orbital rotations           3450
     ------------------------------------------
@    Total number of variables             3451

     Maximum number of Fock   iterations      0
     Maximum number of DIIS   iterations     60
     Maximum number of QC-SCF iterations     60
     Threshold for SCF convergence     1.00D-07


 Changes of defaults for CC:
 ---------------------------


 -Implicit frozen core calculation
 -Excitation energies calculated
 -One-photon absorption strengths will be calculated
 -Oscillator strengths calculated
  
* Read MO coefficients from SIRIUS.RST with label "NEWORB  " and header info:  2Dec18  REORTHO 


 ***********************************************
 ***** DIIS acceleration of SCF iterations *****
 ***********************************************

 C1-DIIS algorithm; max error vectors =    8
 -----------------------------------------------------------------------------

 *** DIIS iteration number    1
 RDSUPM called. NFMAT, ISYMDM(1:NFMAT)                     1
                     1

Calculating AOSUPINT
     (Precalculated two-electron integrals are transformed to P-supermatrix elements.
      Threshold for discarding integrals :  1.00D-12 )
  CPU  time used in FORMSUP    is   5.15 seconds
  WALL time used in FORMSUP    is  18.51 seconds

 ITDIIS, energy, error norm, change in energy, scr.thr., difden:
@ DIIS iter.   1    -360.267987176        3.94921D+00   -3.60D+02  -20    F

 (DIIS_RED) Control Parameters C2DIIS =         F NEVC =    1


 (DIIS_RED) B matrix:

               Column   1
       1      15.59623164
    ==== End of matrix output ====

 DIIS C vector; C2DIIS = F, LAMBDA = -1.56D+01
    1.000000
* Read MO coefficients from SIRIUS.RST with label "NEWORB  " and header info:  2Dec18  DIIS   1
      Virial theorem: -V/T =      2.003448
@      MULPOP N       0.09; H       0.16; H       0.15; H       0.16; H       0.19; O      -0.59; O      -0.57; O      -0.55; O      -0.59; H       0.33; 
@             H       0.32; H       0.31; H       0.32; H       0.32; H       0.32; H       0.30; H       0.32; 
   1  Level shift: doubly occupied orbital energies shifted by -2.00D-01

 DIIS Fock eigenvalues in symmetry 1
      -20.86224      -20.83894      -20.81894      -20.80003      -16.42075
       -1.69025       -1.66260       -1.65174       -1.63164       -1.62175
       -1.18346       -1.16292       -1.14882       -1.03878       -1.01017
       -0.99733       -0.99178       -0.91617       -0.90570       -0.88898
       -0.87377       -0.86675       -0.86404       -0.84477       -0.82391
       -0.00392       -0.00005        0.05659        0.06924        0.08606
        0.12017        0.15738        0.16746        0.17294        0.17823
        0.19528        0.20468        0.22824        0.24111        0.26276
        0.30055        0.41761        0.44466        0.45431        0.47636
        0.49066        0.49411        0.50219        0.53180        0.54037
        0.67492        0.70830        0.72323        0.82576        0.84523
        0.86283        0.89273        0.93143        0.94562        0.95636
        0.99500        1.00911        1.01985        1.03228        1.05070
        1.07440        1.08159        1.11169        1.24891        1.26797
        1.29041        1.31446        1.35746        1.37168        1.37395
        1.37776        1.38465        1.39468        1.40886        1.44688
        1.50658        1.52877        1.55586        1.56878        1.58084
        1.59888        1.67355        1.75085        1.78759        1.79954
        1.82560        1.91552        1.96418        2.01330        2.02518
        2.03577        2.10859        2.11387        2.12601        2.13322
        2.15824        2.22527        2.24235        2.25891        2.28088
        2.38645        2.46271        2.47354        2.51000        2.53188
        2.55618        2.56155        2.62558        2.64630        2.66027
        2.70478        2.72297        2.72810        2.78228        2.94648
        2.99996        3.03000        3.09104        3.29762        3.32082
        3.32356        3.37105        3.39303        3.40308        3.41827
        3.42544        3.47504        3.52364        3.57027        3.58676
        3.80723        3.83453        3.87454        3.88203        4.06370
        4.12458        4.14033        4.15810        4.59189        4.70172
        4.76242        5.19861        5.23467        5.27009        5.29163
        5.68300        5.68913        5.71593        5.79757        5.84163
        5.94299        6.00572        6.04568       36.33599       51.40847
       51.45465       51.46052       51.49432
 Time used in FCKEIG, thr_jaco:   4.60D-02  5.00D-02  1.68D-04
 CPU and wall times used in FCKEIG, THR_FCKEIG:   4.60D-02  5.00D-02  3.95D-02
 -----------------------------------------------------------------------------

 *** DIIS iteration number    2
 RDSUPM called. NFMAT, ISYMDM(1:NFMAT)                     1
                     1

 ITDIIS, energy, error norm, change in energy, scr.thr., difden:
@ DIIS iter.   2    -361.153438473        1.12281D+00   -8.85D-01  -20    F

 (DIIS_RED) Control Parameters C2DIIS =         F NEVC =    2


 (DIIS_RED) B matrix:

               Column   1     Column   2
       1      15.59623164
       2       0.83406286     1.26070246
    ==== End of matrix output ====

 DIIS C vector; C2DIIS = F, LAMBDA = -1.25D+00
    0.028089    0.971911
* Read MO coefficients from SIRIUS.RST with label "NEWORB  " and header info:  2Dec18  DIIS   2
      Virial theorem: -V/T =      2.002720
@      MULPOP N      -0.59; H       0.33; H       0.30; H       0.34; H       0.37; O      -0.56; O      -0.57; O      -0.60; O      -0.60; H       0.32; 
@             H       0.30; H       0.30; H       0.32; H       0.33; H       0.37; H       0.30; H       0.34; 
   2  Level shift: doubly occupied orbital energies shifted by -1.00D-01

 DIIS Fock eigenvalues in symmetry 1
      -20.79192      -20.77601      -20.75719      -20.74073      -15.63443
       -1.54236       -1.54048       -1.52643       -1.51067       -1.35788
       -0.90791       -0.88529       -0.88425       -0.87134       -0.86617
       -0.85627       -0.84548       -0.79413       -0.78548       -0.77134
       -0.75131       -0.73004       -0.72121       -0.70499       -0.68874
       -0.00005        0.06089        0.09864        0.11221        0.12826
        0.16447        0.18678        0.19587        0.21330        0.23836
        0.24361        0.26758        0.29670        0.34222        0.34951
        0.36539        0.45736        0.48224        0.50267        0.52857
        0.53223        0.53450        0.54631        0.58037        0.59643
        0.80292        0.84352        0.86429        0.87020        0.88922
        0.89591        0.93534        0.96969        0.98924        1.00382
        1.03161        1.04084        1.05666        1.07578        1.09688
        1.18277        1.19883        1.20354        1.29159        1.31519
        1.33914        1.36520        1.40827        1.43049        1.43291
        1.43634        1.43981        1.44894        1.46923        1.51406
        1.58555        1.60644        1.62920        1.66035        1.67390
        1.69035        1.75154        1.82353        1.84890        1.86037
        1.88958        2.01052        2.04982        2.07022        2.08210
        2.10610        2.16259        2.18380        2.21253        2.25528
        2.27221        2.29027        2.31078        2.33468        2.37474
        2.48519        2.52534        2.53591        2.61367        2.62929
        2.65311        2.67237        2.72675        2.75602        2.78119
        2.78326        2.79311        2.88980        2.94759        3.14971
        3.17774        3.27301        3.30872        3.32587        3.35627
        3.36174        3.42547        3.43881        3.45029        3.46194
        3.47353        3.50882        3.54783        3.61179        3.61524
        3.84006        3.85419        3.90718        3.91133        4.09324
        4.14417        4.17680        4.18426        4.95198        5.07498
        5.12892        5.22571        5.23484        5.29477        5.29703
        5.68552        5.70771        5.73362        5.80480        5.86535
        5.95229        6.02770        6.08247       37.00709       51.38076
       51.40066       51.44381       51.45591
 Time used in FCKEIG, thr_jaco:   3.20D-02  3.40D-02  4.78D-05
 CPU and wall times used in FCKEIG, THR_FCKEIG:   3.20D-02  3.40D-02  1.12D-02
 -----------------------------------------------------------------------------

 *** DIIS iteration number    3
 RDSUPM called. NFMAT, ISYMDM(1:NFMAT)                     1
                     1

 ITDIIS, energy, error norm, change in energy, scr.thr., difden:
@ DIIS iter.   3    -361.228628052        3.82193D-01   -7.52D-02  -20    F

 (DIIS_RED) Control Parameters C2DIIS =         F NEVC =    3


 (DIIS_RED) B matrix:

               Column   1     Column   2     Column   3
       1      15.59623164
       2       0.83406286     1.26070246
       3       0.79630497     0.00172480     0.14607136
    ==== End of matrix output ====

 DIIS C vector; C2DIIS = F, LAMBDA = -9.95D-02
   -0.047357    0.109006    0.938351
* Read MO coefficients from SIRIUS.RST with label "NEWORB  " and header info:  2Dec18  DIIS   3
      Virial theorem: -V/T =      2.003866
@      MULPOP N      -0.41; H       0.30; H       0.26; H       0.31; H       0.35; O      -0.62; O      -0.64; O      -0.68; O      -0.66; H       0.35; 
@             H       0.32; H       0.33; H       0.35; H       0.36; H       0.41; H       0.32; H       0.36; 
   3  Level shift: doubly occupied orbital energies shifted by -5.00D-02

 DIIS Fock eigenvalues in symmetry 1
      -20.69714      -20.68842      -20.68188      -20.65199      -15.79878
       -1.48269       -1.46921       -1.45714       -1.44307       -1.36195
       -0.85987       -0.83988       -0.83610       -0.83173       -0.81000
       -0.80091       -0.79399       -0.72885       -0.72172       -0.70836
       -0.68600       -0.66044       -0.64779       -0.64219       -0.61667
       -0.00005        0.06496        0.10321        0.11864        0.13373
        0.16598        0.19005        0.20067        0.21851        0.23987
        0.24900        0.26578        0.29675        0.33951        0.34709
        0.36694        0.46754        0.49086        0.51141        0.53695
        0.54013        0.54343        0.55400        0.59029        0.59927
        0.79323        0.83638        0.84825        0.87577        0.89886
        0.90829        0.94488        0.98407        1.00199        1.01401
        1.04040        1.05392        1.06921        1.08820        1.10866
        1.18232        1.19257        1.19900        1.29644        1.32739
        1.35246        1.37751        1.42006        1.44071        1.44176
        1.44762        1.45394        1.46244        1.48206        1.51971
        1.59261        1.61363        1.63767        1.66432        1.67750
        1.69456        1.75716        1.83150        1.85913        1.87026
        1.90048        2.01200        2.05566        2.08409        2.09695
        2.11188        2.17733        2.19663        2.22185        2.24411
        2.27175        2.30257        2.32379        2.34974        2.37808
        2.49043        2.53581        2.54745        2.61797        2.63416
        2.65882        2.67689        2.73090        2.76689        2.77942
        2.79287        2.80317        2.85507        2.92177        3.13394
        3.15725        3.23812        3.27727        3.34707        3.37594
        3.38427        3.44659        3.45592        3.46351        3.47836
        3.48578        3.53772        3.57534        3.62877        3.64111
        3.86639        3.87996        3.92759        3.93205        4.12291
        4.17239        4.19656        4.20906        4.87002        4.98828
        5.04842        5.24032        5.26479        5.32370        5.32707
        5.71725        5.73484        5.75787        5.83442        5.89950
        5.98489        6.05785        6.10131       36.79896       51.42556
       51.44472       51.46320       51.49479
 Time used in FCKEIG, thr_jaco:   2.70D-02  3.10D-02  1.63D-05
 CPU and wall times used in FCKEIG, THR_FCKEIG:   2.80D-02  3.10D-02  3.82D-03
 -----------------------------------------------------------------------------

 *** DIIS iteration number    4
 RDSUPM called. NFMAT, ISYMDM(1:NFMAT)                     1
                     1

 ITDIIS, energy, error norm, change in energy, scr.thr., difden:
@ DIIS iter.   4    -361.239351214        9.95731D-02   -1.07D-02  -20    F

 (DIIS_RED) Control Parameters C2DIIS =         F NEVC =    4


 (DIIS_RED) B matrix:

               Column   1     Column   2     Column   3     Column   4
       1      15.59623164
       2       0.83406286     1.26070246
       3       0.79630497     0.00172480     0.14607136
       4       0.05348925     0.08523394     0.00261565     0.00991480
    ==== End of matrix output ====

 DIIS C vector; C2DIIS = F, LAMBDA = -4.72D-03
   -0.000631   -0.066827    0.017773    1.049685
* Read MO coefficients from SIRIUS.RST with label "NEWORB  " and header info:  2Dec18  DIIS   4
      Virial theorem: -V/T =      2.003675
@      MULPOP N      -0.50; H       0.32; H       0.28; H       0.33; H       0.37; O      -0.63; O      -0.65; O      -0.70; O      -0.67; H       0.36; 
@             H       0.32; H       0.34; H       0.36; H       0.36; H       0.42; H       0.33; H       0.37; 
   4  Level shift: doubly occupied orbital energies shifted by -2.50D-02

 DIIS Fock eigenvalues in symmetry 1
      -20.68990      -20.67065      -20.66878      -20.63964      -15.73378
       -1.46037       -1.44949       -1.43677       -1.42247       -1.32185
       -0.82812       -0.81105       -0.80368       -0.79588       -0.78861
       -0.77697       -0.77102       -0.70485       -0.69724       -0.68444
       -0.66212       -0.63360       -0.62249       -0.61655       -0.59125
       -0.00005        0.06700        0.10280        0.11803        0.13322
        0.16706        0.19015        0.20114        0.21839        0.24308
        0.24900        0.27115        0.30073        0.34763        0.35453
        0.37246        0.46780        0.49131        0.51194        0.53693
        0.54020        0.54274        0.55318        0.58901        0.60255
        0.80072        0.84451        0.85838        0.87789        0.90119
        0.90960        0.94704        0.98383        1.00178        1.01465
        1.04065        1.05308        1.06855        1.08645        1.10739
        1.18585        1.20037        1.20427        1.29936        1.32883
        1.35272        1.37796        1.41951        1.44010        1.44173
        1.44560        1.45217        1.46048        1.48084        1.52081
        1.59458        1.61548        1.63726        1.67003        1.68276
        1.70063        1.76101        1.83105        1.85891        1.86947
        1.89954        2.01774        2.05952        2.08261        2.09538
        2.11720        2.17459        2.19417        2.22264        2.25322
        2.27862        2.30075        2.32093        2.34750        2.38085
        2.49392        2.53388        2.54586        2.62483        2.63759
        2.66493        2.68209        2.73277        2.76673        2.78377
        2.79310        2.80221        2.86844        2.93236        3.14487
        3.16814        3.25179        3.29011        3.34459        3.37472
        3.38065        3.44478        3.45499        3.46327        3.47747
        3.48546        3.53333        3.57212        3.62797        3.63822
        3.86224        3.87635        3.92615        3.92880        4.11833
        4.16893        4.19555        4.20628        4.89086        5.01044
        5.06995        5.23883        5.25840        5.31652        5.32110
        5.71119        5.72958        5.75280        5.82874        5.89053
        5.97794        6.05136        6.09822       36.83840       51.40826
       51.43136       51.45798       51.48248
 Time used in FCKEIG, thr_jaco:   2.60D-02  2.80D-02  4.24D-06
 CPU and wall times used in FCKEIG, THR_FCKEIG:   2.60D-02  2.80D-02  9.96D-04
 -----------------------------------------------------------------------------

 *** DIIS iteration number    5
 RDSUPM called. NFMAT, ISYMDM(1:NFMAT)                     1
                     1

 ITDIIS, energy, error norm, change in energy, scr.thr., difden:
@ DIIS iter.   5    -361.240449803        2.99598D-02   -1.10D-03  -20    F

 (DIIS_RED) Control Parameters C2DIIS =         F NEVC =    5


 (DIIS_RED) B matrix:

               Column   1     Column   2     Column   3     Column   4     Column   5
       1      15.59623164
       2       0.83406286     1.26070246
       3       0.79630497     0.00172480     0.14607136
       4       0.05348925     0.08523394     0.00261565     0.00991480
       5       0.02142935     0.00817402     0.00589721     0.00097511     0.00089759
    ==== End of matrix output ====

 DIIS C vector; C2DIIS = F, LAMBDA = -6.29D-04
    0.001279   -0.011284   -0.043531    0.068161    0.985376
* Read MO coefficients from SIRIUS.RST with label "NEWORB  " and header info:  2Dec18  DIIS   5
      Virial theorem: -V/T =      2.003397
@      MULPOP N      -0.49; H       0.31; H       0.27; H       0.33; H       0.37; O      -0.64; O      -0.67; O      -0.72; O      -0.68; H       0.36; 
@             H       0.33; H       0.34; H       0.36; H       0.37; H       0.43; H       0.34; H       0.38; 
   5  Level shift: doubly occupied orbital energies shifted by -1.25D-02

 DIIS Fock eigenvalues in symmetry 1
      -20.66667      -20.65364      -20.65149      -20.62073      -15.71835
       -1.44693       -1.43310       -1.42187       -1.40765       -1.30803
       -0.81487       -0.79757       -0.78950       -0.78178       -0.77336
       -0.76280       -0.75691       -0.69086       -0.68248       -0.67025
       -0.64785       -0.61927       -0.60645       -0.60056       -0.57572
       -0.00005        0.06757        0.10297        0.11840        0.13356
        0.16736        0.19030        0.20162        0.21876        0.24369
        0.24944        0.27207        0.30148        0.34874        0.35564
        0.37337        0.46864        0.49192        0.51253        0.53732
        0.54065        0.54349        0.55349        0.58953        0.60341
        0.80205        0.84575        0.85949        0.87949        0.90290
        0.91175        0.94871        0.98563        1.00294        1.01591
        1.04176        1.05426        1.07019        1.08748        1.10865
        1.18676        1.20158        1.20544        1.30042        1.33041
        1.35432        1.37897        1.42027        1.44039        1.44247
        1.44566        1.45296        1.46088        1.48153        1.52178
        1.59533        1.61632        1.63742        1.67085        1.68367
        1.70170        1.76196        1.83110        1.85924        1.86958
        1.89975        2.01868        2.06064        2.08337        2.09672
        2.11821        2.17506        2.19442        2.22408        2.25432
        2.27956        2.30168        2.32096        2.34839        2.38169
        2.49462        2.53378        2.54604        2.62569        2.63829
        2.66568        2.68295        2.73305        2.76698        2.78425
        2.79333        2.80218        2.86967        2.93344        3.14645
        3.16955        3.25337        3.29187        3.34709        3.37597
        3.38431        3.44723        3.45600        3.46641        3.47981
        3.48793        3.53725        3.57451        3.62886        3.64052
        3.86591        3.87905        3.92705        3.93110        4.12254
        4.17152        4.19672        4.20862        4.89298        5.01223
        5.07170        5.24060        5.26242        5.32260        5.32511
        5.71478        5.73355        5.75629        5.83231        5.89623
        5.98140        6.05465        6.09943       36.84128       51.41882
       51.43792       51.46063       51.48880
 Time used in FCKEIG, thr_jaco:   2.40D-02  2.60D-02  1.28D-06
 CPU and wall times used in FCKEIG, THR_FCKEIG:   2.40D-02  2.70D-02  3.00D-04
 -----------------------------------------------------------------------------

 *** DIIS iteration number    6
 RDSUPM called. NFMAT, ISYMDM(1:NFMAT)                     1
                     1

 ITDIIS, energy, error norm, change in energy, scr.thr., difden:
@ DIIS iter.   6    -361.240544262        1.11833D-02   -9.45D-05  -20    F

 (DIIS_RED) Control Parameters C2DIIS =         F NEVC =    6


 (DIIS_RED) B matrix:

               Column   1     Column   2     Column   3     Column   4     Column   5     Column   6
       1      15.59623164
       2       0.83406286     1.26070246
       3       0.79630497     0.00172480     0.14607136
       4       0.05348925     0.08523394     0.00261565     0.00991480
       5       0.02142935     0.00817402     0.00589721     0.00097511     0.00089759
       6      -0.00470563    -0.00017708     0.00079721     0.00055768     0.00003167     0.00012507
    ==== End of matrix output ====

 DIIS C vector; C2DIIS = F, LAMBDA = -3.78D-05
    0.000825    0.007705   -0.013413   -0.133725    0.150810    0.987798
* Read MO coefficients from SIRIUS.RST with label "NEWORB  " and header info:  2Dec18  DIIS   6
      Virial theorem: -V/T =      2.003628
@      MULPOP N      -0.48; H       0.31; H       0.27; H       0.32; H       0.37; O      -0.64; O      -0.67; O      -0.72; O      -0.69; H       0.36; 
@             H       0.33; H       0.34; H       0.37; H       0.37; H       0.43; H       0.34; H       0.38; 

 DIIS Fock eigenvalues in symmetry 1
      -20.65774      -20.64186      -20.64101      -20.61015      -15.70783
       -1.43459       -1.42161       -1.40991       -1.39568       -1.29608
       -0.80279       -0.78556       -0.77760       -0.76986       -0.76176
       -0.75086       -0.74498       -0.67904       -0.67083       -0.65857
       -0.63615       -0.60664       -0.59447       -0.58862       -0.56352
       -0.00005        0.06747        0.10284        0.11821        0.13339
        0.16722        0.19018        0.20147        0.21861        0.24360
        0.24929        0.27187        0.30132        0.34853        0.35537
        0.37323        0.46838        0.49171        0.51234        0.53708
        0.54043        0.54316        0.55325        0.58925        0.60317
        0.80168        0.84540        0.85915        0.87934        0.90271
        0.91139        0.94846        0.98513        1.00258        1.01555
        1.04134        1.05386        1.06973        1.08710        1.10828
        1.18648        1.20128        1.20513        1.30020        1.33000
        1.35385        1.37866        1.41995        1.44011        1.44213
        1.44536        1.45255        1.46055        1.48117        1.52140
        1.59504        1.61599        1.63715        1.67068        1.68346
        1.70150        1.76171        1.83081        1.85896        1.86930
        1.89948        2.01847        2.06034        2.08295        2.09615
        2.11804        2.17462        2.19402        2.22356        2.25400
        2.27931        2.30128        2.32063        2.34796        2.38130
        2.49434        2.53347        2.54571        2.62556        2.63803
        2.66557        2.68270        2.73272        2.76666        2.78392
        2.79305        2.80188        2.86912        2.93294        3.14591
        3.16916        3.25269        3.29116        3.34638        3.37563
        3.38313        3.44652        3.45566        3.46544        3.47911
        3.48719        3.53603        3.57380        3.62856        3.63982
        3.86477        3.87824        3.92672        3.93039        4.12125
        4.17077        4.19636        4.20792        4.89191        5.01125
        5.07076        5.24022        5.26136        5.32077        5.32402
        5.71370        5.73230        5.75514        5.83123        5.89430
        5.98028        6.05356        6.09895       36.83933       51.41531
       51.43593       51.45990       51.48690
 Time used in FCKEIG, thr_jaco:   2.50D-02  2.60D-02  4.76D-07
 CPU and wall times used in FCKEIG, THR_FCKEIG:   2.50D-02  2.60D-02  1.12D-04
 -----------------------------------------------------------------------------

 *** DIIS iteration number    7
 RDSUPM called. NFMAT, ISYMDM(1:NFMAT)                     1
                     1

 ITDIIS, energy, error norm, change in energy, scr.thr., difden:
@ DIIS iter.   7    -361.240557128        2.32428D-03   -1.29D-05  -20    F

 (DIIS_RED) Control Parameters C2DIIS =         F NEVC =    7


 (DIIS_RED) B matrix:

               Column   1     Column   2     Column   3     Column   4     Column   5     Column   6
       1      15.59623164
       2       0.83406286     1.26070246
       3       0.79630497     0.00172480     0.14607136
       4       0.05348925     0.08523394     0.00261565     0.00991480
       5       0.02142935     0.00817402     0.00589721     0.00097511     0.00089759
       6      -0.00470563    -0.00017708     0.00079721     0.00055768     0.00003167     0.00012507
       7       0.00028456     0.00020140    -0.00001349     0.00001316     0.00004788    -0.00000049

               Column   7
       7       0.00000540
    ==== End of matrix output ====

 DIIS C vector; C2DIIS = F, LAMBDA = -1.27D-06
   -0.000239   -0.000825    0.005945    0.021741   -0.107568   -0.102970    1.183917
* Read MO coefficients from SIRIUS.RST with label "NEWORB  " and header info:  2Dec18  DIIS   7
      Virial theorem: -V/T =      2.003568
@      MULPOP N      -0.48; H       0.31; H       0.27; H       0.32; H       0.37; O      -0.64; O      -0.67; O      -0.72; O      -0.69; H       0.36; 
@             H       0.33; H       0.34; H       0.37; H       0.37; H       0.43; H       0.34; H       0.38; 

 DIIS Fock eigenvalues in symmetry 1
      -20.65713      -20.64187      -20.64077      -20.61001      -15.70743
       -1.43453       -1.42135       -1.40977       -1.39558       -1.29588
       -0.80273       -0.78545       -0.77745       -0.76971       -0.76156
       -0.75075       -0.74490       -0.67902       -0.67073       -0.65855
       -0.63615       -0.60654       -0.59425       -0.58839       -0.56338
       -0.00005        0.06755        0.10287        0.11825        0.13343
        0.16727        0.19021        0.20151        0.21866        0.24366
        0.24933        0.27195        0.30139        0.34866        0.35550
        0.37334        0.46846        0.49177        0.51240        0.53711
        0.54048        0.54322        0.55329        0.58927        0.60327
        0.80183        0.84553        0.85929        0.87944        0.90283
        0.91153        0.94854        0.98527        1.00266        1.01563
        1.04143        1.05393        1.06984        1.08714        1.10833
        1.18658        1.20141        1.20525        1.30030        1.33013
        1.35398        1.37872        1.42000        1.44013        1.44219
        1.44537        1.45260        1.46056        1.48120        1.52148
        1.59511        1.61607        1.63718        1.67078        1.68356
        1.70163        1.76181        1.83083        1.85900        1.86933
        1.89949        2.01858        2.06044        2.08299        2.09625
        2.11815        2.17464        2.19403        2.22368        2.25414
        2.27942        2.30135        2.32064        2.34798        2.38139
        2.49442        2.53348        2.54573        2.62566        2.63810
        2.66566        2.68280        2.73277        2.76669        2.78399
        2.79307        2.80188        2.86930        2.93310        3.14609
        3.16933        3.25288        3.29136        3.34651        3.37569
        3.38338        3.44663        3.45571        3.46565        3.47925
        3.48732        3.53629        3.57394        3.62861        3.63992
        3.86500        3.87838        3.92675        3.93046        4.12153
        4.17091        4.19642        4.20801        4.89219        5.01151
        5.07101        5.24027        5.26154        5.32113        5.32415
        5.71386        5.73251        5.75532        5.83134        5.89466
        5.98044        6.05366        6.09898       36.83972       51.41590
       51.43616       51.45989       51.48704
 Time used in FCKEIG, thr_jaco:   2.40D-02  2.80D-02  9.89D-08
 CPU and wall times used in FCKEIG, THR_FCKEIG:   2.40D-02  2.80D-02  2.32D-05
 -----------------------------------------------------------------------------

 *** DIIS iteration number    8
 RDSUPM called. NFMAT, ISYMDM(1:NFMAT)                     1
                     1

 ITDIIS, energy, error norm, change in energy, scr.thr., difden:
@ DIIS iter.   8    -361.240557677        3.94076D-04   -5.49D-07  -20    F

 (DIIS_RED) Control Parameters C2DIIS =         F NEVC =    8


 (DIIS_RED) B matrix:

               Column   1     Column   2     Column   3     Column   4     Column   5     Column   6
       1      15.59623164
       2       0.83406286     1.26070246
       3       0.79630497     0.00172480     0.14607136
       4       0.05348925     0.08523394     0.00261565     0.00991480
       5       0.02142935     0.00817402     0.00589721     0.00097511     0.00089759
       6      -0.00470563    -0.00017708     0.00079721     0.00055768     0.00003167     0.00012507
       7       0.00028456     0.00020140    -0.00001349     0.00001316     0.00004788    -0.00000049
       8       0.00012805    -0.00003775     0.00000635     0.00000144     0.00000023     0.00000170

               Column   7     Column   8
       7       0.00000540
       8       0.00000031     0.00000016
    ==== End of matrix output ====

 DIIS C vector; C2DIIS = F, LAMBDA = -1.05D-07
   -0.000015   -0.000074   -0.000202    0.001223    0.007913   -0.021823   -0.117946    1.130924
* Read MO coefficients from SIRIUS.RST with label "NEWORB  " and header info:  2Dec18  DIIS   8
      Virial theorem: -V/T =      2.003583
@      MULPOP N      -0.48; H       0.31; H       0.27; H       0.32; H       0.37; O      -0.64; O      -0.67; O      -0.72; O      -0.69; H       0.36; 
@             H       0.33; H       0.34; H       0.37; H       0.37; H       0.43; H       0.34; H       0.38; 

 DIIS Fock eigenvalues in symmetry 1
      -20.65724      -20.64179      -20.64074      -20.60992      -15.70744
       -1.43450       -1.42138       -1.40975       -1.39555       -1.29588
       -0.80271       -0.78544       -0.77745       -0.76972       -0.76158
       -0.75074       -0.74488       -0.67903       -0.67076       -0.65856
       -0.63615       -0.60652       -0.59426       -0.58840       -0.56335
       -0.00005        0.06754        0.10287        0.11825        0.13343
        0.16727        0.19021        0.20151        0.21866        0.24366
        0.24934        0.27195        0.30139        0.34865        0.35549
        0.37334        0.46846        0.49177        0.51240        0.53711
        0.54048        0.54322        0.55330        0.58927        0.60327
        0.80182        0.84552        0.85929        0.87944        0.90283
        0.91152        0.94855        0.98526        1.00266        1.01563
        1.04144        1.05394        1.06983        1.08715        1.10834
        1.18658        1.20140        1.20525        1.30031        1.33012
        1.35396        1.37873        1.42000        1.44014        1.44219
        1.44537        1.45259        1.46056        1.48120        1.52148
        1.59510        1.61607        1.63719        1.67078        1.68355
        1.70161        1.76180        1.83084        1.85900        1.86933
        1.89949        2.01857        2.06044        2.08299        2.09623
        2.11815        2.17465        2.19404        2.22366        2.25414
        2.27941        2.30135        2.32064        2.34799        2.38138
        2.49441        2.53349        2.54573        2.62566        2.63810
        2.66565        2.68279        2.73276        2.76669        2.78399
        2.79307        2.80188        2.86929        2.93309        3.14608
        3.16932        3.25288        3.29135        3.34652        3.37571
        3.38334        3.44665        3.45573        3.46563        3.47926
        3.48733        3.53625        3.57395        3.62864        3.63995
        3.86497        3.87838        3.92678        3.93049        4.12148
[...]
 | 1 1 1 1 |  10   1  10   1 |     1252        1 |       783127 |    0.068753  |
 | 1 1 1 1 |  13   1  10   1 |     1255        1 |       786886 |   -0.071361  |
 | 1 1 1 1 |  15   1  10   1 |     1257        1 |       789397 |    0.079455  |
 | 1 1 1 1 |  28   1  10   1 |     1270        1 |       805816 |   -0.131085  |
 | 1 1 1 1 |  26   1  15   1 |     1958        1 |      1915904 |    0.069203  |
 | 1 1 1 1 |  27   1  16   1 |     2097        1 |      2197657 |    0.067338  |
 | 1 1 1 1 |  12   1  19   1 |     2496        1 |      3113761 |   -0.066072  |
 | 1 1 1 1 |  26   1  20   1 |     2648        1 |      3504629 |   -0.073987  |
 +=============================================================================+


          Norm of Printed Amplitude Vector :             0.8242

          Printed all single excitations greater than 0.378495

          Printed all double excitations greater than 0.065343



+======================================================================+
| contributions of excitation levels to right eigenvectors as computed |
| from the (RE|RE) self overlap                                        |
+----------------------------------------------------------------------+
| sym | multi | state |    E / eV  | % singles | % doubles | % triples |
+======================================================================+
|    1|   1   |   1   |  411.09439 |  87.9047  |  12.0953  |   0.0000  |
+======================================================================+





+======================================================================+
| contributions of excitation levels to excited states as computed     |
| from the (LE|RE) overlap                                             |
+----------------------------------------------------------------------+
| sym | multi | state |    E / eV  | % singles | % doubles | % triples |
+======================================================================+
|    1|   1   |   1   |  411.09439 |  78.5957  |  21.4043  |   0.0000  |
+======================================================================+



 --------------------------
 Symmetry class Nr.:     1
 Multiplicity      :     3
 --------------------------

 Length of Excitation vectors in this class is:   8404200
 No Excitation Energies calculated in this symmetry class
     

   *******************************************************************
   *                                                                 *
   *--------   OUTPUT FROM PROPERTY AND SYMMETRY ANALYSIS   ---------*
   *                                                                 *
   *******************************************************************



                         +-------------------------------+
                         ! REQUESTED PROPERTY OPERATORS: !
                         +-------------------------------+

             Index   Oper. Label  Symmetry  Transp.  PDBS  Atom
             --------------------------------------------------
                1     HAM0            1        1      T      0
                2     XDIPLEN         1        1      F      0
                3     YDIPLEN         1        1      F      0
                4     ZDIPLEN         1        1      F      0
             --------------------------------------------------




                         +-------------------------------+
                         ! REQUESTED EXPECTATION VALUES: !
                         +-------------------------------+

                       Index   Oper. Label  Symmetry
                       -----------------------------
                       -----------------------------




                       +------------------------------------+
                       ! REQUESTED EFFECTIVE FOCK MATRICES: !
                       +------------------------------------+

                       Index   Oper. Label  Symmetry
                       -----------------------------
                       -----------------------------




                        +----------------------------------+
                        ! REQUESTED FIRST ORDER M-VECTORS: !
                        +----------------------------------+

               Index   State Symmetry  Frequency
               --------------------------------------------------
                  1             1    1     1.510744D+01
               --------------------------------------------------


      

    *******************************************************************
    *          SOLVING COUPLED CLUSTER RESPONSE EQUATIONS             *
    *******************************************************************



 
 +======================================================================+
 !                     RHS & ETA VECTORS TO COMPUTE:                    !
 +======================================================================+
 | TYPE | # VEC. |  NEEDED FOR:                                         |
 +----------------------------------------------------------------------+
 +======================================================================+



 +======================================================================+
 !                       LINEAR EQUATIONS TO SOLVE:                     !
 +======================================================================+
 | TYPE | # VEC. |  EQUATION:                                           |
 +----------------------------------------------------------------------+
 |  M1  |    1   |  first-order ground - excited state multipliers      |
 +======================================================================+



 +======================================================================+
 !                F MATRIX TRANSFORMATIONS TO COMPUTE:                  !
 +======================================================================+
 | TYPE | # VEC. |  TRANSFORMED:                                        |
 +----------------------------------------------------------------------+
 |  FR  |    1   |  right eigenvectors (RE)                             |
 +======================================================================+





 Testing R1 list: 

 List nr.  Label     Symmetry      Frequency      T1-norm        T2-norm


 Testing L1 list: 

 List nr.  Label     Symmetry      Frequency      T1-norm        T2-norm
  Solvent 1-order response equations converged in                     0 
  solvent iterations
 SONIAPRI                     0
 CCEQ_STR: CVSEPARATION =  T
 CCEQ_STR: IONIZATION =  T
 CCEQ_STR: REMOVE_CORE =  F
 could not find required file CCM1_1___1
 IOPTSV is    33 ... program continues nevertheless.
 Vector nr.  1 of type M1  and symmetry  1 was not found on file.
     M1  start vector nr.  1 of symmetry  1 generated from gradient
 CCEQ_STR: freeze VALENCE OR VIRT
 CCEQ_SOL: CVSEPARA=     T
 CCEQ_SOL: LIONISAT=     T
 CCEQ_SOL: REMOVE_CORE =  F



 ----- COUPLED CLUSTER RESPONSE SOLVER -----

    Iter  #Vectors  time (min)   residual
    --------------------------------------
 CCRED CVS/IONIS sigma_                     1 
 project out valence occupied or virtual
      1       1         1.86     0.17E+01
 CCRED CVS/IONIS sigma_                     2 
 project out valence occupied or virtual
      2       1         1.87     0.31E+00
 CCRED CVS/IONIS sigma_                     3 
 project out valence occupied or virtual
      3       1         1.79     0.42E-01
 CCRED CVS/IONIS sigma_                     4 
 project out valence occupied or virtual
                    -1  vectors with norm le:  1.000000000000000E-035  REMOVED

 CCORT,**WARNING**  number vectors added is zero after check for vector norm , NBADD :    0

 CCORT, number vectors added is zero , NBADD :    0

 CCORT, number vectors added is zero , NBADD :    0

 CCORT, number vectors added is zero , NBADD :    0

 CCORT, number vectors added is zero , NBADD :    0

 *** MICROITERATIONS STOPPED DUE TO LINEAR DEPENDENCE BETWEEN ALL NEW TRIAL VECTORS
                     0  trial vectors converged
  LINEAR DEPENDENCE BETWEEN                     1  NON CONVERGED TRIAL VECTORS
      4       1         1.70     0.41E-02

 ***  CCEQ_SOL -MICROITERATIONS STOPPED  
     LINEAR DEPENDENCE BETWEEN ALL NEW TRIAL VECTORS
    --------------------------------------
    converged in  4 iterations
    threshold:    0.10E-08


         Routine          Time (min)
         ---------------------------
         CC_TRDRV            7.21
         CCRED               0.03
         CCNEX               0.05
         ---------------------------
         Total time          7.29


  Total CPU  time used in CCEQ_SOLV:  7 minutes 18 seconds
  Total wall time used in CCEQ_SOLV:  7 minutes 29 seconds


 xxxxxxxxxxxxxxxxxxxxxxxxxxxxxxxxxxxxx

 
 Solution of CC response equations completed.
 

 *******************************************************************
 *                                                                 *
 *--------  OUTPUT FROM COUPLED CLUSTER LINEAR RESPONSE   ---------*
 *                                                                 *
 *--------      CALCULATION OF SECOND ORDER RESIDUES      ---------*
 *                                                                 *
 *******************************************************************



                  +---------------------------------------------+
                  ! CC_SOPR: Calculation of CCSD       Residues !
                  +---------------------------------------------+

 Doing the Mf*CsiA
 Doing the Mf*CsiA
 Doing the Mf*CsiA


 CCSD  Right transition moments in atomic units:
 -----------------------------------------------

  1      15.107441  <XDIPLEN |f> =       0.00000002
  1      15.107441  <YDIPLEN |f> =      -0.00000001
  1      15.107441  <ZDIPLEN |f> =       0.00000002


 CCSD  Left  transition moments in atomic units:
 -----------------------------------------------

  1      15.107441  <f|XDIPLEN > =       0.00000001
  1      15.107441  <f|YDIPLEN > =      -0.00000000
  1      15.107441  <f|ZDIPLEN > =       0.00000001


 CCSD  linear response residue property in atomic units:
 -------------------------------------------------------

 RES{<<XDIPLEN ,XDIPLEN >>(15.107441)} =     0.00000000 (   0.00000001)
 RES{<<XDIPLEN ,YDIPLEN >>(15.107441)} =    -0.00000000 (  -0.00000001)
 RES{<<XDIPLEN ,ZDIPLEN >>(15.107441)} =     0.00000000 (   0.00000001)
 RES{<<YDIPLEN ,XDIPLEN >>(15.107441)} =    -0.00000000 (  -0.00000001)
 RES{<<YDIPLEN ,YDIPLEN >>(15.107441)} =     0.00000000 (   0.00000001)
 RES{<<YDIPLEN ,ZDIPLEN >>(15.107441)} =    -0.00000000 (  -0.00000001)
 RES{<<ZDIPLEN ,XDIPLEN >>(15.107441)} =     0.00000000 (   0.00000001)
 RES{<<ZDIPLEN ,YDIPLEN >>(15.107441)} =    -0.00000000 (  -0.00000001)
 RES{<<ZDIPLEN ,ZDIPLEN >>(15.107441)} =     0.00000000 (   0.00000001)


 CCSD  Transition strength matrix for state nr.  1 of symmetry 1
 CCSD  excitation energy:15.10744116

 Gauge: length

               Column   1     Column   2     Column   3
       1     1.076095D-16  -7.379514D-17   1.278241D-16
       2    -7.379514D-17   5.060631D-17  -8.765861D-17
       3     1.278241D-16  -8.765861D-17   1.518019D-16
    ==== End of matrix output ====

 Principal values of diagonalized transition strength matrix:

             a.u.               
 1       0.00000000
 2       0.00000000
 3       0.00000000

 Principal axis of diagonalized transition strength matrix:


               Column   1     Column   2     Column   3
       1       1.00000000     0.00000000     0.00000000
       2       0.00000000     1.00000000     0.00000000
       3       0.00000000     0.00000000     1.00000000
    ==== End of matrix output ====


 CCSD   oscillator strength matrix for state nr.  1 of symmetry 1
 CCSD  excitation energy:15.10744116


               Column   1     Column   2     Column   3
       1     1.083803D-15  -7.432372D-16   1.287396D-15
       2    -7.432372D-16   5.096879D-16  -8.828648D-16
       3     1.287396D-15  -8.828648D-16   1.528892D-15
    ==== End of matrix output ====

 Principal values of diagonalized oscillator strength matrix:

             a.u.               
 1       0.00000000
 2       0.00000000
 3       0.00000000

 Principal axis of diagonalized oscillator strength matrix:


               Column   1     Column   2     Column   3
       1       1.00000000     0.00000000     0.00000000
       2       0.00000000     1.00000000     0.00000000
       3       0.00000000     0.00000000     1.00000000
    ==== End of matrix output ====

  Total time for      9 linear response residues:       3.30 seconds.
  

 *******************************************************************************
 *******************************************************************************
 *                                                                             *
 *                                                                             *
 *                   SUMMARY OF COUPLED CLUSTER CALCULATION                    *
 *                                                                             *
 *                                                                             *
 *******************************************************************************
 *******************************************************************************

                                                                                
                                                                                
            Total SCF   energy:                  -361.2405576954                
            Total MP2   energy:                  -362.3517012726                
            Total CCSD  energy:                  -362.3915979996                
                                                                                
                                                                                
            Total SCF   energy:                  -361.2405576954                
            Total RSTAR energy:                  -362.3915979996                
            Total CCSD  energy:                  -362.3917392422                
                                                                                
                                                                                
            Total SCF   energy:                  -361.2405576954                
            Total RSTAR energy:                  -362.3917392422                
            Total CCSD  energy:                  -362.3917398182                
                                                                                
                                                                                
            Total SCF   energy:                  -361.2405576954                
            Total RSTAR energy:                  -362.3917398182                
            Total CCSD  energy:                  -362.3917398941                
                                                                                
                                                                                
            Total SCF   energy:                  -361.2405576954                
            Total RSTAR energy:                  -362.3917398941                
            Total CCSD  energy:                  -362.3917398960                
                                                                                
                                                                                
            Total SCF   energy:                  -361.2405576954                
            Total RSTAR energy:                  -362.3917398960                
            Total CCSD  energy:                  -362.3917398961                
            CCSD Total  energy:                  -362.8524356541                
            CCSD E(QM/MM)     :                    -0.4561480297                
                                                                                
                                                                                
                                                                                
 +=============================================================================+
 |  sym. | Exci.  |        CCSD       Excitation energies            | ||T1||  |
 |(spin, |        +------------------------------------------------------------+
 | spat) |        |     Hartree    |       eV.      |     cm-1       |    %    |
 +=============================================================================+
 | ^1A   |    1   |    15.1074412  |     411.09439  |   3315700.049  |  87.90  |
 +=============================================================================+
                                                                                
                                                                                
     Total energies in Hartree:                                                 
             1 ^1A       -347.2888464641                                        
                                                                                
                                                                                
 +=============================================================================+
 |  sym. | Exci.  |        CCSD       Length   Gauge Oscillator Strength       |
 |(spin, |        +------------------------------------------------------------+
 | spat) |        | Dipole Strength(a.u.) | Oscillator strength  | Direction   |
 +=============================================================================+
 | ^1A   |    1   |        0.0000000      |      0.0000000       |    -        |
 +=============================================================================+

  1 a.u. =        27.21138 eV.  
  1 a.u. =    219474.62934 cm-1.
  

 *******************************************************************************
 *******************************************************************************
 *                                                                             *
 *                                                                             *
 *                      END OF COUPLED CLUSTER CALCULATION                     *
 *                                                                             *
 *                                                                             *
 *******************************************************************************
 *******************************************************************************


 CPU and wall time for CC :    7969.898   11142.383

 
     Date and time (Linux)  : Sun Dec  2 20:12:49 2018
     Host name              : n-62-23-21                              


                      .-------------------------------------.
                      | End of Coupled Cluster Section (CC) |
                      `-------------------------------------'

  Total CPU  time used in DALTON:   2 hours 15 minutes  9 seconds
  Total wall time used in DALTON:   3 hours  9 minutes  8 seconds

 
     Date and time (Linux)  : Sun Dec  2 20:12:49 2018
     Host name              : n-62-23-21                              
  

 +---------------------------------------------------------+ 
 | List of selected calculated molecular properties (a.u.) | 
 +---------------------------------------------------------+ 

  Properties are read from unit number                      4

 CCSD       properties :
 #  1 1 CCSD/MM  Ground state Energy =    -362.8524356541
 #  2 1 E_QM/MM  Ground state Energy =      -0.4561480297
 #  3 1 Sy: 1 Sp: 1 Exc:  1 E_tot:   -347.2888464641 w:     15.1074411604 E_grs:   -362.3962876244
 #  4 1 Exctot   Excited state Energy =    -347.2888464641
 #  5 1 |<O|XDIPLEN |i(15.107441)>| =     0.00000001
 #  7 1 |<O|YDIPLEN |i(15.107441)>| =     0.00000001
 #  9 1 |<O|ZDIPLEN |i(15.107441)>| =     0.00000001

 THE_END   
