

     ************************************************************************
     *************** Dalton - An Electronic Structure Program ***************
     ************************************************************************

    This is output from DALTON release Dalton2017.alpha (2016)
         ( Web site: http://daltonprogram.org )

   ----------------------------------------------------------------------------

    NOTE:
     
    Dalton is an experimental code for the evaluation of molecular
    properties using (MC)SCF, DFT, CI, and CC wave functions.
    The authors accept no responsibility for the performance of
    the code or for the correctness of the results.
     
    The code (in whole or part) is provided under a licence and
    is not to be reproduced for further distribution without
    the written permission of the authors or their representatives.
     
    See the home page "http://daltonprogram.org" for further information.
     
    If results obtained with this code are published,
    the appropriate citations would be both of:
     
       K. Aidas, C. Angeli, K. L. Bak, V. Bakken, R. Bast,
       L. Boman, O. Christiansen, R. Cimiraglia, S. Coriani,
       P. Dahle, E. K. Dalskov, U. Ekstroem,
       T. Enevoldsen, J. J. Eriksen, P. Ettenhuber, B. Fernandez,
       L. Ferrighi, H. Fliegl, L. Frediani, K. Hald, A. Halkier,
       C. Haettig, H. Heiberg, T. Helgaker, A. C. Hennum,
       H. Hettema, E. Hjertenaes, S. Hoest, I.-M. Hoeyvik,
       M. F. Iozzi, B. Jansik, H. J. Aa. Jensen, D. Jonsson,
       P. Joergensen, J. Kauczor, S. Kirpekar,
       T. Kjaergaard, W. Klopper, S. Knecht, R. Kobayashi, H. Koch,
       J. Kongsted, A. Krapp, K. Kristensen, A. Ligabue,
       O. B. Lutnaes, J. I. Melo, K. V. Mikkelsen, R. H. Myhre,
       C. Neiss, C. B. Nielsen, P. Norman, J. Olsen,
       J. M. H. Olsen, A. Osted, M. J. Packer, F. Pawlowski,
       T. B. Pedersen, P. F. Provasi, S. Reine, Z. Rinkevicius,
       T. A. Ruden, K. Ruud, V. Rybkin, P. Salek, C. C. M. Samson,
       A. Sanchez de Meras, T. Saue, S. P. A. Sauer,
       B. Schimmelpfennig, K. Sneskov, A. H. Steindal,
       K. O. Sylvester-Hvid, P. R. Taylor, A. M. Teale,
       E. I. Tellgren, D. P. Tew, A. J. Thorvaldsen, L. Thoegersen,
       O. Vahtras, M. A. Watson, D. J. D. Wilson, M. Ziolkowski
       and H. Agren,
       "The Dalton quantum chemistry program system",
       WIREs Comput. Mol. Sci. 2014, 4:269–284 (doi: 10.1002/wcms.1172)
     
    and
     
       Dalton, a Molecular Electronic Structure Program,
       Release Dalton2017.alpha (2016), see http://daltonprogram.org
   ----------------------------------------------------------------------------

    Authors in alphabetical order (major contribution(s) in parenthesis):

  Kestutis Aidas,           Vilnius University,           Lithuania   (QM/MM)
  Celestino Angeli,         University of Ferrara,        Italy       (NEVPT2)
  Keld L. Bak,              UNI-C,                        Denmark     (AOSOPPA, non-adiabatic coupling, magnetic properties)
  Vebjoern Bakken,          University of Oslo,           Norway      (DALTON; geometry optimizer, symmetry detection)
  Radovan Bast,             UiT The Arctic U. of Norway,  Norway      (DALTON installation and execution frameworks)
  Pablo Baudin,             University of Valencia,       Spain       (Cholesky excitation energies)
  Linus Boman,              NTNU,                         Norway      (Cholesky decomposition and subsystems)
  Ove Christiansen,         Aarhus University,            Denmark     (CC module)
  Renzo Cimiraglia,         University of Ferrara,        Italy       (NEVPT2)
  Sonia Coriani,            University of Trieste,        Italy       (CC module, MCD in RESPONS)
  Janusz Cukras,            University of Trieste,        Italy       (MChD in RESPONS)
  Paal Dahle,               University of Oslo,           Norway      (Parallelization)
  Erik K. Dalskov,          UNI-C,                        Denmark     (SOPPA)
  Thomas Enevoldsen,        Univ. of Southern Denmark,    Denmark     (SOPPA)
  Janus J. Eriksen,         Aarhus University,            Denmark     (Polarizable embedding model, TDA)
  Rasmus Faber,             University of Copenhagen,     Denmark     (Vib.avg. NMR with SOPPA, parallel AO-SOPPA)
  Berta Fernandez,          U. of Santiago de Compostela, Spain       (doublet spin, ESR in RESPONS)
  Lara Ferrighi,            Aarhus University,            Denmark     (PCM Cubic response)
  Heike Fliegl,             University of Oslo,           Norway      (CCSD(R12))
  Luca Frediani,            UiT The Arctic U. of Norway,  Norway      (PCM)
  Bin Gao,                  UiT The Arctic U. of Norway,  Norway      (Gen1Int library)
  Christof Haettig,         Ruhr-University Bochum,       Germany     (CC module)
  Kasper Hald,              Aarhus University,            Denmark     (CC module)
  Asger Halkier,            Aarhus University,            Denmark     (CC module)
  Frederik Beyer Hansen,    University of Copenhagen,     Denmark     (Parallel AO-SOPPA)
  Erik D. Hedegaard,        Univ. of Southern Denmark,    Denmark     (Polarizable embedding model, QM/MM)
  Hanne Heiberg,            University of Oslo,           Norway      (geometry analysis, selected one-electron integrals)
  Trygve Helgaker,          University of Oslo,           Norway      (DALTON; ABACUS, ERI, DFT modules, London, and much more)
  Alf Christian Hennum,     University of Oslo,           Norway      (Parity violation)
  Hinne Hettema,            University of Auckland,       New Zealand (quadratic response in RESPONS; SIRIUS supersymmetry)
  Eirik Hjertenaes,         NTNU,                         Norway      (Cholesky decomposition)
  Pi A. B. Haase,           University of Copenhagen,     Denmark     (Triplet AO-SOPPA)
  Maria Francesca Iozzi,    University of Oslo,           Norway      (RPA)
  Brano Jansik              Technical Univ. of Ostrava    Czech Rep.  (DFT cubic response)
  Hans Joergen Aa. Jensen,  Univ. of Southern Denmark,    Denmark     (DALTON; SIRIUS, RESPONS, ABACUS modules, London, and much more)
  Dan Jonsson,              UiT The Arctic U. of Norway,  Norway      (cubic response in RESPONS module)
  Poul Joergensen,          Aarhus University,            Denmark     (RESPONS, ABACUS, and CC modules)
  Maciej Kaminski,          University of Warsaw,         Poland      (CPPh in RESPONS)
  Joanna Kauczor,           Linkoeping University,        Sweden      (Complex polarization propagator (CPP) module)
  Sheela Kirpekar,          Univ. of Southern Denmark,    Denmark     (Mass-velocity & Darwin integrals)
  Wim Klopper,              KIT Karlsruhe,                Germany     (R12 code in CC, SIRIUS, and ABACUS modules)
  Stefan Knecht,            ETH Zurich,                   Switzerland (Parallel CI and MCSCF)
  Rika Kobayashi,           Australian National Univ.,    Australia   (DIIS in CC, London in MCSCF)
  Henrik Koch,              NTNU,                         Norway      (CC module, Cholesky decomposition)
  Jacob Kongsted,           Univ. of Southern Denmark,    Denmark     (Polarizable embedding model, QM/MM)
  Andrea Ligabue,           University of Modena,         Italy       (CTOCD, AOSOPPA)
  Nanna H. List             Univ. of Southern Denmark,    Denmark     (Polarizable embedding model)
  Ola B. Lutnaes,           University of Oslo,           Norway      (DFT Hessian)
  Juan I. Melo,             University of Buenos Aires,   Argentina   (LRESC, Relativistic Effects on NMR Shieldings)
  Kurt V. Mikkelsen,        University of Copenhagen,     Denmark     (MC-SCRF and QM/MM)
  Rolf H. Myhre,            NTNU,                         Norway      (Cholesky, subsystems and ECC2)
  Christian Neiss,          Univ. Erlangen-Nuernberg,     Germany     (CCSD(R12))
  Christian B. Nielsen,     University of Copenhagen,     Denmark     (QM/MM)
  Patrick Norman,           Linkoeping University,        Sweden      (Cubic response and complex frequency response in RESPONS)
  Jeppe Olsen,              Aarhus University,            Denmark     (SIRIUS CI/density modules)
  Jogvan Magnus H. Olsen,   Univ. of Southern Denmark,    Denmark     (Polarizable embedding model, QM/MM)
  Anders Osted,             Copenhagen University,        Denmark     (QM/MM)
  Martin J. Packer,         University of Sheffield,      UK          (SOPPA)
  Filip Pawlowski,          Kazimierz Wielki University,  Poland      (CC3)
  Morten N. Pedersen,       Univ. of Southern Denmark,    Denmark     (Polarizable embedding model)
  Thomas B. Pedersen,       University of Oslo,           Norway      (Cholesky decomposition)
  Patricio F. Provasi,      University of Northeastern,   Argentina   (Analysis of coupling constants in localized orbitals)
  Zilvinas Rinkevicius,     KTH Stockholm,                Sweden      (open-shell DFT, ESR)
  Elias Rudberg,            KTH Stockholm,                Sweden      (DFT grid and basis info)
  Torgeir A. Ruden,         University of Oslo,           Norway      (Numerical derivatives in ABACUS)
  Kenneth Ruud,             UiT The Arctic U. of Norway,  Norway      (DALTON; ABACUS magnetic properties and much more)
  Pawel Salek,              KTH Stockholm,                Sweden      (DALTON; DFT code)
  Claire C. M. Samson       University of Karlsruhe       Germany     (Boys localization, r12 integrals in ERI)
  Alfredo Sanchez de Meras, University of Valencia,       Spain       (CC module, Cholesky decomposition)
  Trond Saue,               Paul Sabatier University,     France      (direct Fock matrix construction)
  Stephan P. A. Sauer,      University of Copenhagen,     Denmark     (SOPPA(CCSD), SOPPA prop., AOSOPPA, vibrational g-factors)
  Bernd Schimmelpfennig,    Forschungszentrum Karlsruhe,  Germany     (AMFI module)
  Kristian Sneskov,         Aarhus University,            Denmark     (Polarizable embedding model, QM/MM)
  Arnfinn H. Steindal,      UiT The Arctic U. of Norway,  Norway      (parallel QM/MM, Polarizable embedding model)
  Casper Steinmann,         Univ. of Southern Denmark,    Denmark     (QFIT, Polarizable embedding model)
  K. O. Sylvester-Hvid,     University of Copenhagen,     Denmark     (MC-SCRF)
  Peter R. Taylor,          VLSCI/Univ. of Melbourne,     Australia   (Symmetry handling ABACUS, integral transformation)
  Andrew M. Teale,          University of Nottingham,     England     (DFT-AC, DFT-D)
  David P. Tew,             University of Bristol,        England     (CCSD(R12))
  Olav Vahtras,             KTH Stockholm,                Sweden      (triplet response, spin-orbit, ESR, TDDFT, open-shell DFT)
  David J. Wilson,          La Trobe University,          Australia   (DFT Hessian and DFT magnetizabilities)
  Hans Agren,               KTH Stockholm,                Sweden      (SIRIUS module, RESPONS, MC-SCRF solvation model)
 --------------------------------------------------------------------------------

     Date and time (Linux)  : Mon Dec  3 16:08:41 2018
     Host name              : n-62-29-8                               

 * Work memory size             :  1280000000 =  9.537 gigabytes.

 * Directories for basis set searches:
   1) /zhome/d7/7/119775/My_Codes/dalton-private/build2016/basis/diffs
   2) /zhome/37/3/129401/NH3NH4/CCSD/AIMD_SAMPLING/nh4_4h2o_nd
   3) /zhome/9a/4/124800/source/dalton/build-mlcc/basis


Compilation information
-----------------------

 Who compiled             | rfaber
 Host                     | hpclogin1
 System                   | Linux-2.6.32-696.1.1.el6.x86_64
 CMake generator          | Unix Makefiles
 Processor                | x86_64
 64-bit integers          | ON
 MPI                      | OFF
 Fortran compiler         | /opt/intel/2016update2/compilers_and_libraries_201
                          | 6.2.181/linux/bin/intel64/ifort
 Fortran compiler version | ifort (IFORT) 16.0.2 20160204
 C compiler               | /opt/intel/2016update2/compilers_and_libraries_201
                          | 6.2.181/linux/bin/intel64/icc
 C compiler version       | icc (ICC) 16.0.2 20160204
 C++ compiler             | /opt/intel/2016update2/compilers_and_libraries_201
                          | 6.2.181/linux/bin/intel64/icpc
 C++ compiler version     | icpc (ICC) 16.0.2 20160204
 Static linking           | OFF
 Last Git revision        | bb4d1599ca5680a9f3980451fc8bbefdba436d59
 Git branch               | mlcc
 Configuration time       | 2017-06-13 16:11:03.928841


   Content of the .dal input file
 ----------------------------------

**DALTON
.RUN WAVE FUNCTIONS
*QMMM
.QMMM
**INTEGRALS
.DIPLEN
**WAVE FUNCTIONS
.CC
*PRINT
!To check the origin of excit
.PRINTL
   0 11
*SCF INP
.THRESH
1.0D-7
!*ORBITAL INPUT
!.MOSTART
!NEWORB
*CC INP
!.RESTART
.CCSD
.THRLEQ
 1.0D-9
.THRENR
 1.0D-10
.FROIMP
4
0
.PRINT
 1
.MAX IT
 1200
.MAXRED
 1200
.MXLRV
1199
*CCSLV
.CCMM
.MXSLIT
200
.MXINIT
4 5
*CCEXCI
.NCCEXC
 1
.IONISATION
1
1
.CVSEPARA
1
1
*CCLRSD
.DIPOLE
**END OF DALTON INPUT


   Content of the .mol file
 ----------------------------

ATOMBASIS


Atomtypes=5 Charge=1 Nosymm Angstrom
   7.00000    1    Basis=6-311G**
N          0.000000        0.000000        0.000000
   1.00000    4    Basis=6-311G**
H         -0.151199        0.910348       -0.509188
H          0.741990       -0.434273       -0.625185
H         -0.945828       -0.478483        0.096488
H          0.432792        0.166759        0.939735
   8.00000    4    Basis=6-311G**
O         -0.251984        2.228008       -1.508180
O         -2.466815       -1.519864       -0.410780
O          1.748895        0.375666        2.020819
O          2.255560       -0.953114       -1.657402
   1.00000    8    Basis=6-311G**
H         -0.743245        1.941513       -2.334070
H          0.647030        2.403066       -1.881420
H         -2.415896       -2.486667       -0.400795
H         -3.241697       -1.363763        0.170776
H          2.414780        1.059437        1.791059
H          1.885824        0.304867        3.011623
H          2.345859       -1.775228       -1.166796
H          3.035857       -0.386070       -1.380516
   0.00000    1    Basis=diffs
X          0.000000        0.000000        0.000000


       *******************************************************************
       *********** Output from DALTON general input processing ***********
       *******************************************************************

 --------------------------------------------------------------------------------
   Overall default print level:    0
   Print level for DALTON.STAT:    1

    HERMIT 1- and 2-electron integral sections will be executed
    "Old" integral transformation used (limited to max 255 basis functions)
    Wave function sections will be executed (SIRIUS module)
 --------------------------------------------------------------------------------


 Changes of defaults for *QMMM  :
 --------------------------------

 +------------------+
 |  WORD: | CHANGE: |
 +------------------+
 |   QMMM |       T |
 +------------------+
 


   ****************************************************************************
   *************** Output of molecule and basis set information ***************
   ****************************************************************************


    The two title cards from your ".mol" input:
    ------------------------------------------------------------------------
 1:                                                                         
 2:                                                                         
    ------------------------------------------------------------------------

  Coordinates are entered in Angstrom and converted to atomic units.
          - Conversion factor : 1 bohr = 0.52917721 A

  Atomic type no.    1
  --------------------
  Nuclear charge:   7.00000
  Number of symmetry independent centers:    1
  Number of basis sets to read;    2
  The basis set is "6-311G**" from the basis set library.
  Basis set file used for this atomic type with Z =   7 :
     "/zhome/9a/4/124800/source/dalton/build-mlcc/basis/6-311G**"

  Info about the basis set file: your basis has no documentation.
  Basis set: 6-311G**                                                                        

  Atomic type no.    2
  --------------------
  Nuclear charge:   1.00000
  Number of symmetry independent centers:    4
  Number of basis sets to read;    2
  The basis set is "6-311G**" from the basis set library.
  Basis set file used for this atomic type with Z =   1 :
     "/zhome/9a/4/124800/source/dalton/build-mlcc/basis/6-311G**"

  Info about the basis set file: your basis has no documentation.
  Basis set: 6-311G**                                                                        

  Atomic type no.    3
  --------------------
  Nuclear charge:   8.00000
  Number of symmetry independent centers:    4
  Number of basis sets to read;    2
  The basis set is "6-311G**" from the basis set library.
  Basis set file used for this atomic type with Z =   8 :
     "/zhome/9a/4/124800/source/dalton/build-mlcc/basis/6-311G**"

  Info about the basis set file: your basis has no documentation.
  Basis set: 6-311G**                                                                        

  Atomic type no.    4
  --------------------
  Nuclear charge:   1.00000
  Number of symmetry independent centers:    8
  Number of basis sets to read;    2
  The basis set is "6-311G**" from the basis set library.
  Basis set file used for this atomic type with Z =   1 :
     "/zhome/9a/4/124800/source/dalton/build-mlcc/basis/6-311G**"

  Info about the basis set file: your basis has no documentation.
  Basis set: 6-311G**                                                                        

  Atomic type no.    5
  --------------------
  Nuclear charge:   0.00000
  Number of symmetry independent centers:    1
  Number of basis sets to read;    2
  The basis set is "diffs" from the basis set library.
  Basis set file used for this atomic type with Z =   0 :
     "/zhome/9a/4/124800/source/dalton/build-mlcc/basis/diffs"

  Info about the basis set file: your basis has no documentation.
  Basis set: diffs                                                                           


                         SYMGRP: Point group information
                         -------------------------------

@    Point group: C1 


                                 Isotopic Masses
                                 ---------------

                           N          14.003074
                           H           1.007825
                           H           1.007825
                           H           1.007825
                           H           1.007825
                           O          15.994915
                           O          15.994915
                           O          15.994915
                           O          15.994915
                           H           1.007825
                           H           1.007825
                           H           1.007825
                           H           1.007825
                           H           1.007825
                           H           1.007825
                           H           1.007825
                           H           1.007825

                       Total mass:    90.076634 amu
                       Natural abundance:  98.500 %

 Center-of-mass coordinates (a.u.):    0.516119    0.040928   -0.570358


  Atoms and basis sets
  --------------------

  Number of atom types :    5
  Total number of atoms:   18

  label    atoms   charge   prim   cont     basis
  ----------------------------------------------------------------------
  N           1    7.0000    31    18      [11s5p1d|4s3p1d]                                   
  H           4    1.0000     8     6      [5s1p|3s1p]                                        
  O           4    8.0000    31    18      [11s5p1d|4s3p1d]                                   
  H           8    1.0000     8     6      [5s1p|3s1p]                                        
  X           1    0.0000     1     1      [1s|1s]                                            
  ----------------------------------------------------------------------
  total:     18   51.0000   252   163
  ----------------------------------------------------------------------
  Spherical harmonic basis used.

  Threshold for neglecting AO integrals:  1.00D-12


  Cartesian Coordinates (a.u.)
  ----------------------------

  Total number of coordinates:   54
  N       :     1  x   0.0000000000    2  y   0.0000000000    3  z   0.0000000000
  H       :     4  x  -0.2857247004    5  y   1.7203083984    6  z  -0.9622258661
  H       :     7  x   1.4021578875    8  y  -0.8206570335    9  z  -1.1814284275
  H       :    10  x  -1.7873558814   11  y  -0.9042018255   12  z   0.1823358943
  H       :    13  x   0.8178583491   14  y   0.3151288389   15  z   1.7758417801
  O       :    16  x  -0.4761807479   17  y   4.2103249243   18  z  -2.8500471472
  O       :    19  x  -4.6616047510   20  y  -2.8721267072   21  z  -0.7762616976
  O       :    22  x   3.3049325714   23  y   0.7099058545   24  z   3.8187944582
  O       :    25  x   4.2623906585   26  y  -1.8011244259   27  z  -3.1320358590
  H       :    28  x  -1.4045294938   29  y   3.6689278381   30  z  -4.4107530566
  H       :    31  x   1.2227094947   32  y   4.5411366003   33  z  -3.5553685261
  H       :    34  x  -4.5653817865   35  y  -4.6991195941   36  z  -0.7573927823
  H       :    37  x  -6.1259195102   38  y  -2.5771385694   39  z   0.3227198687
  H       :    40  x   4.5632728521   41  y   2.0020457767   42  z   3.3846109837
  H       :    43  x   3.5636908799   44  y   0.5761151345   45  z   5.6911426617
  H       :    46  x   4.4330310379   47  y  -3.3546947294   48  z  -2.2049248837
  H       :    49  x   5.7369382846   50  y  -0.7295665651   51  z  -2.6087971512
  X       :    52  x   0.0000000000   53  y   0.0000000000   54  z   0.0000000000

  Max    interatomic separation is    6.5399 Angstrom (   12.3586 Bohr)
  between atoms   17 and   13, "H     " and "H     ".

  Min HX interatomic separation is    0.9616 Angstrom (    1.8172 Bohr)

  Min YX interatomic separation is    2.6988 Angstrom (    5.1000 Bohr)


  Bond distances (Angstrom):
  --------------------------

                  atom 1     atom 2       distance
                  ------     ------       --------
  bond distance:  H          N            1.053977
  bond distance:  H          N            1.063014
  bond distance:  H          N            1.064353
  bond distance:  H          N            1.047960
  bond distance:  H          O            1.002752
  bond distance:  H          O            0.989030
  bond distance:  H          O            0.968194
  bond distance:  H          O            0.981334
  bond distance:  H          O            0.981700
  bond distance:  H          O            1.002724
  bond distance:  H          O            0.961623
  bond distance:  H          O            1.003528


  Bond angles (degrees):
  ----------------------

                  atom 1     atom 2     atom 3         angle
                  ------     ------     ------         -----
  bond angle:     H          N          H             99.722
  bond angle:     H          N          H            107.734
  bond angle:     H          N          H            110.795
  bond angle:     H          N          H            119.336
  bond angle:     H          N          H            107.706
  bond angle:     H          N          H            110.931
  bond angle:     H          O          H            100.666
  bond angle:     H          O          H            101.201
  bond angle:     H          O          H            100.825
  bond angle:     H          O          H            105.622




 Principal moments of inertia (u*A**2) and principal axes
 --------------------------------------------------------

   IA     306.635488          0.941379    0.247287    0.229465
   IB     417.294003         -0.043284   -0.586037    0.809127
   IC     453.263654         -0.334561    0.771628    0.540979


 Rotational constants
 --------------------

               A                   B                   C

           1648.1426           1211.0862           1114.9780 MHz
            0.054976            0.040397            0.037192 cm-1


@  Nuclear repulsion energy :  201.912454607712 Hartree

  Number of floating/multiple basis set orbitals :    1


                     .---------------------------------------.
                     | Starting in Integral Section (HERMIT) |
                     `---------------------------------------'



 ***************************************************************************************
 ****************** Output from **INTEGRALS input processing (HERMIT) ******************
 ***************************************************************************************



    *************************************************************************
    ****************** Output from HERMIT input processing ******************
    *************************************************************************


 Default print level:        1

 * Nuclear model: Point charge

 Calculation of one- and two-electron Hamiltonian integrals.

 The following one-electron property integrals are calculated as requested:
          - overlap integrals
          - dipole length integrals

 Center of mass  (bohr):      0.516118730725      0.040927981202     -0.570358046421
 Operator center (bohr):      0.000000000000      0.000000000000      0.000000000000
 Gauge origin    (bohr):      0.000000000000      0.000000000000      0.000000000000
 Dipole origin   (bohr):      0.000000000000      0.000000000000      0.000000000000
 
  *********************************** 
  QMMM electrostatic potential: 
  Multipole order                                    0
  Isotropic polarization  
  *********************************** 
 
  ---------------- 
  QMMM information 
  ---------------- 
 
  MM coordinates in au 
  -------------------- 
     1    -11.581156      4.263993     -9.724466
     2    -12.066187      4.018127    -11.424237
     3     -9.634236      4.293582     -9.731131
     4      5.062557      4.288832     -2.820110
     5      5.742878      5.949774     -3.455965
     6      6.321034      2.923079     -2.935287
     7      6.443080      8.848758     -4.066498
     8      6.703911     10.106106     -2.572615
     9      8.131333      8.796256     -4.865982
    10     11.361143     -7.237846     -9.878283
    11     12.336028     -6.116930    -11.038092
    12     10.998404     -6.073597     -8.646593
    13      5.576278      5.120005      2.501143
    14      7.335199      5.728588      2.893050
    15      5.319195      4.757248      0.732853
    16     11.517790      8.826491     -6.623069
    17     11.221364      7.217845     -7.686083
    18     11.546331     10.318764     -7.711812
    19     -2.174079     -8.879388      7.373095
    20     -3.275978    -10.419436      7.162808
    21     -2.891600     -8.061294      8.959146
    22      7.780673     -3.250754     11.462808
    23      6.861138     -3.788959     12.992615
    24      8.017343     -4.726182     10.301884
    25      9.394858    -10.262607      4.497367
    26     11.069846     -9.670352      3.891628
    27      9.814892    -11.467187      5.823189
    28      0.260941      5.792498     11.288098
    29      1.169642      7.039368     10.100289
    30      1.653080      4.687343     11.660999
    31     -7.838057      0.491686      2.747811
    32     -9.681050      0.925718      3.056163
    33     -6.721026      2.001146      3.209857
    34      7.630251    -10.934687     -9.607740
    35      8.983303     -9.693397    -10.061100
    36      6.638483    -10.336192     -8.046220
    37      3.742901     -3.755774     -8.157388
    38      3.536280     -5.726930     -8.002132
    39      4.195530     -3.182250     -6.431687
    40    -10.306447      1.339502     -2.207017
    41     -9.417981      0.416787     -3.619084
    42     -9.023340      1.341311     -0.673744
    43     10.470680     -4.086892     -5.254119
    44      8.925912     -5.067796     -5.400418
    45      9.996262     -2.325489     -5.749900
    46     10.434488      6.551541      3.144591
    47     11.967579      7.248300      2.406610
    48     10.456287      7.482681      4.794027
    49      7.362462      8.346331     10.927460
    50      6.738860      7.025839     12.041057
    51      7.205000      9.965083     12.032351
    52     -1.702388      8.079600      0.842782
    53     -0.249283      8.190406      2.123081
    54     -1.174565      6.850231     -0.455787
    55     11.039357      1.695768      3.815312
    56     11.190901      1.255887      5.594007
    57     10.649644      3.528782      3.892730
    58      1.559508     11.551697     -6.078272
    59      3.230810     10.907887     -5.757514
    60      0.571839     10.176642     -6.894205
    61     -9.826810     -4.707062      4.782101
    62    -11.222513     -5.040703      3.587178
    63     -9.348706     -2.958005      4.394309
    64     -0.764532     -3.620432      5.498801
    65      1.037787     -3.628639      5.913520
    66     -1.306404     -5.456384      5.512346
    67     -3.453537      3.611954      8.432096
    68     -3.365961      1.701194      8.515297
    69     -1.758585      4.056898      9.161829
    70     -8.805515     -8.490602     -5.096425
    71     -7.444929     -9.310386     -6.201628
    72     -9.640670     -7.063335     -5.908920
    73     -1.963834      8.561342     -7.928888
    74     -3.100479      7.528382     -6.951225
    75     -1.514117      7.288987     -9.351555
    76      9.977826     -5.137436      1.243230
    77      8.225150     -5.086570      1.754444
    78     10.085174     -3.762224      0.006172
    79     -2.590200     -6.767162    -11.109883
    80     -3.352401     -8.295801    -10.240571
    81     -0.837402     -6.768510    -10.449086
    82      6.033935    -11.574316      0.426904
    83      7.532218    -11.150728      1.349514
    84      5.419933     -9.806556      0.241719
    85     -6.737875     -0.928483     -5.332503
    86     -6.950324     -2.386921     -6.483607
    87     -5.901380     -1.811055     -3.812180
    88      3.024257     -9.849838      9.312321
    89      1.157504     -9.653432      8.832196
    90      3.099814    -11.670450      8.896320
    91      0.435485     -0.071331    -10.624790
    92     -1.154836     -0.699529    -11.501778
    93      1.394807     -1.566621     -9.877587
    94      3.996610     -1.176171      8.513717
    95      2.518612     -0.872615      9.681617
    96      5.288219     -1.545135      9.830548
    97     -5.152030      4.900617      3.532406
    98     -4.050830      4.545969      5.081218
    99     -4.239317      6.062648      2.423290
   100     -7.953942     -9.429329      3.680548
   101     -6.793652     -8.890993      2.263748
   102     -8.193221     -7.944908      4.674256
   103     -5.341969    -10.766849     -8.803359
   104     -6.570685    -11.062927    -10.098249
   105     -4.170399    -12.235211     -8.459355
   106      7.169313     -6.775638      7.671887
   107      8.230729     -7.867270      6.548961
   108      5.776836     -7.989380      8.222799
   109     -8.172637     10.275590     11.163491
   110     -7.652994      8.633023     11.971725
   111     -7.074883     10.421488      9.621081
   112     -5.378782     -8.063970     -1.170028
   113     -3.801059     -9.176332     -1.315089
   114     -6.598808     -8.087368     -2.692023
   115     10.947767      0.873318      9.178256
   116     12.396603     -0.394477      9.493485
   117      9.284315     -0.133492      9.449589
   118      4.946889     -4.275107      3.462609
   119      5.777639     -4.991557      5.099260
   120      4.715526     -2.458543      3.594036
   121      3.060022      8.793190      8.345700
   122      2.988778      9.133037      6.386970
   123      4.821014      8.538274      8.845063
   124      8.671883      0.104001     -0.965779
   125      8.820455      0.300414      0.860995
   126     10.489700      0.625254     -1.524023
   127     -5.981726      5.513242    -10.959858
   128     -5.416180      4.733046    -12.537683
   129     -4.859115      4.747788     -9.723646
   130     -8.831423     -2.711611      9.816026
   131     -7.040369     -2.208226      9.498671
   132     -9.393717     -3.788937      8.306023
   133      9.149944      0.140728     -8.126030
   134      9.012317     -1.116652     -9.493164
   135     10.521576      1.314456     -8.669704
   136      2.977092      9.263092      3.198694
   137      4.099470     10.404496      2.105574
   138      3.880405      7.561590      3.189877
   139     -3.074235      2.630937     -7.243819
   140     -1.887177      1.560143     -8.146133
   141     -4.294939      1.502342     -6.392331
   142     -3.328360     -2.184178      9.840635
   143     -3.076969     -3.683868     10.909202
   144     -2.419010     -2.540323      8.129868
   145      1.761939     -8.251453     -9.276435
   146      1.418976     -9.684714     -8.220791
   147      2.658941     -8.801171    -10.708613
   148     -7.329471     -4.625743     -8.991975
   149     -5.651923     -5.521438     -9.345346
   150     -7.926116     -3.519350    -10.451357
   151      5.645188      4.663506     -8.934185
   152      4.902080      4.739155     -7.337880
   153      6.997714      3.328564     -8.696669
   154     10.931034      9.753185      7.895659
   155     12.454429      9.840490      8.972743
   156      9.877888      8.795422      9.186951
   157      7.027294     -8.101749     -4.925301
   158      5.621298     -7.404773     -3.766515
   159      8.268362     -8.991015     -3.845152
   160      3.380815     -7.478827     -0.335661
   161      3.415901     -6.321491      1.102856
   162      1.599738     -8.083880     -0.586520
   163     10.747683     -9.463679     -1.793256
   164     12.361589     -9.697409     -2.812353
   165     11.132649     -7.877391     -1.067665
   166     -5.737371      7.340301     -3.925834
   167     -5.603920      8.625154     -2.672625
   168     -7.543403      7.526021     -4.602912
   169     -5.532797     10.427159      6.515194
   170     -5.373113      8.778936      5.673988
   171     -6.631094     11.460892      5.411739
   172     -9.356898      9.641729      1.135009
   173    -10.466849     10.374568     -0.013003
   174     -9.245519     11.055880      2.301395
   175     -0.905428    -10.578598     -1.279488
   176     -0.981841    -12.244741     -0.350493
   177     -0.017102    -11.019775     -2.932793
 
  MM charges 
  ---------- 
     1     -0.674440
     2      0.337220
     3      0.337220
     4     -0.674440
     5      0.337220
     6      0.337220
     7     -0.674440
     8      0.337220
     9      0.337220
    10     -0.674440
    11      0.337220
    12      0.337220
    13     -0.674440
    14      0.337220
    15      0.337220
    16     -0.674440
    17      0.337220
    18      0.337220
    19     -0.674440
    20      0.337220
    21      0.337220
    22     -0.674440
    23      0.337220
    24      0.337220
    25     -0.674440
    26      0.337220
    27      0.337220
    28     -0.674440
    29      0.337220
    30      0.337220
    31     -0.674440
    32      0.337220
    33      0.337220
    34     -0.674440
    35      0.337220
    36      0.337220
    37     -0.674440
    38      0.337220
    39      0.337220
    40     -0.674440
    41      0.337220
    42      0.337220
    43     -0.674440
    44      0.337220
    45      0.337220
    46     -0.674440
    47      0.337220
    48      0.337220
    49     -0.674440
    50      0.337220
    51      0.337220
    52     -0.674440
    53      0.337220
    54      0.337220
    55     -0.674440
    56      0.337220
    57      0.337220
    58     -0.674440
    59      0.337220
    60      0.337220
    61     -0.674440
    62      0.337220
    63      0.337220
    64     -0.674440
    65      0.337220
    66      0.337220
    67     -0.674440
    68      0.337220
    69      0.337220
    70     -0.674440
    71      0.337220
    72      0.337220
    73     -0.674440
    74      0.337220
    75      0.337220
    76     -0.674440
    77      0.337220
    78      0.337220
    79     -0.674440
    80      0.337220
    81      0.337220
    82     -0.674440
    83      0.337220
    84      0.337220
    85     -0.674440
    86      0.337220
    87      0.337220
    88     -0.674440
    89      0.337220
    90      0.337220
    91     -0.674440
    92      0.337220
    93      0.337220
    94     -0.674440
    95      0.337220
    96      0.337220
    97     -0.674440
    98      0.337220
    99      0.337220
   100     -0.674440
   101      0.337220
   102      0.337220
   103     -0.674440
   104      0.337220
   105      0.337220
   106     -0.674440
   107      0.337220
   108      0.337220
   109     -0.674440
   110      0.337220
   111      0.337220
   112     -0.674440
   113      0.337220
   114      0.337220
   115     -0.674440
   116      0.337220
   117      0.337220
   118     -0.674440
   119      0.337220
   120      0.337220
   121     -0.674440
   122      0.337220
   123      0.337220
   124     -0.674440
   125      0.337220
   126      0.337220
   127     -0.674440
   128      0.337220
   129      0.337220
   130     -0.674440
   131      0.337220
   132      0.337220
   133     -0.674440
   134      0.337220
   135      0.337220
   136     -0.674440
   137      0.337220
   138      0.337220
   139     -0.674440
   140      0.337220
   141      0.337220
   142     -0.674440
   143      0.337220
   144      0.337220
   145     -0.674440
   146      0.337220
   147      0.337220
   148     -0.674440
   149      0.337220
   150      0.337220
   151     -0.674440
   152      0.337220
   153      0.337220
   154     -0.674440
   155      0.337220
   156      0.337220
   157     -0.674440
   158      0.337220
   159      0.337220
   160     -0.674440
   161      0.337220
   162      0.337220
   163     -0.674440
   164      0.337220
   165      0.337220
   166     -0.674440
   167      0.337220
   168      0.337220
   169     -0.674440
   170      0.337220
   171      0.337220
   172     -0.674440
   173      0.337220
   174      0.337220
   175     -0.674440
   176      0.337220
   177      0.337220
 
  MM isotropic polarizabilities in au 
  ----------------------------------- 
     1      5.739350
     2      2.308390
     3      2.308390
     4      5.739350
     5      2.308390
     6      2.308390
     7      5.739350
     8      2.308390
     9      2.308390
    10      5.739350
    11      2.308390
    12      2.308390
    13      5.739350
    14      2.308390
    15      2.308390
    16      5.739350
    17      2.308390
    18      2.308390
    19      5.739350
    20      2.308390
    21      2.308390
    22      5.739350
    23      2.308390
    24      2.308390
    25      5.739350
    26      2.308390
    27      2.308390
    28      5.739350
    29      2.308390
    30      2.308390
    31      5.739350
    32      2.308390
    33      2.308390
    34      5.739350
    35      2.308390
    36      2.308390
    37      5.739350
    38      2.308390
    39      2.308390
    40      5.739350
    41      2.308390
    42      2.308390
    43      5.739350
    44      2.308390
    45      2.308390
    46      5.739350
    47      2.308390
    48      2.308390
    49      5.739350
    50      2.308390
    51      2.308390
    52      5.739350
    53      2.308390
    54      2.308390
    55      5.739350
    56      2.308390
    57      2.308390
    58      5.739350
    59      2.308390
    60      2.308390
    61      5.739350
    62      2.308390
    63      2.308390
    64      5.739350
    65      2.308390
    66      2.308390
    67      5.739350
    68      2.308390
    69      2.308390
    70      5.739350
    71      2.308390
    72      2.308390
    73      5.739350
    74      2.308390
    75      2.308390
    76      5.739350
    77      2.308390
    78      2.308390
    79      5.739350
    80      2.308390
    81      2.308390
    82      5.739350
    83      2.308390
    84      2.308390
    85      5.739350
    86      2.308390
    87      2.308390
    88      5.739350
    89      2.308390
    90      2.308390
    91      5.739350
    92      2.308390
    93      2.308390
    94      5.739350
    95      2.308390
    96      2.308390
    97      5.739350
    98      2.308390
    99      2.308390
   100      5.739350
   101      2.308390
   102      2.308390
   103      5.739350
   104      2.308390
   105      2.308390
   106      5.739350
   107      2.308390
   108      2.308390
   109      5.739350
   110      2.308390
   111      2.308390
   112      5.739350
   113      2.308390
   114      2.308390
   115      5.739350
   116      2.308390
   117      2.308390
   118      5.739350
   119      2.308390
   120      2.308390
   121      5.739350
   122      2.308390
   123      2.308390
   124      5.739350
   125      2.308390
   126      2.308390
   127      5.739350
   128      2.308390
   129      2.308390
   130      5.739350
   131      2.308390
   132      2.308390
   133      5.739350
   134      2.308390
   135      2.308390
   136      5.739350
   137      2.308390
   138      2.308390
   139      5.739350
   140      2.308390
   141      2.308390
   142      5.739350
   143      2.308390
   144      2.308390
   145      5.739350
   146      2.308390
   147      2.308390
   148      5.739350
   149      2.308390
   150      2.308390
   151      5.739350
   152      2.308390
   153      2.308390
   154      5.739350
   155      2.308390
   156      2.308390
   157      5.739350
   158      2.308390
   159      2.308390
   160      5.739350
   161      2.308390
   162      2.308390
   163      5.739350
   164      2.308390
   165      2.308390
   166      5.739350
   167      2.308390
   168      2.308390
   169      5.739350
   170      2.308390
   171      2.308390
   172      5.739350
   173      2.308390
   174      2.308390
   175      5.739350
   176      2.308390
   177      2.308390


     ************************************************************************
     ************************** Output from HERINT **************************
     ************************************************************************



                      Nuclear contribution to dipole moments
                      --------------------------------------

                 au               Debye          C m (/(10**-30)

      x     27.00704926        68.64506774       228.97529911
      y      1.71412144         4.35686183        14.53292674
      z    -27.84064147       -70.76384766      -236.04278818



 Threshold for neglecting two-electron integrals:  1.00D-12
 HERMIT - Number of two-electron integrals written:    38806377 ( 43.4% )
 HERMIT - Megabytes written:                            444.355

  Time used in TWOINT     is       7.24 seconds
  Total CPU  time used in HERMIT:   7.44 seconds
  Total wall time used in HERMIT:   8.42 seconds


                        .----------------------------------.
                        | End of Integral Section (HERMIT) |
                        `----------------------------------'



                   .--------------------------------------------.
                   | Starting in Wave Function Section (SIRIUS) |
                   `--------------------------------------------'

NCCEXCI for singlet:    1
 CCSD_INPUT: core-val requested
 Requested number of virtual orbs per sym
                     1
 Indices of requested virtual orbs
                     1
 CCSD_INPUT: core-val requested
 Requested number of core orbs per sym
                     1
 Indices of requested core orbs
                     1

 *** Output from Huckel module :

     Using EWMO model:          T
     Using EHT  model:          F
     Number of Huckel orbitals each symmetry:   37

 EWMO - Energy Weighted Maximum Overlap - is a Huckel type method,
        which normally is better than Extended Huckel Theory.
 Reference: Linderberg and Ohrn, Propagators in Quantum Chemistry (Wiley, 1973)

 Huckel EWMO eigenvalues for symmetry :  1
          -20.684766     -20.684707     -20.684534     -20.684522     -15.674981
           -1.817412      -1.620395      -1.615994      -1.601757      -1.473936
           -0.826322      -0.802965      -0.794033      -0.771294      -0.765614
           -0.757644      -0.750653      -0.686027      -0.679326      -0.669317
           -0.635216      -0.611626      -0.570459      -0.568818      -0.544559
           -0.260422      -0.239860      -0.237438      -0.236262      -0.181204
           -0.180618      -0.179655      -0.174546      -0.173915      -0.149586
           -0.145151      -0.140262

 **********************************************************************
 *SIRIUS* a direct, restricted step, second order MCSCF program       *
 **********************************************************************

 
     Date and time (Linux)  : Mon Dec  3 16:08:50 2018
     Host name              : n-62-29-8                               

 Title lines from ".mol" input file:
                                                                             
                                                                             

 Print level on unit LUPRI =   2 is   0
 Print level on unit LUW4  =   2 is  11

@    (Integral direct) CC calculation.

@    This is a combination run starting with
@              a restricted, closed shell Hartree-Fock calculation


 Initial molecular orbitals are obtained according to
 ".MOSTART EWMO  " input option

@    QM part is embedded in an environment :

@         Model: QMMM

     Wave function specification
     ============================

     For the specification of the Coupled Cluster: see later.

@    Wave function type        --- CC ---
@    Number of closed shell electrons          50
@    Number of electrons in active shells       0
@    Total charge of the molecule               1

@    Spin multiplicity and 2 M_S                1         0
@    Total number of symmetries                 1 (point group: C1 )
@    Reference state symmetry                   1 (irrep name : A  )

     Orbital specifications
     ======================
@    Abelian symmetry species          All |    1
@                                          |  A  
                                       --- |  ---
@    Occupied SCF orbitals              25 |   25
@    Secondary orbitals                138 |  138
@    Total number of orbitals          163 |  163
@    Number of basis functions         163 |  163

     Optimization information
     ========================
@    Number of configurations                 1
@    Number of orbital rotations           3450
     ------------------------------------------
@    Total number of variables             3451

     Maximum number of Fock   iterations      0
     Maximum number of DIIS   iterations     60
     Maximum number of QC-SCF iterations     60
     Threshold for SCF convergence     1.00D-07


 Changes of defaults for CC:
 ---------------------------


 -Implicit frozen core calculation
 -Excitation energies calculated
 -One-photon absorption strengths will be calculated
 -Oscillator strengths calculated
  
* Read MO coefficients from SIRIUS.RST with label "NEWORB  " and header info:  3Dec18  REORTHO 


 ***********************************************
 ***** DIIS acceleration of SCF iterations *****
 ***********************************************

 C1-DIIS algorithm; max error vectors =    8
 -----------------------------------------------------------------------------

 *** DIIS iteration number    1
 RDSUPM called. NFMAT, ISYMDM(1:NFMAT)                     1
                     1

Calculating AOSUPINT
     (Precalculated two-electron integrals are transformed to P-supermatrix elements.
      Threshold for discarding integrals :  1.00D-12 )
  CPU  time used in FORMSUP    is   5.49 seconds
  WALL time used in FORMSUP    is  20.22 seconds

 ITDIIS, energy, error norm, change in energy, scr.thr., difden:
@ DIIS iter.   1    -360.176404561        4.00590D+00   -3.60D+02  -20    F

 (DIIS_RED) Control Parameters C2DIIS =         F NEVC =    1


 (DIIS_RED) B matrix:

               Column   1
       1      16.04726623
    ==== End of matrix output ====

 DIIS C vector; C2DIIS = F, LAMBDA = -1.60D+01
    1.000000
* Read MO coefficients from SIRIUS.RST with label "NEWORB  " and header info:  3Dec18  DIIS   1
      Virial theorem: -V/T =      2.002621
@      MULPOP N       0.07; H       0.19; H       0.16; H       0.15; H       0.17; O      -0.57; O      -0.59; O      -0.56; O      -0.60; H       0.32; 
@             H       0.32; H       0.32; H       0.32; H       0.31; H       0.30; H       0.34; H       0.33; 
   1  Level shift: doubly occupied orbital energies shifted by -2.00D-01

 DIIS Fock eigenvalues in symmetry 1
      -20.86221      -20.86049      -20.83459      -20.82937      -16.41620
       -1.70717       -1.68493       -1.67478       -1.65637       -1.64686
       -1.19194       -1.18517       -1.16351       -1.06445       -1.03898
       -1.02349       -1.01005       -0.92752       -0.92145       -0.90188
       -0.89819       -0.88736       -0.88349       -0.85961       -0.85192
       -0.01830       -0.00005        0.04384        0.04888        0.06621
        0.10551        0.12360        0.15652        0.16561        0.17473
        0.18072        0.18555        0.22068        0.23934        0.25860
        0.28276        0.40294        0.42301        0.43887        0.45086
        0.46476        0.46999        0.49756        0.51061        0.51836
        0.67896        0.69595        0.70991        0.81488        0.84760
        0.86802        0.87828        0.91490        0.92956        0.94724
        0.97839        0.99340        1.00287        1.01832        1.03142
        1.05102        1.06493        1.11942        1.22478        1.26836
        1.29370        1.30322        1.32476        1.33064        1.34402
        1.36371        1.37209        1.38290        1.38961        1.45231
        1.50018        1.50763        1.53140        1.55314        1.57181
        1.63863        1.68552        1.72252        1.79345        1.81490
        1.82018        1.94125        1.96579        1.98638        2.04379
        2.05413        2.06617        2.08360        2.12722        2.15689
        2.18604        2.19260        2.22665        2.23625        2.24726
        2.38548        2.44453        2.48289        2.49052        2.52101
        2.53806        2.58706        2.62639        2.64419        2.64881
        2.69377        2.70382        2.72711        2.77320        2.97628
        3.03309        3.05953        3.11516        3.29193        3.33722
        3.35153        3.35490        3.36206        3.36598        3.38111
        3.40646        3.51052        3.52272        3.53135        3.55950
        3.82086        3.84262        3.84720        3.85180        4.06493
        4.09809        4.11235        4.12701        4.64415        4.77040
        4.81071        5.18675        5.24493        5.26998        5.31202
        5.69271        5.71789        5.75872        5.77202        5.90433
        5.92160        5.95837        5.97848       36.37438       51.42343
       51.42634       51.45529       51.46256
 Time used in FCKEIG, thr_jaco:   5.20D-02  6.10D-02  1.71D-04
 CPU and wall times used in FCKEIG, THR_FCKEIG:   5.20D-02  6.10D-02  4.01D-02
 -----------------------------------------------------------------------------

 *** DIIS iteration number    2
 RDSUPM called. NFMAT, ISYMDM(1:NFMAT)                     1
                     1

 ITDIIS, energy, error norm, change in energy, scr.thr., difden:
@ DIIS iter.   2    -361.078965209        1.11432D+00   -9.03D-01  -20    F

 (DIIS_RED) Control Parameters C2DIIS =         F NEVC =    2


 (DIIS_RED) B matrix:

               Column   1     Column   2
       1      16.04726623
       2       0.82612047     1.24170388
    ==== End of matrix output ====

 DIIS C vector; C2DIIS = F, LAMBDA = -1.23D+00
    0.026577    0.973423
* Read MO coefficients from SIRIUS.RST with label "NEWORB  " and header info:  3Dec18  DIIS   2
      Virial theorem: -V/T =      2.002182
@      MULPOP N      -0.57; H       0.34; H       0.30; H       0.34; H       0.34; O      -0.54; O      -0.56; O      -0.57; O      -0.54; H       0.32; 
@             H       0.29; H       0.31; H       0.30; H       0.30; H       0.33; H       0.27; H       0.33; 
   2  Level shift: doubly occupied orbital energies shifted by -1.00D-01

 DIIS Fock eigenvalues in symmetry 1
      -20.80883      -20.79573      -20.78469      -20.76944      -15.63826
       -1.57309       -1.56073       -1.54291       -1.54093       -1.37555
       -0.93676       -0.91125       -0.89783       -0.89481       -0.88754
       -0.88186       -0.86141       -0.81477       -0.80073       -0.78344
       -0.77682       -0.75222       -0.74261       -0.72468       -0.70521
       -0.00005        0.03469        0.08382        0.09188        0.10179
        0.13420        0.18141        0.18346        0.18945        0.19597
        0.23919        0.27220        0.28465        0.33226        0.35658
        0.37532        0.44302        0.46473        0.47980        0.49979
        0.50813        0.51548        0.55005        0.55375        0.59547
        0.79677        0.81304        0.82518        0.86159        0.88148
        0.92494        0.94413        0.95905        0.97856        0.98015
        1.01196        1.02405        1.04706        1.05893        1.07090
        1.15170        1.18096        1.21217        1.26671        1.31471
        1.33894        1.36906        1.38074        1.38591        1.40927
        1.42358        1.43759        1.44257        1.44730        1.51225
        1.57149        1.58801        1.61680        1.64833        1.67467
        1.73470        1.76591        1.78737        1.85426        1.88216
        1.88614        2.03467        2.04996        2.07342        2.10224
        2.11509        2.11641        2.13513        2.22295        2.23641
        2.26538        2.30519        2.31351        2.33422        2.35627
        2.47855        2.51042        2.57168        2.58841        2.61192
        2.63347        2.67077        2.72315        2.74254        2.75528
        2.77136        2.81321        2.90376        2.97696        3.13158
        3.24005        3.29699        3.29964        3.31929        3.36659
        3.38192        3.38643        3.40256        3.40853        3.43011
        3.51217        3.53972        3.55501        3.57870        3.59152
        3.85036        3.86969        3.87481        3.87860        4.09003
        4.12608        4.13430        4.15384        4.99593        5.12736
        5.16090        5.19738        5.25719        5.27722        5.33908
        5.69926        5.73122        5.76825        5.77748        5.92892
        5.93439        5.97947        6.00399       37.03701       51.38058
       51.39180       51.40979       51.42283
 Time used in FCKEIG, thr_jaco:   3.40D-02  4.20D-02  4.74D-05
 CPU and wall times used in FCKEIG, THR_FCKEIG:   3.40D-02  4.20D-02  1.11D-02
 -----------------------------------------------------------------------------

 *** DIIS iteration number    3
 RDSUPM called. NFMAT, ISYMDM(1:NFMAT)                     1
                     1

 ITDIIS, energy, error norm, change in energy, scr.thr., difden:
@ DIIS iter.   3    -361.152168458        3.72862D-01   -7.32D-02  -20    F

 (DIIS_RED) Control Parameters C2DIIS =         F NEVC =    3


 (DIIS_RED) B matrix:

               Column   1     Column   2     Column   3
       1      16.04726623
       2       0.82612047     1.24170388
       3       0.78373113     0.00624722     0.13902623
    ==== End of matrix output ====

 DIIS C vector; C2DIIS = F, LAMBDA = -9.61D-02
   -0.045333    0.102848    0.942486
* Read MO coefficients from SIRIUS.RST with label "NEWORB  " and header info:  3Dec18  DIIS   3
      Virial theorem: -V/T =      2.002866
@      MULPOP N      -0.40; H       0.32; H       0.27; H       0.31; H       0.31; O      -0.60; O      -0.63; O      -0.64; O      -0.59; H       0.35; 
@             H       0.31; H       0.34; H       0.33; H       0.33; H       0.36; H       0.29; H       0.35; 
   3  Level shift: doubly occupied orbital energies shifted by -5.00D-02

 DIIS Fock eigenvalues in symmetry 1
      -20.71724      -20.70709      -20.68671      -20.68153      -15.79639
       -1.50432       -1.49340       -1.47801       -1.46803       -1.37731
       -0.87082       -0.86783       -0.86446       -0.83946       -0.83186
       -0.82724       -0.81273       -0.74429       -0.73715       -0.71954
       -0.71485       -0.67794       -0.67370       -0.65427       -0.63674
       -0.00005        0.04037        0.08975        0.09630        0.10794
        0.13931        0.18271        0.18882        0.19364        0.20176
        0.24042        0.27439        0.28320        0.33261        0.35730
        0.37107        0.45480        0.47425        0.48933        0.50713
        0.51835        0.52505        0.55925        0.56298        0.59483
        0.79205        0.80821        0.81714        0.87239        0.89560
        0.92566        0.94916        0.97232        0.98941        0.99421
        1.02425        1.03641        1.06024        1.07227        1.08531
        1.15027        1.17363        1.21295        1.27734        1.32708
        1.35151        1.38044        1.39275        1.39967        1.41979
        1.43686        1.44508        1.45623        1.46088        1.52059
        1.57994        1.59559        1.62209        1.65285        1.67737
        1.74021        1.77336        1.79862        1.86612        1.89206
        1.89535        2.03718        2.05547        2.07836        2.11948
        2.12332        2.13318        2.14950        2.23226        2.25081
        2.28023        2.30566        2.32556        2.33963        2.35038
        2.48689        2.52133        2.57801        2.59438        2.62048
        2.64102        2.67897        2.73093        2.74939        2.76209
        2.77839        2.82045        2.86873        2.94556        3.12304
        3.22075        3.26050        3.28657        3.34483        3.39148
        3.40779        3.41301        3.42349        3.42891        3.43832
        3.50694        3.56633        3.58602        3.59587        3.61410
        3.87440        3.89682        3.89770        3.90347        4.11772
        4.15421        4.16385        4.17770        4.92017        5.05065
        5.08757        5.22717        5.28173        5.30610        5.36117
        5.72916        5.75938        5.79630        5.81242        5.95867
        5.97237        6.01142        6.03032       36.83502       51.42223
       51.43074       51.45576       51.46278
 Time used in FCKEIG, thr_jaco:   2.90D-02  3.30D-02  1.59D-05
 CPU and wall times used in FCKEIG, THR_FCKEIG:   2.90D-02  3.30D-02  3.73D-03
 -----------------------------------------------------------------------------

 *** DIIS iteration number    4
 RDSUPM called. NFMAT, ISYMDM(1:NFMAT)                     1
                     1

 ITDIIS, energy, error norm, change in energy, scr.thr., difden:
@ DIIS iter.   4    -361.162229162        9.77421D-02   -1.01D-02  -20    F

 (DIIS_RED) Control Parameters C2DIIS =         F NEVC =    4


 (DIIS_RED) B matrix:

               Column   1     Column   2     Column   3     Column   4
       1      16.04726623
       2       0.82612047     1.24170388
       3       0.78373113     0.00624722     0.13902623
       4       0.04768937     0.08217093     0.00197416     0.00955353
    ==== End of matrix output ====

 DIIS C vector; C2DIIS = F, LAMBDA = -4.63D-03
   -0.000713   -0.064746    0.025476    1.039982
* Read MO coefficients from SIRIUS.RST with label "NEWORB  " and header info:  3Dec18  DIIS   4
      Virial theorem: -V/T =      2.002826
@      MULPOP N      -0.47; H       0.34; H       0.28; H       0.33; H       0.33; O      -0.61; O      -0.64; O      -0.66; O      -0.60; H       0.36; 
@             H       0.31; H       0.35; H       0.33; H       0.33; H       0.36; H       0.29; H       0.36; 
   4  Level shift: doubly occupied orbital energies shifted by -2.50D-02

 DIIS Fock eigenvalues in symmetry 1
      -20.70507      -20.69542      -20.67535      -20.67225      -15.73338
       -1.48383       -1.47292       -1.45687       -1.44897       -1.33834
       -0.84544       -0.83660       -0.82872       -0.81640       -0.80583
       -0.79635       -0.79219       -0.72131       -0.71324       -0.69425
       -0.69206       -0.65305       -0.64850       -0.62860       -0.61234
       -0.00005        0.04057        0.08892        0.09629        0.10696
        0.13894        0.18459        0.18815        0.19378        0.20201
        0.24377        0.27815        0.28763        0.33841        0.36283
        0.37908        0.45440        0.47428        0.48932        0.50819
        0.51714        0.52403        0.55774        0.56232        0.59989
        0.79799        0.81439        0.82337        0.87459        0.89678
        0.92922        0.95213        0.97202        0.98953        0.99314
        1.02353        1.03532        1.05890        1.07043        1.08308
        1.15531        1.18011        1.21711        1.27839        1.32803
        1.35130        1.38079        1.39178        1.39871        1.41991
        1.43452        1.44638        1.45409        1.45911        1.52117
        1.58045        1.59730        1.62394        1.65722        1.68313
        1.74486        1.77619        1.79852        1.86487        1.89147
        1.89531        2.04282        2.05845        2.08360        2.11688
        2.12380        2.13050        2.14670        2.23368        2.24980
        2.27786        2.31235        2.32336        2.34146        2.35659
        2.48844        2.51970        2.57804        2.60067        2.62253
        2.64551        2.68124        2.73264        2.75076        2.76337
        2.78008        2.82223        2.88192        2.95760        3.13212
        3.22999        3.27419        3.29424        3.34195        3.38803
        3.40543        3.40851        3.42141        3.42727        3.43873
        3.51031        3.56340        3.58116        3.59459        3.61190
        3.87070        3.89273        3.89433        3.90020        4.11449
        4.15043        4.15924        4.17528        4.93925        5.07053
        5.10656        5.22074        5.27715        5.30031        5.35515
        5.72357        5.75380        5.79115        5.80408        5.95177
        5.96285        6.00495        6.02486       36.87250       51.40971
       51.41777       51.44399       51.44593
 Time used in FCKEIG, thr_jaco:   3.00D-02  3.40D-02  4.16D-06
 CPU and wall times used in FCKEIG, THR_FCKEIG:   3.00D-02  3.40D-02  9.77D-04
 -----------------------------------------------------------------------------

 *** DIIS iteration number    5
 RDSUPM called. NFMAT, ISYMDM(1:NFMAT)                     1
                     1

 ITDIIS, energy, error norm, change in energy, scr.thr., difden:
@ DIIS iter.   5    -361.163255487        2.95403D-02   -1.03D-03  -20    F

 (DIIS_RED) Control Parameters C2DIIS =         F NEVC =    5


 (DIIS_RED) B matrix:

               Column   1     Column   2     Column   3     Column   4     Column   5
       1      16.04726623
       2       0.82612047     1.24170388
       3       0.78373113     0.00624722     0.13902623
       4       0.04768937     0.08217093     0.00197416     0.00955353
       5       0.02176661     0.00793057     0.00571526     0.00089427     0.00087263
    ==== End of matrix output ====

 DIIS C vector; C2DIIS = F, LAMBDA = -6.13D-04
    0.001165   -0.010916   -0.043096    0.069026    0.983821
* Read MO coefficients from SIRIUS.RST with label "NEWORB  " and header info:  3Dec18  DIIS   5
      Virial theorem: -V/T =      2.002493
@      MULPOP N      -0.46; H       0.34; H       0.28; H       0.33; H       0.33; O      -0.62; O      -0.65; O      -0.67; O      -0.61; H       0.37; 
@             H       0.32; H       0.35; H       0.34; H       0.34; H       0.37; H       0.29; H       0.36; 
   5  Level shift: doubly occupied orbital energies shifted by -1.25D-02

 DIIS Fock eigenvalues in symmetry 1
      -20.68606      -20.67653      -20.65472      -20.65336      -15.71733
       -1.46892       -1.45815       -1.44258       -1.43309       -1.32429
       -0.83122       -0.82267       -0.81479       -0.80230       -0.79211
       -0.78202       -0.77714       -0.70690       -0.69922       -0.68030
       -0.67687       -0.63745       -0.63296       -0.61350       -0.59609
       -0.00005        0.04100        0.08917        0.09654        0.10731
        0.13924        0.18510        0.18841        0.19406        0.20256
        0.24463        0.27892        0.28846        0.33954        0.36390
        0.38032        0.45514        0.47498        0.48984        0.50897
        0.51771        0.52457        0.55803        0.56307        0.60095
        0.79943        0.81577        0.82477        0.87641        0.89843
        0.93080        0.95397        0.97349        0.99096        0.99456
        1.02461        1.03658        1.06017        1.07189        1.08471
        1.15653        1.18148        1.21837        1.27997        1.32918
        1.35250        1.38173        1.39239        1.39941        1.42098
        1.43483        1.44750        1.45446        1.45981        1.52221
        1.58101        1.59810        1.62469        1.65824        1.68408
        1.74590        1.77717        1.79901        1.86510        1.89161
        1.89559        2.04390        2.05929        2.08466        2.11797
        2.12459        2.13146        2.14714        2.23509        2.25096
        2.27874        2.31340        2.32399        2.34247        2.35771
        2.48909        2.51982        2.57833        2.60172        2.62321
        2.64651        2.68168        2.73303        2.75106        2.76388
        2.78046        2.82271        2.88334        2.95899        3.13343
        3.23187        3.27591        3.29643        3.34450        3.39036
        3.40756        3.41175        3.42386        3.42922        3.44086
        3.51324        3.56587        3.58460        3.59686        3.61366
        3.87305        3.89587        3.89647        3.90260        4.11716
        4.15324        4.16259        4.17729        4.94158        5.07275
        5.10892        5.22465        5.28028        5.30432        5.36032
        5.72725        5.75713        5.79426        5.80909        5.95506
        5.96784        6.00838        6.02738       36.87598       51.41614
       51.42408       51.45037       51.45387
 Time used in FCKEIG, thr_jaco:   2.90D-02  3.30D-02  1.26D-06
 CPU and wall times used in FCKEIG, THR_FCKEIG:   2.90D-02  3.30D-02  2.95D-04
 -----------------------------------------------------------------------------

 *** DIIS iteration number    6
 RDSUPM called. NFMAT, ISYMDM(1:NFMAT)                     1
                     1

 ITDIIS, energy, error norm, change in energy, scr.thr., difden:
@ DIIS iter.   6    -361.163348007        1.09512D-02   -9.25D-05  -20    F

 (DIIS_RED) Control Parameters C2DIIS =         F NEVC =    6


 (DIIS_RED) B matrix:

               Column   1     Column   2     Column   3     Column   4     Column   5     Column   6
       1      16.04726623
       2       0.82612047     1.24170388
       3       0.78373113     0.00624722     0.13902623
       4       0.04768937     0.08217093     0.00197416     0.00955353
       5       0.02176661     0.00793057     0.00571526     0.00089427     0.00087263
       6      -0.00464870    -0.00018798     0.00078733     0.00054582     0.00004224     0.00011993
    ==== End of matrix output ====

 DIIS C vector; C2DIIS = F, LAMBDA = -3.77D-05
    0.000784    0.007716   -0.013699   -0.133336    0.131114    1.007421
* Read MO coefficients from SIRIUS.RST with label "NEWORB  " and header info:  3Dec18  DIIS   6
      Virial theorem: -V/T =      2.002730
@      MULPOP N      -0.46; H       0.34; H       0.27; H       0.32; H       0.33; O      -0.62; O      -0.65; O      -0.67; O      -0.61; H       0.37; 
@             H       0.32; H       0.35; H       0.34; H       0.34; H       0.37; H       0.29; H       0.36; 

 DIIS Fock eigenvalues in symmetry 1
      -20.67544      -20.66600      -20.64390      -20.64371      -15.70701
       -1.45688       -1.44618       -1.43048       -1.42146       -1.31240
       -0.81923       -0.81084       -0.80286       -0.79037       -0.78009
       -0.77006       -0.76544       -0.69513       -0.68753       -0.66853
       -0.66539       -0.62518       -0.62072       -0.60117       -0.58426
       -0.00005        0.04089        0.08902        0.09640        0.10713
        0.13911        0.18492        0.18829        0.19396        0.20242
        0.24455        0.27880        0.28827        0.33934        0.36370
        0.38001        0.45494        0.47475        0.48964        0.50871
        0.51743        0.52432        0.55777        0.56274        0.60071
        0.79899        0.81537        0.82442        0.87624        0.89827
        0.93052        0.95360        0.97316        0.99055        0.99410
        1.02424        1.03620        1.05982        1.07150        1.08420
        1.15621        1.18113        1.21805        1.27962        1.32887
        1.35212        1.38142        1.39209        1.39913        1.42061
        1.43448        1.44713        1.45412        1.45943        1.52186
        1.58069        1.59785        1.62437        1.65799        1.68389
        1.74570        1.77692        1.79879        1.86480        1.89133
        1.89531        2.04371        2.05896        2.08447        2.11744
        2.12418        2.13099        2.14670        2.23467        2.25055
        2.27828        2.31316        2.32361        2.34209        2.35735
        2.48878        2.51946        2.57797        2.60159        2.62299
        2.64639        2.68146        2.73278        2.75072        2.76357
        2.78021        2.82240        2.88274        2.95841        3.13314
        3.23114        3.27526        3.29567        3.34391        3.38963
        3.40696        3.41073        3.42322        3.42862        3.44019
        3.51232        3.56528        3.58354        3.59614        3.61311
        3.87231        3.89499        3.89570        3.90196        4.11648
        4.15240        4.16157        4.17668        4.94049        5.07165
        5.10784        5.22362        5.27948        5.30333        5.35876
        5.72625        5.75609        5.79331        5.80750        5.95396
        5.96619        6.00736        6.02651       36.87385       51.41428
       51.42214       51.44876       51.45100
 Time used in FCKEIG, thr_jaco:   2.90D-02  3.70D-02  4.66D-07
 CPU and wall times used in FCKEIG, THR_FCKEIG:   2.90D-02  3.70D-02  1.10D-04
 -----------------------------------------------------------------------------

 *** DIIS iteration number    7
 RDSUPM called. NFMAT, ISYMDM(1:NFMAT)                     1
                     1

 ITDIIS, energy, error norm, change in energy, scr.thr., difden:
@ DIIS iter.   7    -361.163361064        2.34790D-03   -1.31D-05  -20    F

 (DIIS_RED) Control Parameters C2DIIS =         F NEVC =    7


 (DIIS_RED) B matrix:

               Column   1     Column   2     Column   3     Column   4     Column   5     Column   6
       1      16.04726623
       2       0.82612047     1.24170388
       3       0.78373113     0.00624722     0.13902623
       4       0.04768937     0.08217093     0.00197416     0.00955353
       5       0.02176661     0.00793057     0.00571526     0.00089427     0.00087263
       6      -0.00464870    -0.00018798     0.00078733     0.00054582     0.00004224     0.00011993
       7       0.00046396     0.00017429     0.00000424     0.00001091     0.00004831     0.00000078

               Column   7
       7       0.00000551
    ==== End of matrix output ====

 DIIS C vector; C2DIIS = F, LAMBDA = -1.20D-06
   -0.000251   -0.000921    0.006309    0.023809   -0.110414   -0.119868    1.201337
* Read MO coefficients from SIRIUS.RST with label "NEWORB  " and header info:  3Dec18  DIIS   7
      Virial theorem: -V/T =      2.002668
@      MULPOP N      -0.46; H       0.34; H       0.27; H       0.32; H       0.33; O      -0.63; O      -0.65; O      -0.67; O      -0.61; H       0.37; 
@             H       0.32; H       0.35; H       0.34; H       0.34; H       0.37; H       0.29; H       0.37; 

 DIIS Fock eigenvalues in symmetry 1
      -20.67517      -20.66576      -20.64358      -20.64340      -15.70657
       -1.45673       -1.44605       -1.43038       -1.42124       -1.31218
       -0.81913       -0.81070       -0.80270       -0.79027       -0.78003
       -0.76990       -0.76528       -0.69510       -0.68750       -0.66850
       -0.66528       -0.62500       -0.62053       -0.60102       -0.58402
       -0.00005        0.04094        0.08905        0.09644        0.10716
        0.13914        0.18498        0.18832        0.19399        0.20247
        0.24463        0.27888        0.28836        0.33946        0.36382
        0.38016        0.45501        0.47482        0.48970        0.50878
        0.51747        0.52436        0.55779        0.56279        0.60084
        0.79913        0.81550        0.82455        0.87636        0.89837
        0.93064        0.95375        0.97327        0.99067        0.99419
        1.02432        1.03627        1.05988        1.07159        1.08429
        1.15633        1.18128        1.21818        1.27975        1.32896
        1.35221        1.38149        1.39213        1.39918        1.42069
        1.43448        1.44722        1.45413        1.45947        1.52195
        1.58075        1.59792        1.62444        1.65810        1.68400
        1.74580        1.77701        1.79884        1.86482        1.89135
        1.89534        2.04384        2.05904        2.08459        2.11751
        2.12426        2.13105        2.14672        2.23478        2.25062
        2.27832        2.31327        2.32364        2.34217        2.35748
        2.48884        2.51947        2.57800        2.60172        2.62305
        2.64648        2.68152        2.73283        2.75076        2.76362
        2.78027        2.82246        2.88294        2.95860        3.13329
        3.23134        3.27547        3.29587        3.34405        3.38976
        3.40707        3.41093        3.42336        3.42872        3.44034
        3.51254        3.56542        3.58376        3.59629        3.61321
        3.87243        3.89517        3.89582        3.90208        4.11664
        4.15257        4.16177        4.17679        4.94077        5.07194
        5.10812        5.22380        5.27960        5.30352        5.35907
        5.72642        5.75625        5.79345        5.80778        5.95411
        5.96647        6.00754        6.02661       36.87427       51.41454
       51.42238       51.44894       51.45145
 Time used in FCKEIG, thr_jaco:   2.60D-02  4.00D-02  9.99D-08
 CPU and wall times used in FCKEIG, THR_FCKEIG:   2.60D-02  4.00D-02  2.35D-05
 -----------------------------------------------------------------------------

 *** DIIS iteration number    8
 RDSUPM called. NFMAT, ISYMDM(1:NFMAT)                     1
                     1

 ITDIIS, energy, error norm, change in energy, scr.thr., difden:
@ DIIS iter.   8    -361.163361649        3.56258D-04   -5.85D-07  -20    F

 (DIIS_RED) Control Parameters C2DIIS =         F NEVC =    8


 (DIIS_RED) B matrix:

               Column   1     Column   2     Column   3     Column   4     Column   5     Column   6
       1      16.04726623
       2       0.82612047     1.24170388
       3       0.78373113     0.00624722     0.13902623
       4       0.04768937     0.08217093     0.00197416     0.00955353
       5       0.02176661     0.00793057     0.00571526     0.00089427     0.00087263
       6      -0.00464870    -0.00018798     0.00078733     0.00054582     0.00004224     0.00011993
       7       0.00046396     0.00017429     0.00000424     0.00001091     0.00004831     0.00000078
       8       0.00010215    -0.00004377     0.00000658     0.00000145     0.00000009     0.00000164

               Column   7     Column   8
       7       0.00000551
       8       0.00000032     0.00000013
    ==== End of matrix output ====

 DIIS C vector; C2DIIS = F, LAMBDA = -6.40D-08
    0.000013    0.000049   -0.000832   -0.001533    0.018779   -0.008205   -0.220316    1.212046
* Read MO coefficients from SIRIUS.RST with label "NEWORB  " and header info:  3Dec18  DIIS   8
      Virial theorem: -V/T =      2.002685
@      MULPOP N      -0.46; H       0.34; H       0.27; H       0.32; H       0.33; O      -0.63; O      -0.65; O      -0.67; O      -0.61; H       0.37; 
@             H       0.32; H       0.35; H       0.34; H       0.34; H       0.37; H       0.29; H       0.37; 

 DIIS Fock eigenvalues in symmetry 1
      -20.67516      -20.66574      -20.64353      -20.64348      -15.70660
       -1.45672       -1.44604       -1.43036       -1.42127       -1.31220
       -0.81912       -0.81071       -0.80271       -0.79026       -0.78001
       -0.76991       -0.76529       -0.69511       -0.68751       -0.66851
       -0.66532       -0.62500       -0.62052       -0.60100       -0.58404
       -0.00005        0.04094        0.08905        0.09644        0.10716
        0.13914        0.18497        0.18832        0.19400        0.20247
        0.24463        0.27887        0.28835        0.33945        0.36381
        0.38015        0.45501        0.47482        0.48970        0.50878
        0.51747        0.52436        0.55779        0.56278        0.60083
        0.79912        0.81549        0.82454        0.87636        0.89837
        0.93064        0.95373        0.97327        0.99067        0.99419
        1.02433        1.03627        1.05988        1.07158        1.08427
        1.15632        1.18127        1.21817        1.27975        1.32896
        1.35221        1.38148        1.39213        1.39917        1.42069
        1.43448        1.44721        1.45413        1.45946        1.52195
        1.58074        1.59792        1.62443        1.65809        1.68399
        1.74580        1.77701        1.79884        1.86482        1.89135
        1.89534        2.04383        2.05904        2.08458        2.11750
        2.12425        2.13104        2.14673        2.23477        2.25062
        2.27832        2.31326        2.32365        2.34216        2.35747
        2.48883        2.51947        2.57800        2.60170        2.62305
        2.64648        2.68151        2.73282        2.75075        2.76361
        2.78026        2.82245        2.88292        2.95858        3.13328
        3.23132        3.27545        3.29585        3.34405        3.38976
        3.40708        3.41090        3.42336        3.42873        3.44034
        3.51252        3.56542        3.58373        3.59629        3.61322
        3.87243        3.89515        3.89582        3.90208        4.11664
[...]
 | 1 1 1 1 |  11   1   9   1 |     1115        1 |       621056 |   -0.070957  |
 | 1 1 1 1 |  13   1   9   1 |     1117        1 |       623287 |    0.103872  |
 | 1 1 1 1 |  27   1   9   1 |     1131        1 |       639016 |    0.128727  |
 | 1 1 1 1 |  31   1   9   1 |     1135        1 |       643546 |    0.092253  |
 | 1 1 1 1 |  11   1  12   1 |     1529        1 |      1168157 |   -0.089909  |
 | 1 1 1 1 |  28   1  12   1 |     1546        1 |      1194286 |    0.114306  |
 | 1 1 1 1 |  13   1  16   1 |     2083        1 |      2168404 |    0.066796  |
 | 1 1 1 1 |  26   1  16   1 |     2096        1 |      2195561 |   -0.075021  |
 +=============================================================================+


          Norm of Printed Amplitude Vector :             0.8283

          Printed all single excitations greater than 0.380317

          Printed all double excitations greater than 0.064918



+======================================================================+
| contributions of excitation levels to right eigenvectors as computed |
| from the (RE|RE) self overlap                                        |
+----------------------------------------------------------------------+
| sym | multi | state |    E / eV  | % singles | % doubles | % triples |
+======================================================================+
|    1|   1   |   1   |  411.17901 |  88.0672  |  11.9328  |   0.0000  |
+======================================================================+





+======================================================================+
| contributions of excitation levels to excited states as computed     |
| from the (LE|RE) overlap                                             |
+----------------------------------------------------------------------+
| sym | multi | state |    E / eV  | % singles | % doubles | % triples |
+======================================================================+
|    1|   1   |   1   |  411.17901 |  78.9007  |  21.0993  |   0.0000  |
+======================================================================+



 --------------------------
 Symmetry class Nr.:     1
 Multiplicity      :     3
 --------------------------

 Length of Excitation vectors in this class is:   8404200
 No Excitation Energies calculated in this symmetry class
     

   *******************************************************************
   *                                                                 *
   *--------   OUTPUT FROM PROPERTY AND SYMMETRY ANALYSIS   ---------*
   *                                                                 *
   *******************************************************************



                         +-------------------------------+
                         ! REQUESTED PROPERTY OPERATORS: !
                         +-------------------------------+

             Index   Oper. Label  Symmetry  Transp.  PDBS  Atom
             --------------------------------------------------
                1     HAM0            1        1      T      0
                2     XDIPLEN         1        1      F      0
                3     YDIPLEN         1        1      F      0
                4     ZDIPLEN         1        1      F      0
             --------------------------------------------------




                         +-------------------------------+
                         ! REQUESTED EXPECTATION VALUES: !
                         +-------------------------------+

                       Index   Oper. Label  Symmetry
                       -----------------------------
                       -----------------------------




                       +------------------------------------+
                       ! REQUESTED EFFECTIVE FOCK MATRICES: !
                       +------------------------------------+

                       Index   Oper. Label  Symmetry
                       -----------------------------
                       -----------------------------




                        +----------------------------------+
                        ! REQUESTED FIRST ORDER M-VECTORS: !
                        +----------------------------------+

               Index   State Symmetry  Frequency
               --------------------------------------------------
                  1             1    1     1.511055D+01
               --------------------------------------------------


      

    *******************************************************************
    *          SOLVING COUPLED CLUSTER RESPONSE EQUATIONS             *
    *******************************************************************



 
 +======================================================================+
 !                     RHS & ETA VECTORS TO COMPUTE:                    !
 +======================================================================+
 | TYPE | # VEC. |  NEEDED FOR:                                         |
 +----------------------------------------------------------------------+
 +======================================================================+



 +======================================================================+
 !                       LINEAR EQUATIONS TO SOLVE:                     !
 +======================================================================+
 | TYPE | # VEC. |  EQUATION:                                           |
 +----------------------------------------------------------------------+
 |  M1  |    1   |  first-order ground - excited state multipliers      |
 +======================================================================+



 +======================================================================+
 !                F MATRIX TRANSFORMATIONS TO COMPUTE:                  !
 +======================================================================+
 | TYPE | # VEC. |  TRANSFORMED:                                        |
 +----------------------------------------------------------------------+
 |  FR  |    1   |  right eigenvectors (RE)                             |
 +======================================================================+





 Testing R1 list: 

 List nr.  Label     Symmetry      Frequency      T1-norm        T2-norm


 Testing L1 list: 

 List nr.  Label     Symmetry      Frequency      T1-norm        T2-norm
  Solvent 1-order response equations converged in                     0 
  solvent iterations
 SONIAPRI                     0
 CCEQ_STR: CVSEPARATION =  T
 CCEQ_STR: IONIZATION =  T
 CCEQ_STR: REMOVE_CORE =  F
 could not find required file CCM1_1___1
 IOPTSV is    33 ... program continues nevertheless.
 Vector nr.  1 of type M1  and symmetry  1 was not found on file.
     M1  start vector nr.  1 of symmetry  1 generated from gradient
 CCEQ_STR: freeze VALENCE OR VIRT
 CCEQ_SOL: CVSEPARA=     T
 CCEQ_SOL: LIONISAT=     T
 CCEQ_SOL: REMOVE_CORE =  F



 ----- COUPLED CLUSTER RESPONSE SOLVER -----

    Iter  #Vectors  time (min)   residual
    --------------------------------------
 CCRED CVS/IONIS sigma_                     1 
 project out valence occupied or virtual
      1       1         1.40     0.22E+01
 CCRED CVS/IONIS sigma_                     2 
 project out valence occupied or virtual
      2       1         1.40     0.40E+00
 CCRED CVS/IONIS sigma_                     3 
 project out valence occupied or virtual
      3       1         1.40     0.50E-01
 CCRED CVS/IONIS sigma_                     4 
 project out valence occupied or virtual
                    -1  vectors with norm le:  1.000000000000000E-035  REMOVED

 CCORT,**WARNING**  number vectors added is zero after check for vector norm , NBADD :    0

 CCORT, number vectors added is zero , NBADD :    0

 CCORT, number vectors added is zero , NBADD :    0

 CCORT, number vectors added is zero , NBADD :    0

 CCORT, number vectors added is zero , NBADD :    0

 *** MICROITERATIONS STOPPED DUE TO LINEAR DEPENDENCE BETWEEN ALL NEW TRIAL VECTORS
                     0  trial vectors converged
  LINEAR DEPENDENCE BETWEEN                     1  NON CONVERGED TRIAL VECTORS
      4       1         1.38     0.53E-02

 ***  CCEQ_SOL -MICROITERATIONS STOPPED  
     LINEAR DEPENDENCE BETWEEN ALL NEW TRIAL VECTORS
    --------------------------------------
    converged in  4 iterations
    threshold:    0.10E-08


         Routine          Time (min)
         ---------------------------
         CC_TRDRV            5.59
         CCRED               0.04
         CCNEX               0.06
         ---------------------------
         Total time          5.68


  Total CPU  time used in CCEQ_SOLV:  5 minutes 41 seconds
  Total wall time used in CCEQ_SOLV:  7 minutes 32 seconds


 xxxxxxxxxxxxxxxxxxxxxxxxxxxxxxxxxxxxx

 
 Solution of CC response equations completed.
 

 *******************************************************************
 *                                                                 *
 *--------  OUTPUT FROM COUPLED CLUSTER LINEAR RESPONSE   ---------*
 *                                                                 *
 *--------      CALCULATION OF SECOND ORDER RESIDUES      ---------*
 *                                                                 *
 *******************************************************************



                  +---------------------------------------------+
                  ! CC_SOPR: Calculation of CCSD       Residues !
                  +---------------------------------------------+

 Doing the Mf*CsiA
 Doing the Mf*CsiA
 Doing the Mf*CsiA


 CCSD  Right transition moments in atomic units:
 -----------------------------------------------

  1      15.110551  <XDIPLEN |f> =      -0.00000005
  1      15.110551  <YDIPLEN |f> =       0.00000005
  1      15.110551  <ZDIPLEN |f> =       0.00000001


 CCSD  Left  transition moments in atomic units:
 -----------------------------------------------

  1      15.110551  <f|XDIPLEN > =      -0.00000002
  1      15.110551  <f|YDIPLEN > =       0.00000002
  1      15.110551  <f|ZDIPLEN > =       0.00000000


 CCSD  linear response residue property in atomic units:
 -------------------------------------------------------

 RES{<<XDIPLEN ,XDIPLEN >>(15.110551)} =     0.00000000 (   0.00000004)
 RES{<<XDIPLEN ,YDIPLEN >>(15.110551)} =    -0.00000000 (  -0.00000003)
 RES{<<XDIPLEN ,ZDIPLEN >>(15.110551)} =    -0.00000000 (  -0.00000001)
 RES{<<YDIPLEN ,XDIPLEN >>(15.110551)} =    -0.00000000 (  -0.00000003)
 RES{<<YDIPLEN ,YDIPLEN >>(15.110551)} =     0.00000000 (   0.00000003)
 RES{<<YDIPLEN ,ZDIPLEN >>(15.110551)} =     0.00000000 (   0.00000001)
 RES{<<ZDIPLEN ,XDIPLEN >>(15.110551)} =    -0.00000000 (  -0.00000001)
 RES{<<ZDIPLEN ,YDIPLEN >>(15.110551)} =     0.00000000 (   0.00000001)
 RES{<<ZDIPLEN ,ZDIPLEN >>(15.110551)} =     0.00000000 (   0.00000001)


 CCSD  Transition strength matrix for state nr.  1 of symmetry 1
 CCSD  excitation energy:15.11055087

 Gauge: length

               Column   1     Column   2     Column   3
       1     1.256901D-15  -1.091451D-15  -1.777035D-16
       2    -1.091451D-15   9.477768D-16   1.543109D-16
       3    -1.777035D-16   1.543109D-16   2.512382D-17
    ==== End of matrix output ====

 Principal values of diagonalized transition strength matrix:

             a.u.               
 1       0.00000000
 2       0.00000000
 3       0.00000000

 Principal axis of diagonalized transition strength matrix:


               Column   1     Column   2     Column   3
       1       1.00000000     0.00000000     0.00000000
       2       0.00000000     1.00000000     0.00000000
       3       0.00000000     0.00000000     1.00000000
    ==== End of matrix output ====


 CCSD   oscillator strength matrix for state nr.  1 of symmetry 1
 CCSD  excitation energy:15.11055087


               Column   1     Column   2     Column   3
       1     1.266164D-14  -1.099495D-14  -1.790132D-15
       2    -1.099495D-14   9.547620D-15   1.554481D-15
       3    -1.790132D-15   1.554481D-15   2.530899D-16
    ==== End of matrix output ====

 Principal values of diagonalized oscillator strength matrix:

             a.u.               
 1       0.00000000
 2       0.00000000
 3       0.00000000

 Principal axis of diagonalized oscillator strength matrix:


               Column   1     Column   2     Column   3
       1       1.00000000     0.00000000     0.00000000
       2       0.00000000     1.00000000     0.00000000
       3       0.00000000     0.00000000     1.00000000
    ==== End of matrix output ====

  Total time for      9 linear response residues:       3.18 seconds.
  

 *******************************************************************************
 *******************************************************************************
 *                                                                             *
 *                                                                             *
 *                   SUMMARY OF COUPLED CLUSTER CALCULATION                    *
 *                                                                             *
 *                                                                             *
 *******************************************************************************
 *******************************************************************************

                                                                                
                                                                                
            Total SCF   energy:                  -361.1633616667                
            Total MP2   energy:                  -362.2742376480                
            Total CCSD  energy:                  -362.3145331879                
                                                                                
                                                                                
            Total SCF   energy:                  -361.1633616667                
            Total RSTAR energy:                  -362.3145331879                
            Total CCSD  energy:                  -362.3146679533                
                                                                                
                                                                                
            Total SCF   energy:                  -361.1633616667                
            Total RSTAR energy:                  -362.3146679533                
            Total CCSD  energy:                  -362.3146681372                
                                                                                
                                                                                
            Total SCF   energy:                  -361.1633616667                
            Total RSTAR energy:                  -362.3146681372                
            Total CCSD  energy:                  -362.3146682044                
                                                                                
                                                                                
            Total SCF   energy:                  -361.1633616667                
            Total RSTAR energy:                  -362.3146682044                
            Total CCSD  energy:                  -362.3146682043                
                                                                                
                                                                                
            Total SCF   energy:                  -361.1633616667                
            Total RSTAR energy:                  -362.3146682043                
            Total CCSD  energy:                  -362.3146682047                
            CCSD Total  energy:                  -362.6768955506                
            CCSD E(QM/MM)     :                    -0.3588394048                
                                                                                
                                                                                
                                                                                
 +=============================================================================+
 |  sym. | Exci.  |        CCSD       Excitation energies            | ||T1||  |
 |(spin, |        +------------------------------------------------------------+
 | spat) |        |     Hartree    |       eV.      |     cm-1       |    %    |
 +=============================================================================+
 | ^1A   |    1   |    15.1105509  |     411.17901  |   3316382.552  |  88.07  |
 +=============================================================================+
                                                                                
                                                                                
     Total energies in Hartree:                                                 
             1 ^1A       -347.2075052715                                        
                                                                                
                                                                                
 +=============================================================================+
 |  sym. | Exci.  |        CCSD       Length   Gauge Oscillator Strength       |
 |(spin, |        +------------------------------------------------------------+
 | spat) |        | Dipole Strength(a.u.) | Oscillator strength  | Direction   |
 +=============================================================================+
 | ^1A   |    1   |        0.0000000      |      0.0000000       |    -        |
 +=============================================================================+

  1 a.u. =        27.21138 eV.  
  1 a.u. =    219474.62934 cm-1.
  

 *******************************************************************************
 *******************************************************************************
 *                                                                             *
 *                                                                             *
 *                      END OF COUPLED CLUSTER CALCULATION                     *
 *                                                                             *
 *                                                                             *
 *******************************************************************************
 *******************************************************************************


 CPU and wall time for CC :    6287.191    8889.868

 
     Date and time (Linux)  : Mon Dec  3 18:41:11 2018
     Host name              : n-62-29-8                               


                      .-------------------------------------.
                      | End of Coupled Cluster Section (CC) |
                      `-------------------------------------'

  Total CPU  time used in DALTON:   1 hour  46 minutes 56 seconds
  Total wall time used in DALTON:   2 hours 32 minutes 30 seconds

 
     Date and time (Linux)  : Mon Dec  3 18:41:11 2018
     Host name              : n-62-29-8                               
  

 +---------------------------------------------------------+ 
 | List of selected calculated molecular properties (a.u.) | 
 +---------------------------------------------------------+ 

  Properties are read from unit number                      4

 CCSD       properties :
 #  1 1 CCSD/MM  Ground state Energy =    -362.6768955506
 #  2 1 E_QM/MM  Ground state Energy =      -0.3588394048
 #  3 1 Sy: 1 Sp: 1 Exc:  1 E_tot:   -347.2075052715 w:     15.1105508744 E_grs:   -362.3180561458
 #  4 1 Exctot   Excited state Energy =    -347.2075052715
 #  5 1 |<O|XDIPLEN |i(15.110551)>| =     0.00000004
 #  7 1 |<O|YDIPLEN |i(15.110551)>| =     0.00000003
 #  9 1 |<O|ZDIPLEN |i(15.110551)>| =     0.00000001

 THE_END   
