

     ************************************************************************
     *************** Dalton - An Electronic Structure Program ***************
     ************************************************************************

    This is output from DALTON release Dalton2017.alpha (2016)
         ( Web site: http://daltonprogram.org )

   ----------------------------------------------------------------------------

    NOTE:
     
    Dalton is an experimental code for the evaluation of molecular
    properties using (MC)SCF, DFT, CI, and CC wave functions.
    The authors accept no responsibility for the performance of
    the code or for the correctness of the results.
     
    The code (in whole or part) is provided under a licence and
    is not to be reproduced for further distribution without
    the written permission of the authors or their representatives.
     
    See the home page "http://daltonprogram.org" for further information.
     
    If results obtained with this code are published,
    the appropriate citations would be both of:
     
       K. Aidas, C. Angeli, K. L. Bak, V. Bakken, R. Bast,
       L. Boman, O. Christiansen, R. Cimiraglia, S. Coriani,
       P. Dahle, E. K. Dalskov, U. Ekstroem,
       T. Enevoldsen, J. J. Eriksen, P. Ettenhuber, B. Fernandez,
       L. Ferrighi, H. Fliegl, L. Frediani, K. Hald, A. Halkier,
       C. Haettig, H. Heiberg, T. Helgaker, A. C. Hennum,
       H. Hettema, E. Hjertenaes, S. Hoest, I.-M. Hoeyvik,
       M. F. Iozzi, B. Jansik, H. J. Aa. Jensen, D. Jonsson,
       P. Joergensen, J. Kauczor, S. Kirpekar,
       T. Kjaergaard, W. Klopper, S. Knecht, R. Kobayashi, H. Koch,
       J. Kongsted, A. Krapp, K. Kristensen, A. Ligabue,
       O. B. Lutnaes, J. I. Melo, K. V. Mikkelsen, R. H. Myhre,
       C. Neiss, C. B. Nielsen, P. Norman, J. Olsen,
       J. M. H. Olsen, A. Osted, M. J. Packer, F. Pawlowski,
       T. B. Pedersen, P. F. Provasi, S. Reine, Z. Rinkevicius,
       T. A. Ruden, K. Ruud, V. Rybkin, P. Salek, C. C. M. Samson,
       A. Sanchez de Meras, T. Saue, S. P. A. Sauer,
       B. Schimmelpfennig, K. Sneskov, A. H. Steindal,
       K. O. Sylvester-Hvid, P. R. Taylor, A. M. Teale,
       E. I. Tellgren, D. P. Tew, A. J. Thorvaldsen, L. Thoegersen,
       O. Vahtras, M. A. Watson, D. J. D. Wilson, M. Ziolkowski
       and H. Agren,
       "The Dalton quantum chemistry program system",
       WIREs Comput. Mol. Sci. 2014, 4:269–284 (doi: 10.1002/wcms.1172)
     
    and
     
       Dalton, a Molecular Electronic Structure Program,
       Release Dalton2017.alpha (2016), see http://daltonprogram.org
   ----------------------------------------------------------------------------

    Authors in alphabetical order (major contribution(s) in parenthesis):

  Kestutis Aidas,           Vilnius University,           Lithuania   (QM/MM)
  Celestino Angeli,         University of Ferrara,        Italy       (NEVPT2)
  Keld L. Bak,              UNI-C,                        Denmark     (AOSOPPA, non-adiabatic coupling, magnetic properties)
  Vebjoern Bakken,          University of Oslo,           Norway      (DALTON; geometry optimizer, symmetry detection)
  Radovan Bast,             UiT The Arctic U. of Norway,  Norway      (DALTON installation and execution frameworks)
  Pablo Baudin,             University of Valencia,       Spain       (Cholesky excitation energies)
  Linus Boman,              NTNU,                         Norway      (Cholesky decomposition and subsystems)
  Ove Christiansen,         Aarhus University,            Denmark     (CC module)
  Renzo Cimiraglia,         University of Ferrara,        Italy       (NEVPT2)
  Sonia Coriani,            University of Trieste,        Italy       (CC module, MCD in RESPONS)
  Janusz Cukras,            University of Trieste,        Italy       (MChD in RESPONS)
  Paal Dahle,               University of Oslo,           Norway      (Parallelization)
  Erik K. Dalskov,          UNI-C,                        Denmark     (SOPPA)
  Thomas Enevoldsen,        Univ. of Southern Denmark,    Denmark     (SOPPA)
  Janus J. Eriksen,         Aarhus University,            Denmark     (Polarizable embedding model, TDA)
  Rasmus Faber,             University of Copenhagen,     Denmark     (Vib.avg. NMR with SOPPA, parallel AO-SOPPA)
  Berta Fernandez,          U. of Santiago de Compostela, Spain       (doublet spin, ESR in RESPONS)
  Lara Ferrighi,            Aarhus University,            Denmark     (PCM Cubic response)
  Heike Fliegl,             University of Oslo,           Norway      (CCSD(R12))
  Luca Frediani,            UiT The Arctic U. of Norway,  Norway      (PCM)
  Bin Gao,                  UiT The Arctic U. of Norway,  Norway      (Gen1Int library)
  Christof Haettig,         Ruhr-University Bochum,       Germany     (CC module)
  Kasper Hald,              Aarhus University,            Denmark     (CC module)
  Asger Halkier,            Aarhus University,            Denmark     (CC module)
  Frederik Beyer Hansen,    University of Copenhagen,     Denmark     (Parallel AO-SOPPA)
  Erik D. Hedegaard,        Univ. of Southern Denmark,    Denmark     (Polarizable embedding model, QM/MM)
  Hanne Heiberg,            University of Oslo,           Norway      (geometry analysis, selected one-electron integrals)
  Trygve Helgaker,          University of Oslo,           Norway      (DALTON; ABACUS, ERI, DFT modules, London, and much more)
  Alf Christian Hennum,     University of Oslo,           Norway      (Parity violation)
  Hinne Hettema,            University of Auckland,       New Zealand (quadratic response in RESPONS; SIRIUS supersymmetry)
  Eirik Hjertenaes,         NTNU,                         Norway      (Cholesky decomposition)
  Pi A. B. Haase,           University of Copenhagen,     Denmark     (Triplet AO-SOPPA)
  Maria Francesca Iozzi,    University of Oslo,           Norway      (RPA)
  Brano Jansik              Technical Univ. of Ostrava    Czech Rep.  (DFT cubic response)
  Hans Joergen Aa. Jensen,  Univ. of Southern Denmark,    Denmark     (DALTON; SIRIUS, RESPONS, ABACUS modules, London, and much more)
  Dan Jonsson,              UiT The Arctic U. of Norway,  Norway      (cubic response in RESPONS module)
  Poul Joergensen,          Aarhus University,            Denmark     (RESPONS, ABACUS, and CC modules)
  Maciej Kaminski,          University of Warsaw,         Poland      (CPPh in RESPONS)
  Joanna Kauczor,           Linkoeping University,        Sweden      (Complex polarization propagator (CPP) module)
  Sheela Kirpekar,          Univ. of Southern Denmark,    Denmark     (Mass-velocity & Darwin integrals)
  Wim Klopper,              KIT Karlsruhe,                Germany     (R12 code in CC, SIRIUS, and ABACUS modules)
  Stefan Knecht,            ETH Zurich,                   Switzerland (Parallel CI and MCSCF)
  Rika Kobayashi,           Australian National Univ.,    Australia   (DIIS in CC, London in MCSCF)
  Henrik Koch,              NTNU,                         Norway      (CC module, Cholesky decomposition)
  Jacob Kongsted,           Univ. of Southern Denmark,    Denmark     (Polarizable embedding model, QM/MM)
  Andrea Ligabue,           University of Modena,         Italy       (CTOCD, AOSOPPA)
  Nanna H. List             Univ. of Southern Denmark,    Denmark     (Polarizable embedding model)
  Ola B. Lutnaes,           University of Oslo,           Norway      (DFT Hessian)
  Juan I. Melo,             University of Buenos Aires,   Argentina   (LRESC, Relativistic Effects on NMR Shieldings)
  Kurt V. Mikkelsen,        University of Copenhagen,     Denmark     (MC-SCRF and QM/MM)
  Rolf H. Myhre,            NTNU,                         Norway      (Cholesky, subsystems and ECC2)
  Christian Neiss,          Univ. Erlangen-Nuernberg,     Germany     (CCSD(R12))
  Christian B. Nielsen,     University of Copenhagen,     Denmark     (QM/MM)
  Patrick Norman,           Linkoeping University,        Sweden      (Cubic response and complex frequency response in RESPONS)
  Jeppe Olsen,              Aarhus University,            Denmark     (SIRIUS CI/density modules)
  Jogvan Magnus H. Olsen,   Univ. of Southern Denmark,    Denmark     (Polarizable embedding model, QM/MM)
  Anders Osted,             Copenhagen University,        Denmark     (QM/MM)
  Martin J. Packer,         University of Sheffield,      UK          (SOPPA)
  Filip Pawlowski,          Kazimierz Wielki University,  Poland      (CC3)
  Morten N. Pedersen,       Univ. of Southern Denmark,    Denmark     (Polarizable embedding model)
  Thomas B. Pedersen,       University of Oslo,           Norway      (Cholesky decomposition)
  Patricio F. Provasi,      University of Northeastern,   Argentina   (Analysis of coupling constants in localized orbitals)
  Zilvinas Rinkevicius,     KTH Stockholm,                Sweden      (open-shell DFT, ESR)
  Elias Rudberg,            KTH Stockholm,                Sweden      (DFT grid and basis info)
  Torgeir A. Ruden,         University of Oslo,           Norway      (Numerical derivatives in ABACUS)
  Kenneth Ruud,             UiT The Arctic U. of Norway,  Norway      (DALTON; ABACUS magnetic properties and much more)
  Pawel Salek,              KTH Stockholm,                Sweden      (DALTON; DFT code)
  Claire C. M. Samson       University of Karlsruhe       Germany     (Boys localization, r12 integrals in ERI)
  Alfredo Sanchez de Meras, University of Valencia,       Spain       (CC module, Cholesky decomposition)
  Trond Saue,               Paul Sabatier University,     France      (direct Fock matrix construction)
  Stephan P. A. Sauer,      University of Copenhagen,     Denmark     (SOPPA(CCSD), SOPPA prop., AOSOPPA, vibrational g-factors)
  Bernd Schimmelpfennig,    Forschungszentrum Karlsruhe,  Germany     (AMFI module)
  Kristian Sneskov,         Aarhus University,            Denmark     (Polarizable embedding model, QM/MM)
  Arnfinn H. Steindal,      UiT The Arctic U. of Norway,  Norway      (parallel QM/MM, Polarizable embedding model)
  Casper Steinmann,         Univ. of Southern Denmark,    Denmark     (QFIT, Polarizable embedding model)
  K. O. Sylvester-Hvid,     University of Copenhagen,     Denmark     (MC-SCRF)
  Peter R. Taylor,          VLSCI/Univ. of Melbourne,     Australia   (Symmetry handling ABACUS, integral transformation)
  Andrew M. Teale,          University of Nottingham,     England     (DFT-AC, DFT-D)
  David P. Tew,             University of Bristol,        England     (CCSD(R12))
  Olav Vahtras,             KTH Stockholm,                Sweden      (triplet response, spin-orbit, ESR, TDDFT, open-shell DFT)
  David J. Wilson,          La Trobe University,          Australia   (DFT Hessian and DFT magnetizabilities)
  Hans Agren,               KTH Stockholm,                Sweden      (SIRIUS module, RESPONS, MC-SCRF solvation model)
 --------------------------------------------------------------------------------

     Date and time (Linux)  : Mon Dec  3 16:08:47 2018
     Host name              : n-62-23-30                              

 * Work memory size             :  1280000000 =  9.537 gigabytes.

 * Directories for basis set searches:
   1) /zhome/d7/7/119775/My_Codes/dalton-private/build2016/basis/diffs
   2) /zhome/37/3/129401/NH3NH4/CCSD/AIMD_SAMPLING/nh4_4h2o_nd
   3) /zhome/9a/4/124800/source/dalton/build-mlcc/basis


Compilation information
-----------------------

 Who compiled             | rfaber
 Host                     | hpclogin1
 System                   | Linux-2.6.32-696.1.1.el6.x86_64
 CMake generator          | Unix Makefiles
 Processor                | x86_64
 64-bit integers          | ON
 MPI                      | OFF
 Fortran compiler         | /opt/intel/2016update2/compilers_and_libraries_201
                          | 6.2.181/linux/bin/intel64/ifort
 Fortran compiler version | ifort (IFORT) 16.0.2 20160204
 C compiler               | /opt/intel/2016update2/compilers_and_libraries_201
                          | 6.2.181/linux/bin/intel64/icc
 C compiler version       | icc (ICC) 16.0.2 20160204
 C++ compiler             | /opt/intel/2016update2/compilers_and_libraries_201
                          | 6.2.181/linux/bin/intel64/icpc
 C++ compiler version     | icpc (ICC) 16.0.2 20160204
 Static linking           | OFF
 Last Git revision        | bb4d1599ca5680a9f3980451fc8bbefdba436d59
 Git branch               | mlcc
 Configuration time       | 2017-06-13 16:11:03.928841


   Content of the .dal input file
 ----------------------------------

**DALTON
.RUN WAVE FUNCTIONS
*QMMM
.QMMM
**INTEGRALS
.DIPLEN
**WAVE FUNCTIONS
.CC
*PRINT
!To check the origin of excit
.PRINTL
   0 11
*SCF INP
.THRESH
1.0D-7
!*ORBITAL INPUT
!.MOSTART
!NEWORB
*CC INP
!.RESTART
.CCSD
.THRLEQ
 1.0D-9
.THRENR
 1.0D-10
.FROIMP
4
0
.PRINT
 1
.MAX IT
 1200
.MAXRED
 1200
.MXLRV
1199
*CCSLV
.CCMM
.MXSLIT
200
.MXINIT
4 5
*CCEXCI
.NCCEXC
 1
.IONISATION
1
1
.CVSEPARA
1
1
*CCLRSD
.DIPOLE
**END OF DALTON INPUT


   Content of the .mol file
 ----------------------------

ATOMBASIS


Atomtypes=5 Charge=1 Nosymm Angstrom
   7.00000    1    Basis=6-311G**
N          0.000000        0.000000        0.000000
   1.00000    4    Basis=6-311G**
H         -0.547564        0.704547       -0.494904
H          0.332056       -0.702745       -0.712419
H         -0.544450       -0.471569        0.725247
H          0.758065        0.430193        0.482647
   8.00000    4    Basis=6-311G**
O         -0.401712        2.269569       -2.286541
O          0.805584       -1.996584       -1.753942
O         -1.063203       -1.874235        1.985525
O          1.670604        0.999691        1.917915
   1.00000    8    Basis=6-311G**
H          0.010275        2.014809       -3.103880
H         -0.722790        3.168700       -2.269440
H          0.379816       -2.693233       -2.264597
H          1.335009       -2.457843       -1.064777
H         -0.267551       -2.247055        2.416889
H         -1.415034       -2.573841        1.422359
H          0.872560        1.281126        2.481155
H          2.333111        1.757790        2.018709
   0.00000    1    Basis=diffs
X          0.000000        0.000000        0.000000


       *******************************************************************
       *********** Output from DALTON general input processing ***********
       *******************************************************************

 --------------------------------------------------------------------------------
   Overall default print level:    0
   Print level for DALTON.STAT:    1

    HERMIT 1- and 2-electron integral sections will be executed
    "Old" integral transformation used (limited to max 255 basis functions)
    Wave function sections will be executed (SIRIUS module)
 --------------------------------------------------------------------------------


 Changes of defaults for *QMMM  :
 --------------------------------

 +------------------+
 |  WORD: | CHANGE: |
 +------------------+
 |   QMMM |       T |
 +------------------+
 


   ****************************************************************************
   *************** Output of molecule and basis set information ***************
   ****************************************************************************


    The two title cards from your ".mol" input:
    ------------------------------------------------------------------------
 1:                                                                         
 2:                                                                         
    ------------------------------------------------------------------------

  Coordinates are entered in Angstrom and converted to atomic units.
          - Conversion factor : 1 bohr = 0.52917721 A

  Atomic type no.    1
  --------------------
  Nuclear charge:   7.00000
  Number of symmetry independent centers:    1
  Number of basis sets to read;    2
  The basis set is "6-311G**" from the basis set library.
  Basis set file used for this atomic type with Z =   7 :
     "/zhome/9a/4/124800/source/dalton/build-mlcc/basis/6-311G**"

  Info about the basis set file: your basis has no documentation.
  Basis set: 6-311G**                                                                        

  Atomic type no.    2
  --------------------
  Nuclear charge:   1.00000
  Number of symmetry independent centers:    4
  Number of basis sets to read;    2
  The basis set is "6-311G**" from the basis set library.
  Basis set file used for this atomic type with Z =   1 :
     "/zhome/9a/4/124800/source/dalton/build-mlcc/basis/6-311G**"

  Info about the basis set file: your basis has no documentation.
  Basis set: 6-311G**                                                                        

  Atomic type no.    3
  --------------------
  Nuclear charge:   8.00000
  Number of symmetry independent centers:    4
  Number of basis sets to read;    2
  The basis set is "6-311G**" from the basis set library.
  Basis set file used for this atomic type with Z =   8 :
     "/zhome/9a/4/124800/source/dalton/build-mlcc/basis/6-311G**"

  Info about the basis set file: your basis has no documentation.
  Basis set: 6-311G**                                                                        

  Atomic type no.    4
  --------------------
  Nuclear charge:   1.00000
  Number of symmetry independent centers:    8
  Number of basis sets to read;    2
  The basis set is "6-311G**" from the basis set library.
  Basis set file used for this atomic type with Z =   1 :
     "/zhome/9a/4/124800/source/dalton/build-mlcc/basis/6-311G**"

  Info about the basis set file: your basis has no documentation.
  Basis set: 6-311G**                                                                        

  Atomic type no.    5
  --------------------
  Nuclear charge:   0.00000
  Number of symmetry independent centers:    1
  Number of basis sets to read;    2
  The basis set is "diffs" from the basis set library.
  Basis set file used for this atomic type with Z =   0 :
     "/zhome/9a/4/124800/source/dalton/build-mlcc/basis/diffs"

  Info about the basis set file: your basis has no documentation.
  Basis set: diffs                                                                           


                         SYMGRP: Point group information
                         -------------------------------

@    Point group: C1 


                                 Isotopic Masses
                                 ---------------

                           N          14.003074
                           H           1.007825
                           H           1.007825
                           H           1.007825
                           H           1.007825
                           O          15.994915
                           O          15.994915
                           O          15.994915
                           O          15.994915
                           H           1.007825
                           H           1.007825
                           H           1.007825
                           H           1.007825
                           H           1.007825
                           H           1.007825
                           H           1.007825
                           H           1.007825

                       Total mass:    90.076634 amu
                       Natural abundance:  98.500 %

 Center-of-mass coordinates (a.u.):    0.392697   -0.239686   -0.053661


  Atoms and basis sets
  --------------------

  Number of atom types :    5
  Total number of atoms:   18

  label    atoms   charge   prim   cont     basis
  ----------------------------------------------------------------------
  N           1    7.0000    31    18      [11s5p1d|4s3p1d]                                   
  H           4    1.0000     8     6      [5s1p|3s1p]                                        
  O           4    8.0000    31    18      [11s5p1d|4s3p1d]                                   
  H           8    1.0000     8     6      [5s1p|3s1p]                                        
  X           1    0.0000     1     1      [1s|1s]                                            
  ----------------------------------------------------------------------
  total:     18   51.0000   252   163
  ----------------------------------------------------------------------
  Spherical harmonic basis used.

  Threshold for neglecting AO integrals:  1.00D-12


  Cartesian Coordinates (a.u.)
  ----------------------------

  Total number of coordinates:   54
  N       :     1  x   0.0000000000    2  y   0.0000000000    3  z   0.0000000000
  H       :     4  x  -1.0347459959    5  y   1.3314008722    6  z  -0.9352330182
  H       :     7  x   0.6274948982    8  y  -1.3279955857    9  z  -1.3462767962
  H       :    10  x  -1.0288613888   11  y  -0.8911362590   12  z   1.3705182030
  H       :    13  x   1.4325352349   14  y   0.8129469509   15  z   0.9120706450
  O       :    16  x  -0.7591256611   17  y   4.2888638318   18  z  -4.3209362636
  O       :    19  x   1.5223331307   20  y  -3.7729969455   21  z  -3.3144700191
  O       :    22  x  -2.0091624853   23  y  -3.5417908439   24  z   3.7520984643
  O       :    25  x   3.1569840233   26  y   1.8891421996   27  z   3.6243340810
  H       :    28  x   0.0194169359   29  y   3.8074372042   30  z  -5.8654831248
  H       :    31  x  -1.3658751459   32  y   5.9879751723   33  z  -4.2886200571
  H       :    34  x   0.7177482179   35  y  -5.0894727608   36  z  -4.2794681135
  H       :    37  x   2.5228013844   38  y  -4.6446501282   39  z  -2.0121369142
  H       :    40  x  -0.5055981145   41  y  -4.2463185378   42  z   4.5672582845
  H       :    43  x  -2.6740267176   44  y  -4.8638545793   45  z   2.6878689614
  H       :    46  x   1.6488994276   47  y   2.4209772716   48  z   4.6887034237
  H       :    49  x   4.4089408092   50  y   3.3217416853   51  z   3.8148071361
  X       :    52  x   0.0000000000   53  y   0.0000000000   54  z   0.0000000000

  Max    interatomic separation is    7.1763 Angstrom (   13.5612 Bohr)
  between atoms   14 and   11, "H     " and "H     ".

  Min HX interatomic separation is    0.9501 Angstrom (    1.7954 Bohr)

  Min YX interatomic separation is    2.7329 Angstrom (    5.1644 Bohr)


  Bond distances (Angstrom):
  --------------------------

                  atom 1     atom 2       distance
                  ------     ------       --------
  bond distance:  H          N            1.020364
  bond distance:  H          N            1.054349
  bond distance:  H          N            1.022148
  bond distance:  H          N            0.996332
  bond distance:  H          O            0.950094
  bond distance:  H          O            0.954893
  bond distance:  H          O            0.962999
  bond distance:  H          O            0.983869
  bond distance:  H          O            0.978842
  bond distance:  H          O            0.964567
  bond distance:  H          O            1.016523
  bond distance:  H          O            1.011825


  Bond angles (degrees):
  ----------------------

                  atom 1     atom 2     atom 3         angle
                  ------     ------     ------         -----
  bond angle:     H          N          H            107.548
  bond angle:     H          N          H            112.139
  bond angle:     H          N          H            110.189
  bond angle:     H          N          H            109.857
  bond angle:     H          N          H            112.054
  bond angle:     H          N          H            105.115
  bond angle:     H          O          H            114.437
  bond angle:     H          O          H            105.676
  bond angle:     H          O          H            106.113
  bond angle:     H          O          H            104.561




 Principal moments of inertia (u*A**2) and principal axes
 --------------------------------------------------------

   IA     297.425965         -0.013872   -0.613083    0.789897
   IB     422.975450          0.195762    0.773020    0.603421
   IC     563.482043          0.980553   -0.163003   -0.109295


 Rotational constants
 --------------------

               A                   B                   C

           1699.1758           1194.8188            896.8857 MHz
            0.056678            0.039855            0.029917 cm-1


@  Nuclear repulsion energy :  197.723971915422 Hartree

  Number of floating/multiple basis set orbitals :    1


                     .---------------------------------------.
                     | Starting in Integral Section (HERMIT) |
                     `---------------------------------------'



 ***************************************************************************************
 ****************** Output from **INTEGRALS input processing (HERMIT) ******************
 ***************************************************************************************



    *************************************************************************
    ****************** Output from HERMIT input processing ******************
    *************************************************************************


 Default print level:        1

 * Nuclear model: Point charge

 Calculation of one- and two-electron Hamiltonian integrals.

 The following one-electron property integrals are calculated as requested:
          - overlap integrals
          - dipole length integrals

 Center of mass  (bohr):      0.392696638658     -0.239686267708     -0.053661221055
 Operator center (bohr):      0.000000000000      0.000000000000      0.000000000000
 Gauge origin    (bohr):      0.000000000000      0.000000000000      0.000000000000
 Dipole origin   (bohr):      0.000000000000      0.000000000000      0.000000000000
 
  *********************************** 
  QMMM electrostatic potential: 
  Multipole order                                    0
  Isotropic polarization  
  *********************************** 
 
  ---------------- 
  QMMM information 
  ---------------- 
 
  MM coordinates in au 
  -------------------- 
     1     -3.823031      8.494563     -4.301158
     2     -5.169064      7.107804     -4.123031
     3     -3.812258      9.223817     -2.591618
     4      6.953468    -11.196425     11.387939
     5      6.005529    -10.909557     12.928421
     6      8.310386    -12.264098     12.221310
     7      2.345197      9.440193     -0.860680
     8      3.190238     11.086018     -0.407928
     9      3.644378      8.090828     -1.090024
    10     -7.745562      4.661100     -3.205325
    11     -7.284333      3.376799     -1.842179
    12     -9.633907      4.915433     -3.200571
    13      4.476829     -8.119388     -0.670154
    14      5.692450     -7.538178      0.666457
    15      5.471485     -9.056732     -2.069379
    16     -8.668470     -2.968869     -7.841035
    17     -8.868810     -1.010790     -7.597338
    18    -10.358037     -3.792854     -8.299611
    19      0.159060     -9.217561      1.849772
    20     -1.261075     -9.199191      0.691292
    21      1.642087     -8.768012      0.876415
    22      6.900908    -10.837766     -4.323678
    23      8.096244    -11.894588     -3.255187
    24      5.540076    -11.860547     -5.145223
    25     -7.067090     -4.034269      1.393779
    26     -8.663846     -4.298103      0.460420
    27     -7.238605     -4.783445      3.132673
    28      1.714310      2.457115     -9.024285
    29      2.820282      1.157941     -8.255178
    30      2.853207      3.905331     -8.898752
    31      2.113050     -5.305041      6.453815
    32      2.990189     -4.877026      4.879910
    33      2.593819     -7.190740      6.636811
    34     -6.630233      8.074361     11.054206
    35     -6.492902      9.484337     12.212952
    36     -5.424665      6.847870     11.744060
    37      9.992550     10.035300     -0.757502
    38      9.889513      8.915182      0.563399
    39     11.668231     10.841283     -0.618819
    40      5.992021     -6.486468     -7.332009
    41      7.374892     -5.963157     -8.489952
    42      6.651762     -7.718467     -6.138150
    43     10.826112      5.363445     -3.641015
    44      9.772014      5.137511     -5.208535
    45     10.571765      7.198700     -3.121578
    46      7.714104      1.639096     -0.568278
    47      8.844109      2.748990     -1.536780
    48      8.835974      1.282395      0.966465
    49      7.526906     -7.748268      3.757231
    50      6.528964     -8.770451      5.044796
    51      9.096665     -8.777549      3.957049
    52      3.377611     -1.390893     10.245449
    53      2.740653     -2.882072      9.230870
    54      3.702013     -1.866806     12.031019
    55    -10.104898     -9.440471     -0.381625
    56    -10.438269     -8.664311      1.324175
    57    -10.502771     -7.942948     -1.508183
    58     10.635794      7.017479      3.956542
    59      9.045571      6.857004      4.967281
    60     11.978588      7.927622      4.913539
    61      0.726131     -8.083993     -6.289918
    62      2.004115     -7.822300     -7.592872
    63      1.081205     -9.877553     -6.113716
    64    -10.548310      5.403804    -10.839548
    65     -9.594276      6.670157    -11.854596
    66    -11.372757      4.297914    -12.046048
    67     -3.675961      4.520641      1.926039
    68     -4.785977      5.929917      1.573834
    69     -4.903788      3.022218      1.830147
    70     -0.898092      4.243580      6.228690
    71     -1.458810      2.997211      7.497358
    72     -1.977311      3.846819      4.672826
    73      7.952274     -3.436507     -2.088559
    74      7.778207     -1.554377     -1.904842
    75      6.503509     -4.157040     -3.056267
    76     -5.669099    -11.610364     -8.348253
    77     -5.284285     -9.890426     -7.677020
    78     -5.127859    -12.906863     -7.093240
    79     11.654096      0.808334      8.943140
    80     13.509575      0.430712      8.722224
    81     10.975115     -0.859243      8.369079
    82     -7.250186     -3.059332     10.077293
    83     -8.055148     -2.694942     11.641920
    84     -5.535992     -3.522958     10.706015
    85     -4.346457     -9.137321     -1.425617
    86     -4.609012     -8.954779     -3.234863
    87     -5.494579     -7.818967     -0.682749
    88     -7.430301      2.156504     -8.084422
    89     -8.742551      3.136802     -9.083309
    90     -7.632625      2.965088     -6.467136
    91      4.982885      4.089331      9.981161
    92      4.400894      2.312490     10.033529
    93      3.892847      5.266689     11.017251
    94      5.115109     -1.406455     -8.004759
    95      6.836899     -0.970342     -8.608551
    96      5.435174     -3.011530     -7.147572
    97     -1.513671      0.757693      9.754007
    98     -2.165732     -0.903448     10.317736
    99      0.256931      0.584337     10.342972
   100      1.166460      7.678768    -10.611604
   101      0.377057      9.180926    -11.455822
   102     -0.466537      6.758381    -10.161560
   103    -11.319849     -9.873930      5.648227
   104    -12.205306     -9.302052      7.147914
   105    -10.374666    -11.245252      6.321518
   106     10.822921      1.944026      3.116572
   107     11.336384      1.064082      4.797939
   108     11.036573      3.828476      3.499289
   109     10.595428     -5.429867     -9.088143
   110     10.775188     -5.630282    -10.965223
   111     10.896526     -7.187851     -8.453040
   112      8.088417     -3.180156      7.259279
   113      6.621568     -2.436552      8.176584
   114      7.392864     -3.882934      5.538562
   115     10.259227     -7.518812      9.657536
   116      9.146836     -8.781871     10.508325
   117      9.222521     -6.238215      8.712836
   118     -7.729025      1.469888      1.182018
   119     -7.311103     -0.398570      1.178237
   120     -9.533160      1.669465      1.734226
   121      6.841755      5.020910     -7.174821
   122      5.938905      5.078068     -5.499379
   123      7.179517      6.831989     -7.612333
   124      5.880208      6.180633      5.468584
   125      5.551426      5.209206      7.059102
   126      4.519684      7.418152      5.207664
   127     -3.092006    -10.529333      5.939585
   128     -1.593566    -10.008179      5.104957
   129     -4.205527     -8.985859      5.875801
   130      1.488730      9.313859      5.334842
   131      1.121292      9.223647      3.427801
   132      0.269471      8.085936      6.092955
   133     -8.433600      9.443372      6.324023
   134     -7.377842      9.814039      4.934772
   135     -7.353540      9.319415      7.784579
   136      9.681241      9.339272     -8.967816
   137     10.847721     10.663498     -8.191311
   138     10.690158      7.936162     -9.560861
   139      4.169626      4.717817     -2.302040
   140      2.279904      4.519376     -2.585846
   141      4.702274      3.560582     -0.998223
   142     -5.130210     10.063122      1.424196
   143     -5.432490     11.289003     -0.023365
   144     -4.070782     11.045542      2.648982
   145     -3.363951      4.699018    -10.498262
   146     -2.915139      3.282078    -11.474050
   147     -4.246167      3.918742     -9.123445
   148     -2.335155     -5.047984     10.083577
   149     -2.124128     -5.103997      8.391000
   150     -2.278180     -6.704145     10.947327
   151     -1.561509    -11.556074     11.073621
   152     -2.079388    -11.231377      9.244304
   153     -3.096813    -12.054159     12.002414
   154      9.487419      0.407119     -9.633298
   155     10.366367      0.450401    -11.245129
   156      8.262652      1.842657     -9.981019
   157      2.663548     10.342739     -5.939326
   158      2.081341      9.357803     -7.486065
   159      1.767982      9.749282     -4.457809
   160      4.247148    -10.371590      7.020391
   161      3.007849    -11.555284      6.355111
   162      4.631326    -10.967736      8.729350
   163      4.507413     -2.779370      2.682287
   164      4.058973     -1.017309      3.197589
   165      5.077016     -2.684704      0.919168
   166    -11.170568    -10.067905     -7.162270
   167    -11.892449    -10.537277     -5.530839
   168     -9.400248    -10.771452     -7.075201
   169     -7.210241     -6.774802      5.745589
   170     -8.749252     -7.838773      5.658165
   171     -7.359202     -5.647607      7.171811
   172    -10.620333     -5.069247     -3.037427
   173     -9.803591     -4.256272     -4.516387
   174    -12.278316     -4.193395     -2.754930
   175     -4.907386     -6.571094     -6.483698
   176     -3.183829     -6.263357     -7.029845
   177     -5.589857     -4.874282     -6.935752
 
  MM charges 
  ---------- 
     1     -0.674440
     2      0.337220
     3      0.337220
     4     -0.674440
     5      0.337220
     6      0.337220
     7     -0.674440
     8      0.337220
     9      0.337220
    10     -0.674440
    11      0.337220
    12      0.337220
    13     -0.674440
    14      0.337220
    15      0.337220
    16     -0.674440
    17      0.337220
    18      0.337220
    19     -0.674440
    20      0.337220
    21      0.337220
    22     -0.674440
    23      0.337220
    24      0.337220
    25     -0.674440
    26      0.337220
    27      0.337220
    28     -0.674440
    29      0.337220
    30      0.337220
    31     -0.674440
    32      0.337220
    33      0.337220
    34     -0.674440
    35      0.337220
    36      0.337220
    37     -0.674440
    38      0.337220
    39      0.337220
    40     -0.674440
    41      0.337220
    42      0.337220
    43     -0.674440
    44      0.337220
    45      0.337220
    46     -0.674440
    47      0.337220
    48      0.337220
    49     -0.674440
    50      0.337220
    51      0.337220
    52     -0.674440
    53      0.337220
    54      0.337220
    55     -0.674440
    56      0.337220
    57      0.337220
    58     -0.674440
    59      0.337220
    60      0.337220
    61     -0.674440
    62      0.337220
    63      0.337220
    64     -0.674440
    65      0.337220
    66      0.337220
    67     -0.674440
    68      0.337220
    69      0.337220
    70     -0.674440
    71      0.337220
    72      0.337220
    73     -0.674440
    74      0.337220
    75      0.337220
    76     -0.674440
    77      0.337220
    78      0.337220
    79     -0.674440
    80      0.337220
    81      0.337220
    82     -0.674440
    83      0.337220
    84      0.337220
    85     -0.674440
    86      0.337220
    87      0.337220
    88     -0.674440
    89      0.337220
    90      0.337220
    91     -0.674440
    92      0.337220
    93      0.337220
    94     -0.674440
    95      0.337220
    96      0.337220
    97     -0.674440
    98      0.337220
    99      0.337220
   100     -0.674440
   101      0.337220
   102      0.337220
   103     -0.674440
   104      0.337220
   105      0.337220
   106     -0.674440
   107      0.337220
   108      0.337220
   109     -0.674440
   110      0.337220
   111      0.337220
   112     -0.674440
   113      0.337220
   114      0.337220
   115     -0.674440
   116      0.337220
   117      0.337220
   118     -0.674440
   119      0.337220
   120      0.337220
   121     -0.674440
   122      0.337220
   123      0.337220
   124     -0.674440
   125      0.337220
   126      0.337220
   127     -0.674440
   128      0.337220
   129      0.337220
   130     -0.674440
   131      0.337220
   132      0.337220
   133     -0.674440
   134      0.337220
   135      0.337220
   136     -0.674440
   137      0.337220
   138      0.337220
   139     -0.674440
   140      0.337220
   141      0.337220
   142     -0.674440
   143      0.337220
   144      0.337220
   145     -0.674440
   146      0.337220
   147      0.337220
   148     -0.674440
   149      0.337220
   150      0.337220
   151     -0.674440
   152      0.337220
   153      0.337220
   154     -0.674440
   155      0.337220
   156      0.337220
   157     -0.674440
   158      0.337220
   159      0.337220
   160     -0.674440
   161      0.337220
   162      0.337220
   163     -0.674440
   164      0.337220
   165      0.337220
   166     -0.674440
   167      0.337220
   168      0.337220
   169     -0.674440
   170      0.337220
   171      0.337220
   172     -0.674440
   173      0.337220
   174      0.337220
   175     -0.674440
   176      0.337220
   177      0.337220
 
  MM isotropic polarizabilities in au 
  ----------------------------------- 
     1      5.739350
     2      2.308390
     3      2.308390
     4      5.739350
     5      2.308390
     6      2.308390
     7      5.739350
     8      2.308390
     9      2.308390
    10      5.739350
    11      2.308390
    12      2.308390
    13      5.739350
    14      2.308390
    15      2.308390
    16      5.739350
    17      2.308390
    18      2.308390
    19      5.739350
    20      2.308390
    21      2.308390
    22      5.739350
    23      2.308390
    24      2.308390
    25      5.739350
    26      2.308390
    27      2.308390
    28      5.739350
    29      2.308390
    30      2.308390
    31      5.739350
    32      2.308390
    33      2.308390
    34      5.739350
    35      2.308390
    36      2.308390
    37      5.739350
    38      2.308390
    39      2.308390
    40      5.739350
    41      2.308390
    42      2.308390
    43      5.739350
    44      2.308390
    45      2.308390
    46      5.739350
    47      2.308390
    48      2.308390
    49      5.739350
    50      2.308390
    51      2.308390
    52      5.739350
    53      2.308390
    54      2.308390
    55      5.739350
    56      2.308390
    57      2.308390
    58      5.739350
    59      2.308390
    60      2.308390
    61      5.739350
    62      2.308390
    63      2.308390
    64      5.739350
    65      2.308390
    66      2.308390
    67      5.739350
    68      2.308390
    69      2.308390
    70      5.739350
    71      2.308390
    72      2.308390
    73      5.739350
    74      2.308390
    75      2.308390
    76      5.739350
    77      2.308390
    78      2.308390
    79      5.739350
    80      2.308390
    81      2.308390
    82      5.739350
    83      2.308390
    84      2.308390
    85      5.739350
    86      2.308390
    87      2.308390
    88      5.739350
    89      2.308390
    90      2.308390
    91      5.739350
    92      2.308390
    93      2.308390
    94      5.739350
    95      2.308390
    96      2.308390
    97      5.739350
    98      2.308390
    99      2.308390
   100      5.739350
   101      2.308390
   102      2.308390
   103      5.739350
   104      2.308390
   105      2.308390
   106      5.739350
   107      2.308390
   108      2.308390
   109      5.739350
   110      2.308390
   111      2.308390
   112      5.739350
   113      2.308390
   114      2.308390
   115      5.739350
   116      2.308390
   117      2.308390
   118      5.739350
   119      2.308390
   120      2.308390
   121      5.739350
   122      2.308390
   123      2.308390
   124      5.739350
   125      2.308390
   126      2.308390
   127      5.739350
   128      2.308390
   129      2.308390
   130      5.739350
   131      2.308390
   132      2.308390
   133      5.739350
   134      2.308390
   135      2.308390
   136      5.739350
   137      2.308390
   138      2.308390
   139      5.739350
   140      2.308390
   141      2.308390
   142      5.739350
   143      2.308390
   144      2.308390
   145      5.739350
   146      2.308390
   147      2.308390
   148      5.739350
   149      2.308390
   150      2.308390
   151      5.739350
   152      2.308390
   153      2.308390
   154      5.739350
   155      2.308390
   156      2.308390
   157      5.739350
   158      2.308390
   159      2.308390
   160      5.739350
   161      2.308390
   162      2.308390
   163      5.739350
   164      2.308390
   165      2.308390
   166      5.739350
   167      2.308390
   168      2.308390
   169      5.739350
   170      2.308390
   171      2.308390
   172      5.739350
   173      2.308390
   174      2.308390
   175      5.739350
   176      2.308390
   177      2.308390


     ************************************************************************
     ************************** Output from HERINT **************************
     ************************************************************************



                      Nuclear contribution to dipole moments
                      --------------------------------------

                 au               Debye          C m (/(10**-30)

      x     20.05696161        50.97970811       170.05000208
      y    -12.47520276       -31.70880055      -105.76917365
      z     -2.75778127        -7.00958036       -23.38144330



 Threshold for neglecting two-electron integrals:  1.00D-12
 HERMIT - Number of two-electron integrals written:    36516391 ( 40.9% )
 HERMIT - Megabytes written:                            418.131

  Time used in TWOINT     is       7.07 seconds
  Total CPU  time used in HERMIT:   7.25 seconds
  Total wall time used in HERMIT:   8.59 seconds


                        .----------------------------------.
                        | End of Integral Section (HERMIT) |
                        `----------------------------------'



                   .--------------------------------------------.
                   | Starting in Wave Function Section (SIRIUS) |
                   `--------------------------------------------'

NCCEXCI for singlet:    1
 CCSD_INPUT: core-val requested
 Requested number of virtual orbs per sym
                     1
 Indices of requested virtual orbs
                     1
 CCSD_INPUT: core-val requested
 Requested number of core orbs per sym
                     1
 Indices of requested core orbs
                     1

 *** Output from Huckel module :

     Using EWMO model:          T
     Using EHT  model:          F
     Number of Huckel orbitals each symmetry:   37

 EWMO - Energy Weighted Maximum Overlap - is a Huckel type method,
        which normally is better than Extended Huckel Theory.
 Reference: Linderberg and Ohrn, Propagators in Quantum Chemistry (Wiley, 1973)

 Huckel EWMO eigenvalues for symmetry :  1
          -20.685057     -20.684872     -20.684765     -20.684236     -15.676238
           -1.817372      -1.615880      -1.612971      -1.599055      -1.500098
           -0.833816      -0.805854      -0.798644      -0.781534      -0.763613
           -0.752049      -0.736650      -0.685459      -0.668600      -0.647412
           -0.642353      -0.615884      -0.594300      -0.572892      -0.558001
           -0.258958      -0.241405      -0.234319      -0.233331      -0.186384
           -0.174831      -0.172515      -0.172283      -0.164091      -0.145011
           -0.141312      -0.133757

 **********************************************************************
 *SIRIUS* a direct, restricted step, second order MCSCF program       *
 **********************************************************************

 
     Date and time (Linux)  : Mon Dec  3 16:08:57 2018
     Host name              : n-62-23-30                              

 Title lines from ".mol" input file:
                                                                             
                                                                             

 Print level on unit LUPRI =   2 is   0
 Print level on unit LUW4  =   2 is  11

@    (Integral direct) CC calculation.

@    This is a combination run starting with
@              a restricted, closed shell Hartree-Fock calculation


 Initial molecular orbitals are obtained according to
 ".MOSTART EWMO  " input option

@    QM part is embedded in an environment :

@         Model: QMMM

     Wave function specification
     ============================

     For the specification of the Coupled Cluster: see later.

@    Wave function type        --- CC ---
@    Number of closed shell electrons          50
@    Number of electrons in active shells       0
@    Total charge of the molecule               1

@    Spin multiplicity and 2 M_S                1         0
@    Total number of symmetries                 1 (point group: C1 )
@    Reference state symmetry                   1 (irrep name : A  )

     Orbital specifications
     ======================
@    Abelian symmetry species          All |    1
@                                          |  A  
                                       --- |  ---
@    Occupied SCF orbitals              25 |   25
@    Secondary orbitals                138 |  138
@    Total number of orbitals          163 |  163
@    Number of basis functions         163 |  163

     Optimization information
     ========================
@    Number of configurations                 1
@    Number of orbital rotations           3450
     ------------------------------------------
@    Total number of variables             3451

     Maximum number of Fock   iterations      0
     Maximum number of DIIS   iterations     60
     Maximum number of QC-SCF iterations     60
     Threshold for SCF convergence     1.00D-07


 Changes of defaults for CC:
 ---------------------------


 -Implicit frozen core calculation
 -Excitation energies calculated
 -One-photon absorption strengths will be calculated
 -Oscillator strengths calculated
  
* Read MO coefficients from SIRIUS.RST with label "NEWORB  " and header info:  3Dec18  REORTHO 


 ***********************************************
 ***** DIIS acceleration of SCF iterations *****
 ***********************************************

 C1-DIIS algorithm; max error vectors =    8
 -----------------------------------------------------------------------------

 *** DIIS iteration number    1
 RDSUPM called. NFMAT, ISYMDM(1:NFMAT)                     1
                     1

Calculating AOSUPINT
     (Precalculated two-electron integrals are transformed to P-supermatrix elements.
      Threshold for discarding integrals :  1.00D-12 )
  CPU  time used in FORMSUP    is   2.92 seconds
  WALL time used in FORMSUP    is  12.97 seconds

 ITDIIS, energy, error norm, change in energy, scr.thr., difden:
@ DIIS iter.   1    -360.155288364        4.09825D+00   -3.60D+02  -20    F

 (DIIS_RED) Control Parameters C2DIIS =         F NEVC =    1


 (DIIS_RED) B matrix:

               Column   1
       1      16.79565929
    ==== End of matrix output ====

 DIIS C vector; C2DIIS = F, LAMBDA = -1.68D+01
    1.000000
* Read MO coefficients from SIRIUS.RST with label "NEWORB  " and header info:  3Dec18  DIIS   1
      Virial theorem: -V/T =      2.002876
@      MULPOP N       0.15; H       0.15; H       0.17; H       0.17; H       0.18; O      -0.61; O      -0.57; O      -0.60; O      -0.58; H       0.32; 
@             H       0.32; H       0.31; H       0.33; H       0.32; H       0.33; H       0.33; H       0.31; 
   1  Level shift: doubly occupied orbital energies shifted by -2.00D-01

 DIIS Fock eigenvalues in symmetry 1
      -20.82222      -20.81667      -20.80979      -20.78501      -16.50243
       -1.75943       -1.64024       -1.63934       -1.63070       -1.61039
       -1.24145       -1.22765       -1.21464       -1.02113       -1.02100
       -1.01006       -1.00213       -0.90016       -0.87990       -0.87396
       -0.84922       -0.84363       -0.83738       -0.83505       -0.81134
       -0.00293       -0.00005        0.06364        0.07620        0.08494
        0.12944        0.14500        0.15360        0.15396        0.18703
        0.19901        0.21001        0.22098        0.24089        0.27944
        0.29506        0.41300        0.46360        0.48444        0.48928
        0.50254        0.50666        0.51513        0.53582        0.54241
        0.66900        0.69668        0.70367        0.82873        0.87591
        0.89818        0.90551        0.91374        0.94822        0.97672
        0.99427        1.00820        1.03289        1.03599        1.05072
        1.06069        1.06784        1.11854        1.25783        1.27383
        1.31071        1.35465        1.36838        1.37037        1.38557
        1.38731        1.39257        1.39866        1.43993        1.51943
        1.52582        1.54376        1.56414        1.60888        1.63406
        1.64216        1.68112        1.76368        1.77202        1.78807
        1.79451        1.82665        1.93744        2.00003        2.07789
        2.10362        2.11861        2.13829        2.17201        2.19913
        2.21130        2.22922        2.23932        2.25619        2.26171
        2.41366        2.43130        2.47491        2.48435        2.53452
        2.55562        2.56475        2.57259        2.64715        2.67036
        2.69893        2.71430        2.72565        2.73916        2.97370
        2.99497        3.04343        3.06900        3.32280        3.34119
        3.35641        3.36540        3.40819        3.41430        3.48496
        3.49020        3.49925        3.56977        3.57451        3.57704
        3.84888        3.89084        3.90651        4.01733        4.08116
        4.11382        4.12025        4.13277        4.73561        4.77874
        4.85839        5.24179        5.25130        5.26430        5.29535
        5.67469        5.68789        5.74883        5.76681        5.91201
        6.03906        6.04149        6.18583       36.36376       51.44204
       51.48410       51.49515       51.52308
 Time used in FCKEIG, thr_jaco:   4.60D-02  4.90D-02  1.74D-04
 CPU and wall times used in FCKEIG, THR_FCKEIG:   4.60D-02  4.90D-02  4.10D-02
 -----------------------------------------------------------------------------

 *** DIIS iteration number    2
 RDSUPM called. NFMAT, ISYMDM(1:NFMAT)                     1
                     1

 ITDIIS, energy, error norm, change in energy, scr.thr., difden:
@ DIIS iter.   2    -361.090241615        1.18397D+00   -9.35D-01  -20    F

 (DIIS_RED) Control Parameters C2DIIS =         F NEVC =    2


 (DIIS_RED) B matrix:

               Column   1     Column   2
       1      16.79565929
       2       0.69137328     1.40178267
    ==== End of matrix output ====

 DIIS C vector; C2DIIS = F, LAMBDA = -1.37D+00
    0.042249    0.957751
* Read MO coefficients from SIRIUS.RST with label "NEWORB  " and header info:  3Dec18  DIIS   2
      Virial theorem: -V/T =      2.001218
@      MULPOP N      -0.53; H       0.34; H       0.35; H       0.32; H       0.32; O      -0.60; O      -0.52; O      -0.52; O      -0.61; H       0.31; 
@             H       0.31; H       0.31; H       0.28; H       0.30; H       0.27; H       0.33; H       0.33; 
   2  Level shift: doubly occupied orbital energies shifted by -1.00D-01

 DIIS Fock eigenvalues in symmetry 1
      -20.77896      -20.75953      -20.75773      -20.70201      -15.63334
       -1.52985       -1.52896       -1.52632       -1.49363       -1.40055
       -0.91292       -0.89975       -0.89419       -0.88099       -0.87861
       -0.87282       -0.86284       -0.78587       -0.76936       -0.75862
       -0.72767       -0.71953       -0.70629       -0.70281       -0.67785
       -0.00005        0.06306        0.10883        0.12127        0.13482
        0.16709        0.17792        0.19194        0.21179        0.22096
        0.24330        0.26187        0.30445        0.36218        0.36894
        0.37864        0.45686        0.51105        0.52289        0.53456
        0.54518        0.55406        0.55677        0.57807        0.63110
        0.80480        0.84054        0.85107        0.87779        0.91238
        0.93476        0.96719        0.98923        1.01023        1.01517
        1.03348        1.03648        1.06456        1.07832        1.09881
        1.16766        1.17193        1.23823        1.28482        1.31339
        1.35800        1.40647        1.42150        1.42984        1.43672
        1.44144        1.44887        1.45847        1.49655        1.58779
        1.60857        1.62262        1.67481        1.70357        1.72361
        1.73834        1.75400        1.82497        1.83359        1.85103
        1.86785        1.93816        2.04298        2.08162        2.13298
        2.16943        2.17815        2.24425        2.27518        2.28567
        2.30363        2.31391        2.32449        2.33659        2.36514
        2.52558        2.52671        2.55933        2.59044        2.61839
        2.63288        2.64481        2.66998        2.71628        2.73712
        2.77450        2.78409        2.96615        2.98541        3.16320
        3.22776        3.29474        3.35608        3.36805        3.37468
        3.38667        3.39843        3.43735        3.50098        3.52470
        3.52600        3.56743        3.59789        3.60148        3.61568
        3.86841        3.91633        3.93097        4.05472        4.10286
        4.14174        4.15026        4.15846        5.13231        5.19041
        5.23116        5.25299        5.26878        5.29374        5.30397
        5.68596        5.69129        5.75110        5.77231        5.92261
        6.05910        6.06274        6.22277       37.11454       51.38773
       51.43696       51.45621       51.50810
 Time used in FCKEIG, thr_jaco:   3.20D-02  3.60D-02  5.04D-05
 CPU and wall times used in FCKEIG, THR_FCKEIG:   3.20D-02  3.60D-02  1.18D-02
 -----------------------------------------------------------------------------

 *** DIIS iteration number    3
 RDSUPM called. NFMAT, ISYMDM(1:NFMAT)                     1
                     1

 ITDIIS, energy, error norm, change in energy, scr.thr., difden:
@ DIIS iter.   3    -361.169131601        3.75500D-01   -7.89D-02  -20    F

 (DIIS_RED) Control Parameters C2DIIS =         F NEVC =    3


 (DIIS_RED) B matrix:

               Column   1     Column   2     Column   3
       1      16.79565929
       2       0.69137328     1.40178267
       3       0.84886968    -0.00866233     0.14100025
    ==== End of matrix output ====

 DIIS C vector; C2DIIS = F, LAMBDA = -9.38D-02
   -0.046402    0.095698    0.950704
* Read MO coefficients from SIRIUS.RST with label "NEWORB  " and header info:  3Dec18  DIIS   3
      Virial theorem: -V/T =      2.002442
@      MULPOP N      -0.32; H       0.28; H       0.32; H       0.28; H       0.28; O      -0.64; O      -0.57; O      -0.57; O      -0.68; H       0.33; 
@             H       0.33; H       0.34; H       0.29; H       0.33; H       0.29; H       0.36; H       0.37; 
   3  Level shift: doubly occupied orbital energies shifted by -5.00D-02

 DIIS Fock eigenvalues in symmetry 1
      -20.68411      -20.66767      -20.66370      -20.63757      -15.79496
       -1.46122       -1.45895       -1.45653       -1.43522       -1.40089
       -0.88415       -0.86378       -0.85929       -0.82405       -0.81959
       -0.81593       -0.80788       -0.71888       -0.69850       -0.69194
       -0.66416       -0.64365       -0.63139       -0.62712       -0.60913
       -0.00005        0.06897        0.11494        0.12697        0.14095
        0.17166        0.18187        0.19599        0.21669        0.22553
        0.24725        0.26242        0.30646        0.36205        0.36824
        0.37961        0.46797        0.52190        0.53387        0.54517
        0.55544        0.56316        0.56593        0.58887        0.63028
        0.79749        0.83180        0.83827        0.88832        0.92546
        0.94791        0.97367        0.99988        1.01976        1.02853
        1.04386        1.05103        1.07540        1.09285        1.11436
        1.16523        1.16915        1.23243        1.29455        1.32384
        1.36979        1.42107        1.43598        1.44590        1.45103
        1.45548        1.46137        1.47246        1.50792        1.59712
        1.61797        1.63155        1.68053        1.71148        1.73195
        1.74603        1.75781        1.83743        1.84418        1.86381
        1.87811        1.93750        2.04591        2.09162        2.14608
        2.18723        2.19257        2.26049        2.27886        2.30002
        2.31388        2.32255        2.33853        2.34006        2.36301
        2.53364        2.53637        2.57055        2.59550        2.62977
        2.64147        2.65412        2.67807        2.72940        2.74888
        2.78666        2.79592        2.93361        2.95135        3.15445
        3.20490        3.27398        3.32025        3.38293        3.39081
        3.41042        3.42401        3.46426        3.49932        3.54121
        3.55269        3.57539        3.62651        3.62834        3.63228
        3.89504        3.94433        3.95743        4.07105        4.13148
        4.16800        4.17044        4.18839        5.05711        5.10960
        5.18073        5.27815        5.28495        5.30966        5.32790
        5.70606        5.72060        5.78177        5.80613        5.95604
        6.09201        6.09674        6.24044       36.90943       51.43263
       51.47896       51.50032       51.52310
 Time used in FCKEIG, thr_jaco:   2.70D-02  3.20D-02  1.60D-05
 CPU and wall times used in FCKEIG, THR_FCKEIG:   2.70D-02  3.20D-02  3.75D-03
 -----------------------------------------------------------------------------

 *** DIIS iteration number    4
 RDSUPM called. NFMAT, ISYMDM(1:NFMAT)                     1
                     1

 ITDIIS, energy, error norm, change in energy, scr.thr., difden:
@ DIIS iter.   4    -361.179409972        9.06375D-02   -1.03D-02  -20    F

 (DIIS_RED) Control Parameters C2DIIS =         F NEVC =    4


 (DIIS_RED) B matrix:

               Column   1     Column   2     Column   3     Column   4
       1      16.79565929
       2       0.69137328     1.40178267
       3       0.84886968    -0.00866233     0.14100025
       4       0.06176726     0.07662022     0.00653423     0.00821515
    ==== End of matrix output ====

 DIIS C vector; C2DIIS = F, LAMBDA = -4.43D-03
   -0.000433   -0.055516   -0.019234    1.075183
* Read MO coefficients from SIRIUS.RST with label "NEWORB  " and header info:  3Dec18  DIIS   4
      Virial theorem: -V/T =      2.002227
@      MULPOP N      -0.39; H       0.30; H       0.33; H       0.29; H       0.29; O      -0.66; O      -0.58; O      -0.58; O      -0.70; H       0.34; 
@             H       0.34; H       0.34; H       0.29; H       0.34; H       0.29; H       0.37; H       0.38; 
   4  Level shift: doubly occupied orbital energies shifted by -1.25D-02

 DIIS Fock eigenvalues in symmetry 1
      -20.66250      -20.64334      -20.64200      -20.60379      -15.72523
       -1.42791       -1.42630       -1.42408       -1.39968       -1.35147
       -0.83681       -0.81555       -0.81258       -0.78994       -0.78420
       -0.77913       -0.77362       -0.68405       -0.66258       -0.65584
       -0.62537       -0.60736       -0.59402       -0.59045       -0.56924
       -0.00005        0.07012        0.11457        0.12731        0.14104
        0.17229        0.18257        0.19660        0.21727        0.22637
        0.24850        0.26665        0.30993        0.36870        0.37486
        0.38496        0.46831        0.52159        0.53307        0.54487
        0.55501        0.56303        0.56548        0.58820        0.63605
        0.80378        0.83812        0.84590        0.88965        0.92693
        0.94925        0.97633        1.00163        1.02093        1.02803
        1.04468        1.04988        1.07498        1.09150        1.11163
        1.17054        1.17327        1.23794        1.29574        1.32503
        1.37106        1.42021        1.43521        1.44424        1.44953
        1.45456        1.45983        1.47193        1.50853        1.59797
        1.61946        1.63230        1.68591        1.71433        1.73355
        1.74831        1.76290        1.83619        1.84359        1.86329
        1.87893        1.94287        2.05171        2.09288        2.14547
        2.18512        2.19227        2.25803        2.28297        2.29890
        2.31408        2.32613        2.33667        2.34127        2.36899
        2.53714        2.53867        2.57277        2.60095        2.62869
        2.64538        2.65740        2.68027        2.72837        2.74782
        2.78512        2.79731        2.94524        2.96352        3.16320
        3.21381        3.28289        3.33305        3.38035        3.39068
        3.40804        3.42089        3.46125        3.50131        3.54095
        3.54864        3.57596        3.62307        3.62578        3.63161
        3.89062        3.94011        3.95409        4.07033        4.12724
        4.16726        4.16794        4.18441        5.07422        5.12758
        5.19612        5.27306        5.28189        5.30454        5.32181
        5.70496        5.71324        5.77629        5.79895        5.94790
        6.08535        6.08903        6.23835       36.94131       51.41713
       51.46613       51.48493       51.51959
 Time used in FCKEIG, thr_jaco:   2.60D-02  3.80D-02  3.86D-06
 CPU and wall times used in FCKEIG, THR_FCKEIG:   2.60D-02  3.80D-02  9.06D-04
 -----------------------------------------------------------------------------

 *** DIIS iteration number    5
 RDSUPM called. NFMAT, ISYMDM(1:NFMAT)                     1
                     1

 ITDIIS, energy, error norm, change in energy, scr.thr., difden:
@ DIIS iter.   5    -361.180364170        2.91157D-02   -9.54D-04  -20    F

 (DIIS_RED) Control Parameters C2DIIS =         F NEVC =    5


 (DIIS_RED) B matrix:

               Column   1     Column   2     Column   3     Column   4     Column   5
       1      16.79565929
       2       0.69137328     1.40178267
       3       0.84886968    -0.00866233     0.14100025
       4       0.06176726     0.07662022     0.00653423     0.00821515
       5       0.02166991     0.00713618     0.00552564     0.00074929     0.00084773
    ==== End of matrix output ====

 DIIS C vector; C2DIIS = F, LAMBDA = -5.69D-04
    0.001207   -0.011984   -0.046279    0.123608    0.933447
* Read MO coefficients from SIRIUS.RST with label "NEWORB  " and header info:  3Dec18  DIIS   5
      Virial theorem: -V/T =      2.001893
@      MULPOP N      -0.38; H       0.30; H       0.33; H       0.29; H       0.29; O      -0.67; O      -0.59; O      -0.59; O      -0.71; H       0.35; 
@             H       0.35; H       0.35; H       0.30; H       0.34; H       0.30; H       0.37; H       0.38; 

 DIIS Fock eigenvalues in symmetry 1
      -20.64130      -20.62357      -20.62067      -20.58881      -15.70947
       -1.41261       -1.41079       -1.40851       -1.38628       -1.33740
       -0.82275       -0.80143       -0.79835       -0.77548       -0.77140
       -0.76448       -0.75899       -0.66912       -0.64776       -0.64084
       -0.61199       -0.59113       -0.57817       -0.57416       -0.55501
       -0.00005        0.07075        0.11499        0.12774        0.14152
        0.17274        0.18304        0.19706        0.21769        0.22681
        0.24901        0.26756        0.31080        0.36992        0.37604
        0.38602        0.46922        0.52241        0.53381        0.54566
        0.55575        0.56344        0.56583        0.58877        0.63715
        0.80519        0.83951        0.84723        0.89177        0.92863
        0.95106        0.97795        1.00331        1.02238        1.02953
        1.04599        1.05150        1.07568        1.09298        1.11316
        1.17190        1.17456        1.23935        1.29670        1.32678
        1.37285        1.42130        1.43605        1.44502        1.45026
        1.45544        1.45986        1.47294        1.50993        1.59843
        1.62040        1.63312        1.68692        1.71528        1.73401
        1.74897        1.76394        1.83647        1.84367        1.86376
        1.87952        1.94396        2.05287        2.09398        2.14657
        2.18620        2.19351        2.25913        2.28372        2.29950
        2.31520        2.32740        2.33710        2.34224        2.37016
        2.53800        2.53962        2.57372        2.60196        2.62882
        2.64629        2.65813        2.68104        2.72856        2.74790
        2.78509        2.79779        2.94671        2.96502        3.16463
        3.21589        3.28506        3.33481        3.38348        3.39174
        3.41089        3.42418        3.46404        3.50409        3.54183
        3.55174        3.57894        3.62616        3.62836        3.63285
        3.89376        3.94335        3.95684        4.07114        4.13063
        4.16891        4.17027        4.18790        5.07634        5.12962
        5.19845        5.27753        5.28429        5.30945        5.32630
        5.70661        5.71791        5.78033        5.80388        5.95246
        6.08925        6.09360        6.23953       36.94450       51.42571
       51.47331       51.49364       51.52205
 Time used in FCKEIG, thr_jaco:   2.50D-02  3.20D-02  1.24D-06
 CPU and wall times used in FCKEIG, THR_FCKEIG:   2.50D-02  3.20D-02  2.91D-04
 -----------------------------------------------------------------------------

 *** DIIS iteration number    6
 RDSUPM called. NFMAT, ISYMDM(1:NFMAT)                     1
                     1

 ITDIIS, energy, error norm, change in energy, scr.thr., difden:
@ DIIS iter.   6    -361.180443139        1.03257D-02   -7.90D-05  -20    F

 (DIIS_RED) Control Parameters C2DIIS =         F NEVC =    6


 (DIIS_RED) B matrix:

               Column   1     Column   2     Column   3     Column   4     Column   5     Column   6
       1      16.79565929
       2       0.69137328     1.40178267
       3       0.84886968    -0.00866233     0.14100025
       4       0.06176726     0.07662022     0.00653423     0.00821515
       5       0.02166991     0.00713618     0.00552564     0.00074929     0.00084773
       6      -0.00466704    -0.00000694     0.00069089     0.00052895     0.00000976     0.00010662
    ==== End of matrix output ====

 DIIS C vector; C2DIIS = F, LAMBDA = -3.30D-05
    0.000732    0.005928   -0.007579   -0.126561    0.119939    1.007541
* Read MO coefficients from SIRIUS.RST with label "NEWORB  " and header info:  3Dec18  DIIS   6
      Virial theorem: -V/T =      2.002127
@      MULPOP N      -0.37; H       0.29; H       0.33; H       0.29; H       0.28; O      -0.67; O      -0.59; O      -0.59; O      -0.71; H       0.35; 
@             H       0.35; H       0.35; H       0.30; H       0.34; H       0.30; H       0.38; H       0.39; 

 DIIS Fock eigenvalues in symmetry 1
      -20.64384      -20.62548      -20.62310      -20.58942      -15.71117
       -1.41314       -1.41140       -1.40921       -1.38640       -1.33780
       -0.82321       -0.80181       -0.79874       -0.77602       -0.77177
       -0.76505       -0.75969       -0.67002       -0.64849       -0.64169
       -0.61225       -0.59159       -0.57843       -0.57458       -0.55484
       -0.00005        0.07070        0.11486        0.12766        0.14144
        0.17269        0.18295        0.19696        0.21760        0.22672
        0.24894        0.26751        0.31071        0.36981        0.37593
        0.38596        0.46900        0.52220        0.53356        0.54544
        0.55552        0.56328        0.56567        0.58859        0.63705
        0.80495        0.83924        0.84699        0.89149        0.92852
        0.95094        0.97776        1.00304        1.02205        1.02918
        1.04568        1.05115        1.07542        1.09266        1.11274
        1.17166        1.17434        1.23912        1.29659        1.32648
        1.37248        1.42098        1.43574        1.44471        1.44993
        1.45514        1.45962        1.47267        1.50962        1.59824
        1.62014        1.63287        1.68685        1.71510        1.73382
        1.74882        1.76384        1.83619        1.84345        1.86355
        1.87933        1.94382        2.05278        2.09363        2.14614
        2.18578        2.19316        2.25860        2.28350        2.29917
        2.31492        2.32710        2.33678        2.34199        2.36999
        2.53777        2.53943        2.57358        2.60188        2.62855
        2.64619        2.65799        2.68086        2.72830        2.74763
        2.78474        2.79764        2.94633        2.96461        3.16449
        3.21529        3.28444        3.33430        3.38262        3.39154
        3.41028        3.42337        3.46337        3.50334        3.54157
        3.55087        3.57817        3.62541        3.62778        3.63254
        3.89285        3.94249        3.95616        4.07084        4.12970
        4.16865        4.16957        4.18699        5.07556        5.12888
        5.19765        5.27646        5.28374        5.30822        5.32529
        5.70620        5.71657        5.77933        5.80257        5.95105
        6.08820        6.09231        6.23912       36.94284       51.42320
       51.47142       51.49124       51.52145
 Time used in FCKEIG, thr_jaco:   2.40D-02  3.30D-02  4.39D-07
 CPU and wall times used in FCKEIG, THR_FCKEIG:   2.40D-02  3.40D-02  1.03D-04
 -----------------------------------------------------------------------------

 *** DIIS iteration number    7
 RDSUPM called. NFMAT, ISYMDM(1:NFMAT)                     1
                     1

 ITDIIS, energy, error norm, change in energy, scr.thr., difden:
@ DIIS iter.   7    -361.180454287        2.14666D-03   -1.11D-05  -20    F

 (DIIS_RED) Control Parameters C2DIIS =         F NEVC =    7


 (DIIS_RED) B matrix:

               Column   1     Column   2     Column   3     Column   4     Column   5     Column   6
       1      16.79565929
       2       0.69137328     1.40178267
       3       0.84886968    -0.00866233     0.14100025
       4       0.06176726     0.07662022     0.00653423     0.00821515
       5       0.02166991     0.00713618     0.00552564     0.00074929     0.00084773
       6      -0.00466704    -0.00000694     0.00069089     0.00052895     0.00000976     0.00010662
       7       0.00014685     0.00021878    -0.00001678     0.00000673     0.00004333     0.00000078

               Column   7
       7       0.00000461
    ==== End of matrix output ====

 DIIS C vector; C2DIIS = F, LAMBDA = -1.05D-06
   -0.000226   -0.000723    0.005039    0.021615   -0.099250   -0.139708    1.213253
* Read MO coefficients from SIRIUS.RST with label "NEWORB  " and header info:  3Dec18  DIIS   7
      Virial theorem: -V/T =      2.002072
@      MULPOP N      -0.37; H       0.29; H       0.33; H       0.29; H       0.28; O      -0.67; O      -0.59; O      -0.59; O      -0.71; H       0.35; 
@             H       0.35; H       0.35; H       0.30; H       0.34; H       0.30; H       0.38; H       0.39; 

 DIIS Fock eigenvalues in symmetry 1
      -20.64344      -20.62525      -20.62279      -20.58939      -15.71077
       -1.41300       -1.41126       -1.40902       -1.38634       -1.33759
       -0.82306       -0.80166       -0.79858       -0.77594       -0.77176
       -0.76492       -0.75957       -0.66995       -0.64846       -0.64163
       -0.61225       -0.59136       -0.57826       -0.57439       -0.55473
       -0.00005        0.07076        0.11490        0.12770        0.14148
        0.17273        0.18300        0.19700        0.21764        0.22676
        0.24899        0.26758        0.31079        0.36994        0.37606
        0.38607        0.46906        0.52224        0.53361        0.54549
        0.55557        0.56331        0.56571        0.58862        0.63718
        0.80507        0.83938        0.84714        0.89162        0.92862
        0.95105        0.97787        1.00314        1.02215        1.02927
        1.04576        1.05123        1.07547        1.09273        1.11280
        1.17179        1.17446        1.23926        1.29667        1.32660
        1.37261        1.42103        1.43579        1.44473        1.44995
        1.45518        1.45962        1.47271        1.50971        1.59829
        1.62022        1.63292        1.68695        1.71518        1.73387
        1.74888        1.76395        1.83620        1.84348        1.86357
        1.87937        1.94393        2.05290        2.09371        2.14621
        2.18582        2.19323        2.25866        2.28358        2.29920
        2.31499        2.32718        2.33680        2.34207        2.37010
        2.53784        2.53950        2.57365        2.60197        2.62856
        2.64627        2.65807        2.68092        2.72830        2.74763
        2.78473        2.79768        2.94651        2.96481        3.16464
        3.21549        3.28465        3.33451        3.38280        3.39159
        3.41040        3.42352        3.46349        3.50354        3.54163
        3.55105        3.57834        3.62555        3.62789        3.63261
        3.89302        3.94263        3.95627        4.07089        4.12989
        4.16871        4.16970        4.18716        5.07581        5.12914
        5.19790        5.27668        5.28385        5.30844        5.32545
        5.70626        5.71680        5.77948        5.80276        5.95128
        6.08834        6.09249        6.23916       36.94323       51.42359
       51.47165       51.49154       51.52148
 Time used in FCKEIG, thr_jaco:   2.30D-02  2.80D-02  9.14D-08
 CPU and wall times used in FCKEIG, THR_FCKEIG:   2.30D-02  2.80D-02  2.15D-05
 -----------------------------------------------------------------------------

 *** DIIS iteration number    8
 RDSUPM called. NFMAT, ISYMDM(1:NFMAT)                     1
                     1

 ITDIIS, energy, error norm, change in energy, scr.thr., difden:
@ DIIS iter.   8    -361.180454787        3.35259D-04   -5.00D-07  -20    F

 (DIIS_RED) Control Parameters C2DIIS =         F NEVC =    8


 (DIIS_RED) B matrix:

               Column   1     Column   2     Column   3     Column   4     Column   5     Column   6
       1      16.79565929
       2       0.69137328     1.40178267
       3       0.84886968    -0.00866233     0.14100025
       4       0.06176726     0.07662022     0.00653423     0.00821515
       5       0.02166991     0.00713618     0.00552564     0.00074929     0.00084773
       6      -0.00466704    -0.00000694     0.00069089     0.00052895     0.00000976     0.00010662
       7       0.00014685     0.00021878    -0.00001678     0.00000673     0.00004333     0.00000078
       8       0.00012153    -0.00004842     0.00001157     0.00000060     0.00000055     0.00000130

               Column   7     Column   8
       7       0.00000461
       8       0.00000032     0.00000011
    ==== End of matrix output ====

 DIIS C vector; C2DIIS = F, LAMBDA = -5.68D-08
    0.000012    0.000033   -0.000772   -0.000890    0.016251   -0.004200   -0.228647    1.218213
* Read MO coefficients from SIRIUS.RST with label "NEWORB  " and header info:  3Dec18  DIIS   8
      Virial theorem: -V/T =      2.002087
@      MULPOP N      -0.37; H       0.29; H       0.33; H       0.28; H       0.28; O      -0.67; O      -0.59; O      -0.59; O      -0.71; H       0.35; 
@             H       0.35; H       0.35; H       0.30; H       0.34; H       0.30; H       0.38; H       0.39; 

 DIIS Fock eigenvalues in symmetry 1
      -20.64351      -20.62522      -20.62277      -20.58934      -15.71080
       -1.41299       -1.41124       -1.40904       -1.38631       -1.33760
       -0.82307       -0.80166       -0.79859       -0.77593       -0.77174
       -0.76492       -0.75958       -0.66999       -0.64847       -0.64164
       -0.61225       -0.59138       -0.57825       -0.57438       -0.55471
       -0.00005        0.07076        0.11489        0.12770        0.14148
        0.17273        0.18300        0.19700        0.21764        0.22676
        0.24898        0.26758        0.31078        0.36993        0.37605
        0.38607        0.46906        0.52224        0.53361        0.54549
        0.55557        0.56331        0.56571        0.58863        0.63717
        0.80506        0.83937        0.84713        0.89161        0.92863
        0.95106        0.97787        1.00314        1.02215        1.02927
        1.04576        1.05123        1.07548        1.09273        1.11280
        1.17178        1.17446        1.23925        1.29668        1.32660
        1.37260        1.42103        1.43578        1.44473        1.44995
        1.45518        1.45962        1.47271        1.50971        1.59829
        1.62021        1.63292        1.68695        1.71518        1.73387
        1.74888        1.76394        1.83620        1.84348        1.86357
        1.87937        1.94392        2.05289        2.09370        2.14620
        2.18582        2.19323        2.25864        2.28358        2.29921
        2.31498        2.32718        2.33680        2.34207        2.37009
        2.53783        2.53950        2.57365        2.60197        2.62857
        2.64626        2.65806        2.68092        2.72830        2.74763
        2.78472        2.79768        2.94650        2.96479        3.16463
        3.21548        3.28463        3.33449        3.38277        3.39161
        3.41041        3.42353        3.46350        3.50351        3.54164
        3.55102        3.57834        3.62556        3.62790        3.63262
        3.89299        3.94264        3.95628        4.07091        4.12986
        4.16873        4.16971        4.18717        5.07579        5.12912
[...]
 | 1 1 1 1 |  12   1   8   1 |      978        1 |       477754 |   -0.116562  |
 | 1 1 1 1 |  26   1   8   1 |      992        1 |       491537 |   -0.104322  |
 | 1 1 1 1 |  27   1   8   1 |      993        1 |       492529 |    0.107551  |
 | 1 1 1 1 |  28   1   8   1 |      994        1 |       493522 |    0.071597  |
 | 1 1 1 1 |  12   1   9   1 |     1116        1 |       622171 |    0.070694  |
 | 1 1 1 1 |  26   1   9   1 |     1130        1 |       637886 |    0.077255  |
 | 1 1 1 1 |  28   1   9   1 |     1132        1 |       640147 |    0.121956  |
 | 1 1 1 1 |  28   1  12   1 |     1546        1 |      1194286 |    0.077195  |
 +=============================================================================+


          Norm of Printed Amplitude Vector :             0.8408

          Printed all single excitations greater than 0.383501

          Printed all double excitations greater than 0.064165



+======================================================================+
| contributions of excitation levels to right eigenvectors as computed |
| from the (RE|RE) self overlap                                        |
+----------------------------------------------------------------------+
| sym | multi | state |    E / eV  | % singles | % doubles | % triples |
+======================================================================+
|    1|   1   |   1   |  411.53956 |  88.3841  |  11.6159  |   0.0000  |
+======================================================================+





+======================================================================+
| contributions of excitation levels to excited states as computed     |
| from the (LE|RE) overlap                                             |
+----------------------------------------------------------------------+
| sym | multi | state |    E / eV  | % singles | % doubles | % triples |
+======================================================================+
|    1|   1   |   1   |  411.53956 |  79.4737  |  20.5263  |   0.0000  |
+======================================================================+



 --------------------------
 Symmetry class Nr.:     1
 Multiplicity      :     3
 --------------------------

 Length of Excitation vectors in this class is:   8404200
 No Excitation Energies calculated in this symmetry class
     

   *******************************************************************
   *                                                                 *
   *--------   OUTPUT FROM PROPERTY AND SYMMETRY ANALYSIS   ---------*
   *                                                                 *
   *******************************************************************



                         +-------------------------------+
                         ! REQUESTED PROPERTY OPERATORS: !
                         +-------------------------------+

             Index   Oper. Label  Symmetry  Transp.  PDBS  Atom
             --------------------------------------------------
                1     HAM0            1        1      T      0
                2     XDIPLEN         1        1      F      0
                3     YDIPLEN         1        1      F      0
                4     ZDIPLEN         1        1      F      0
             --------------------------------------------------




                         +-------------------------------+
                         ! REQUESTED EXPECTATION VALUES: !
                         +-------------------------------+

                       Index   Oper. Label  Symmetry
                       -----------------------------
                       -----------------------------




                       +------------------------------------+
                       ! REQUESTED EFFECTIVE FOCK MATRICES: !
                       +------------------------------------+

                       Index   Oper. Label  Symmetry
                       -----------------------------
                       -----------------------------




                        +----------------------------------+
                        ! REQUESTED FIRST ORDER M-VECTORS: !
                        +----------------------------------+

               Index   State Symmetry  Frequency
               --------------------------------------------------
                  1             1    1     1.512380D+01
               --------------------------------------------------


      

    *******************************************************************
    *          SOLVING COUPLED CLUSTER RESPONSE EQUATIONS             *
    *******************************************************************



 
 +======================================================================+
 !                     RHS & ETA VECTORS TO COMPUTE:                    !
 +======================================================================+
 | TYPE | # VEC. |  NEEDED FOR:                                         |
 +----------------------------------------------------------------------+
 +======================================================================+



 +======================================================================+
 !                       LINEAR EQUATIONS TO SOLVE:                     !
 +======================================================================+
 | TYPE | # VEC. |  EQUATION:                                           |
 +----------------------------------------------------------------------+
 |  M1  |    1   |  first-order ground - excited state multipliers      |
 +======================================================================+



 +======================================================================+
 !                F MATRIX TRANSFORMATIONS TO COMPUTE:                  !
 +======================================================================+
 | TYPE | # VEC. |  TRANSFORMED:                                        |
 +----------------------------------------------------------------------+
 |  FR  |    1   |  right eigenvectors (RE)                             |
 +======================================================================+





 Testing R1 list: 

 List nr.  Label     Symmetry      Frequency      T1-norm        T2-norm


 Testing L1 list: 

 List nr.  Label     Symmetry      Frequency      T1-norm        T2-norm
  Solvent 1-order response equations converged in                     0 
  solvent iterations
 SONIAPRI                     0
 CCEQ_STR: CVSEPARATION =  T
 CCEQ_STR: IONIZATION =  T
 CCEQ_STR: REMOVE_CORE =  F
 could not find required file CCM1_1___1
 IOPTSV is    33 ... program continues nevertheless.
 Vector nr.  1 of type M1  and symmetry  1 was not found on file.
     M1  start vector nr.  1 of symmetry  1 generated from gradient
 CCEQ_STR: freeze VALENCE OR VIRT
 CCEQ_SOL: CVSEPARA=     T
 CCEQ_SOL: LIONISAT=     T
 CCEQ_SOL: REMOVE_CORE =  F



 ----- COUPLED CLUSTER RESPONSE SOLVER -----

    Iter  #Vectors  time (min)   residual
    --------------------------------------
 CCRED CVS/IONIS sigma_                     1 
 project out valence occupied or virtual
      1       1         1.49     0.11E+01
 CCRED CVS/IONIS sigma_                     2 
 project out valence occupied or virtual
      2       1         1.50     0.20E+00
 CCRED CVS/IONIS sigma_                     3 
 project out valence occupied or virtual
      3       1         1.56     0.26E-01
 CCRED CVS/IONIS sigma_                     4 
 project out valence occupied or virtual
                    -1  vectors with norm le:  1.000000000000000E-035  REMOVED

 CCORT,**WARNING**  number vectors added is zero after check for vector norm , NBADD :    0

 CCORT, number vectors added is zero , NBADD :    0

 CCORT, number vectors added is zero , NBADD :    0

 CCORT, number vectors added is zero , NBADD :    0

 CCORT, number vectors added is zero , NBADD :    0

 *** MICROITERATIONS STOPPED DUE TO LINEAR DEPENDENCE BETWEEN ALL NEW TRIAL VECTORS
                     0  trial vectors converged
  LINEAR DEPENDENCE BETWEEN                     1  NON CONVERGED TRIAL VECTORS
      4       1         1.56     0.22E-02

 ***  CCEQ_SOL -MICROITERATIONS STOPPED  
     LINEAR DEPENDENCE BETWEEN ALL NEW TRIAL VECTORS
    --------------------------------------
    converged in  4 iterations
    threshold:    0.10E-08


         Routine          Time (min)
         ---------------------------
         CC_TRDRV            6.12
         CCRED               0.03
         CCNEX               0.05
         ---------------------------
         Total time          6.21


  Total CPU  time used in CCEQ_SOLV:  6 minutes 12 seconds
  Total wall time used in CCEQ_SOLV:  7 minutes 51 seconds


 xxxxxxxxxxxxxxxxxxxxxxxxxxxxxxxxxxxxx

 
 Solution of CC response equations completed.
 

 *******************************************************************
 *                                                                 *
 *--------  OUTPUT FROM COUPLED CLUSTER LINEAR RESPONSE   ---------*
 *                                                                 *
 *--------      CALCULATION OF SECOND ORDER RESIDUES      ---------*
 *                                                                 *
 *******************************************************************



                  +---------------------------------------------+
                  ! CC_SOPR: Calculation of CCSD       Residues !
                  +---------------------------------------------+

 Doing the Mf*CsiA
 Doing the Mf*CsiA
 Doing the Mf*CsiA


 CCSD  Right transition moments in atomic units:
 -----------------------------------------------

  1      15.123801  <XDIPLEN |f> =      -0.00000002
  1      15.123801  <YDIPLEN |f> =      -0.00000000
  1      15.123801  <ZDIPLEN |f> =       0.00000000


 CCSD  Left  transition moments in atomic units:
 -----------------------------------------------

  1      15.123801  <f|XDIPLEN > =      -0.00000001
  1      15.123801  <f|YDIPLEN > =      -0.00000000
  1      15.123801  <f|ZDIPLEN > =       0.00000000


 CCSD  linear response residue property in atomic units:
 -------------------------------------------------------

 RES{<<XDIPLEN ,XDIPLEN >>(15.123801)} =     0.00000000 (   0.00000001)
 RES{<<XDIPLEN ,YDIPLEN >>(15.123801)} =     0.00000000 (   0.00000000)
 RES{<<XDIPLEN ,ZDIPLEN >>(15.123801)} =    -0.00000000 (  -0.00000000)
 RES{<<YDIPLEN ,XDIPLEN >>(15.123801)} =     0.00000000 (   0.00000000)
 RES{<<YDIPLEN ,YDIPLEN >>(15.123801)} =     0.00000000 (   0.00000000)
 RES{<<YDIPLEN ,ZDIPLEN >>(15.123801)} =    -0.00000000 (  -0.00000000)
 RES{<<ZDIPLEN ,XDIPLEN >>(15.123801)} =    -0.00000000 (  -0.00000000)
 RES{<<ZDIPLEN ,YDIPLEN >>(15.123801)} =    -0.00000000 (  -0.00000000)
 RES{<<ZDIPLEN ,ZDIPLEN >>(15.123801)} =     0.00000000 (   0.00000000)


 CCSD  Transition strength matrix for state nr.  1 of symmetry 1
 CCSD  excitation energy:15.12380116

 Gauge: length

               Column   1     Column   2     Column   3
       1     1.027629D-16   4.378406D-18  -8.931791D-18
       2     4.378406D-18   1.796180D-19  -3.813081D-19
       3    -8.931791D-18  -3.813081D-19   7.762384D-19
    ==== End of matrix output ====

 Principal values of diagonalized transition strength matrix:

             a.u.               
 1       0.00000000
 2       0.00000000
 3       0.00000000

 Principal axis of diagonalized transition strength matrix:


               Column   1     Column   2     Column   3
       1       1.00000000     0.00000000     0.00000000
       2       0.00000000     1.00000000     0.00000000
       3       0.00000000     0.00000000     1.00000000
    ==== End of matrix output ====


 CCSD   oscillator strength matrix for state nr.  1 of symmetry 1
 CCSD  excitation energy:15.12380116


               Column   1     Column   2     Column   3
       1     1.036110D-15   4.414543D-17  -9.005509D-17
       2     4.414543D-17   1.811004D-18  -3.844552D-18
       3    -9.005509D-17  -3.844552D-18   7.826451D-18
    ==== End of matrix output ====

 Principal values of diagonalized oscillator strength matrix:

             a.u.               
 1       0.00000000
 2       0.00000000
 3       0.00000000

 Principal axis of diagonalized oscillator strength matrix:


               Column   1     Column   2     Column   3
       1       1.00000000     0.00000000     0.00000000
       2       0.00000000     1.00000000     0.00000000
       3       0.00000000     0.00000000     1.00000000
    ==== End of matrix output ====

  Total time for      9 linear response residues:       3.26 seconds.
  

 *******************************************************************************
 *******************************************************************************
 *                                                                             *
 *                                                                             *
 *                   SUMMARY OF COUPLED CLUSTER CALCULATION                    *
 *                                                                             *
 *                                                                             *
 *******************************************************************************
 *******************************************************************************

                                                                                
                                                                                
            Total SCF   energy:                  -361.1804548033                
            Total MP2   energy:                  -362.2806716707                
            Total CCSD  energy:                  -362.3223825119                
                                                                                
                                                                                
            Total SCF   energy:                  -361.1804548033                
            Total RSTAR energy:                  -362.3223825119                
            Total CCSD  energy:                  -362.3225039126                
                                                                                
                                                                                
            Total SCF   energy:                  -361.1804548033                
            Total RSTAR energy:                  -362.3225039126                
            Total CCSD  energy:                  -362.3225044882                
                                                                                
                                                                                
            Total SCF   energy:                  -361.1804548033                
            Total RSTAR energy:                  -362.3225044882                
            Total CCSD  energy:                  -362.3225045902                
                                                                                
                                                                                
            Total SCF   energy:                  -361.1804548033                
            Total RSTAR energy:                  -362.3225045902                
            Total CCSD  energy:                  -362.3225045949                
                                                                                
                                                                                
            Total SCF   energy:                  -361.1804548033                
            Total RSTAR energy:                  -362.3225045949                
            Total CCSD  energy:                  -362.3225045952                
            CCSD Total  energy:                  -362.6934611876                
            CCSD E(QM/MM)     :                    -0.3679590695                
                                                                                
                                                                                
                                                                                
 +=============================================================================+
 |  sym. | Exci.  |        CCSD       Excitation energies            | ||T1||  |
 |(spin, |        +------------------------------------------------------------+
 | spat) |        |     Hartree    |       eV.      |     cm-1       |    %    |
 +=============================================================================+
 | ^1A   |    1   |    15.1238012  |     411.53956  |   3319290.654  |  88.38  |
 +=============================================================================+
                                                                                
                                                                                
     Total energies in Hartree:                                                 
             1 ^1A       -347.2017009584                                        
                                                                                
                                                                                
 +=============================================================================+
 |  sym. | Exci.  |        CCSD       Length   Gauge Oscillator Strength       |
 |(spin, |        +------------------------------------------------------------+
 | spat) |        | Dipole Strength(a.u.) | Oscillator strength  | Direction   |
 +=============================================================================+
 | ^1A   |    1   |        0.0000000      |      0.0000000       |    -        |
 +=============================================================================+

  1 a.u. =        27.21138 eV.  
  1 a.u. =    219474.62934 cm-1.
  

 *******************************************************************************
 *******************************************************************************
 *                                                                             *
 *                                                                             *
 *                      END OF COUPLED CLUSTER CALCULATION                     *
 *                                                                             *
 *                                                                             *
 *******************************************************************************
 *******************************************************************************


 CPU and wall time for CC :    7183.308    9689.855

 
     Date and time (Linux)  : Mon Dec  3 18:54:31 2018
     Host name              : n-62-23-30                              


                      .-------------------------------------.
                      | End of Coupled Cluster Section (CC) |
                      `-------------------------------------'

  Total CPU  time used in DALTON:   2 hours  2 minutes  1 second 
  Total wall time used in DALTON:   2 hours 45 minutes 43 seconds

 
     Date and time (Linux)  : Mon Dec  3 18:54:31 2018
     Host name              : n-62-23-30                              
  

 +---------------------------------------------------------+ 
 | List of selected calculated molecular properties (a.u.) | 
 +---------------------------------------------------------+ 

  Properties are read from unit number                      4

 CCSD       properties :
 #  1 1 CCSD/MM  Ground state Energy =    -362.6934611876
 #  2 1 E_QM/MM  Ground state Energy =      -0.3679590695
 #  3 1 Sy: 1 Sp: 1 Exc:  1 E_tot:   -347.2017009584 w:     15.1238011597 E_grs:   -362.3255021181
 #  4 1 Exctot   Excited state Energy =    -347.2017009584
 #  5 1 |<O|XDIPLEN |i(15.123801)>| =     0.00000001
 #  7 1 |<O|YDIPLEN |i(15.123801)>| =     0.00000000
 #  9 1 |<O|ZDIPLEN |i(15.123801)>| =     0.00000000

 THE_END   
