

     ************************************************************************
     *************** Dalton - An Electronic Structure Program ***************
     ************************************************************************

    This is output from DALTON release Dalton2017.alpha (2016)
         ( Web site: http://daltonprogram.org )

   ----------------------------------------------------------------------------

    NOTE:
     
    Dalton is an experimental code for the evaluation of molecular
    properties using (MC)SCF, DFT, CI, and CC wave functions.
    The authors accept no responsibility for the performance of
    the code or for the correctness of the results.
     
    The code (in whole or part) is provided under a licence and
    is not to be reproduced for further distribution without
    the written permission of the authors or their representatives.
     
    See the home page "http://daltonprogram.org" for further information.
     
    If results obtained with this code are published,
    the appropriate citations would be both of:
     
       K. Aidas, C. Angeli, K. L. Bak, V. Bakken, R. Bast,
       L. Boman, O. Christiansen, R. Cimiraglia, S. Coriani,
       P. Dahle, E. K. Dalskov, U. Ekstroem,
       T. Enevoldsen, J. J. Eriksen, P. Ettenhuber, B. Fernandez,
       L. Ferrighi, H. Fliegl, L. Frediani, K. Hald, A. Halkier,
       C. Haettig, H. Heiberg, T. Helgaker, A. C. Hennum,
       H. Hettema, E. Hjertenaes, S. Hoest, I.-M. Hoeyvik,
       M. F. Iozzi, B. Jansik, H. J. Aa. Jensen, D. Jonsson,
       P. Joergensen, J. Kauczor, S. Kirpekar,
       T. Kjaergaard, W. Klopper, S. Knecht, R. Kobayashi, H. Koch,
       J. Kongsted, A. Krapp, K. Kristensen, A. Ligabue,
       O. B. Lutnaes, J. I. Melo, K. V. Mikkelsen, R. H. Myhre,
       C. Neiss, C. B. Nielsen, P. Norman, J. Olsen,
       J. M. H. Olsen, A. Osted, M. J. Packer, F. Pawlowski,
       T. B. Pedersen, P. F. Provasi, S. Reine, Z. Rinkevicius,
       T. A. Ruden, K. Ruud, V. Rybkin, P. Salek, C. C. M. Samson,
       A. Sanchez de Meras, T. Saue, S. P. A. Sauer,
       B. Schimmelpfennig, K. Sneskov, A. H. Steindal,
       K. O. Sylvester-Hvid, P. R. Taylor, A. M. Teale,
       E. I. Tellgren, D. P. Tew, A. J. Thorvaldsen, L. Thoegersen,
       O. Vahtras, M. A. Watson, D. J. D. Wilson, M. Ziolkowski
       and H. Agren,
       "The Dalton quantum chemistry program system",
       WIREs Comput. Mol. Sci. 2014, 4:269–284 (doi: 10.1002/wcms.1172)
     
    and
     
       Dalton, a Molecular Electronic Structure Program,
       Release Dalton2017.alpha (2016), see http://daltonprogram.org
   ----------------------------------------------------------------------------

    Authors in alphabetical order (major contribution(s) in parenthesis):

  Kestutis Aidas,           Vilnius University,           Lithuania   (QM/MM)
  Celestino Angeli,         University of Ferrara,        Italy       (NEVPT2)
  Keld L. Bak,              UNI-C,                        Denmark     (AOSOPPA, non-adiabatic coupling, magnetic properties)
  Vebjoern Bakken,          University of Oslo,           Norway      (DALTON; geometry optimizer, symmetry detection)
  Radovan Bast,             UiT The Arctic U. of Norway,  Norway      (DALTON installation and execution frameworks)
  Pablo Baudin,             University of Valencia,       Spain       (Cholesky excitation energies)
  Linus Boman,              NTNU,                         Norway      (Cholesky decomposition and subsystems)
  Ove Christiansen,         Aarhus University,            Denmark     (CC module)
  Renzo Cimiraglia,         University of Ferrara,        Italy       (NEVPT2)
  Sonia Coriani,            University of Trieste,        Italy       (CC module, MCD in RESPONS)
  Janusz Cukras,            University of Trieste,        Italy       (MChD in RESPONS)
  Paal Dahle,               University of Oslo,           Norway      (Parallelization)
  Erik K. Dalskov,          UNI-C,                        Denmark     (SOPPA)
  Thomas Enevoldsen,        Univ. of Southern Denmark,    Denmark     (SOPPA)
  Janus J. Eriksen,         Aarhus University,            Denmark     (Polarizable embedding model, TDA)
  Rasmus Faber,             University of Copenhagen,     Denmark     (Vib.avg. NMR with SOPPA, parallel AO-SOPPA)
  Berta Fernandez,          U. of Santiago de Compostela, Spain       (doublet spin, ESR in RESPONS)
  Lara Ferrighi,            Aarhus University,            Denmark     (PCM Cubic response)
  Heike Fliegl,             University of Oslo,           Norway      (CCSD(R12))
  Luca Frediani,            UiT The Arctic U. of Norway,  Norway      (PCM)
  Bin Gao,                  UiT The Arctic U. of Norway,  Norway      (Gen1Int library)
  Christof Haettig,         Ruhr-University Bochum,       Germany     (CC module)
  Kasper Hald,              Aarhus University,            Denmark     (CC module)
  Asger Halkier,            Aarhus University,            Denmark     (CC module)
  Frederik Beyer Hansen,    University of Copenhagen,     Denmark     (Parallel AO-SOPPA)
  Erik D. Hedegaard,        Univ. of Southern Denmark,    Denmark     (Polarizable embedding model, QM/MM)
  Hanne Heiberg,            University of Oslo,           Norway      (geometry analysis, selected one-electron integrals)
  Trygve Helgaker,          University of Oslo,           Norway      (DALTON; ABACUS, ERI, DFT modules, London, and much more)
  Alf Christian Hennum,     University of Oslo,           Norway      (Parity violation)
  Hinne Hettema,            University of Auckland,       New Zealand (quadratic response in RESPONS; SIRIUS supersymmetry)
  Eirik Hjertenaes,         NTNU,                         Norway      (Cholesky decomposition)
  Pi A. B. Haase,           University of Copenhagen,     Denmark     (Triplet AO-SOPPA)
  Maria Francesca Iozzi,    University of Oslo,           Norway      (RPA)
  Brano Jansik              Technical Univ. of Ostrava    Czech Rep.  (DFT cubic response)
  Hans Joergen Aa. Jensen,  Univ. of Southern Denmark,    Denmark     (DALTON; SIRIUS, RESPONS, ABACUS modules, London, and much more)
  Dan Jonsson,              UiT The Arctic U. of Norway,  Norway      (cubic response in RESPONS module)
  Poul Joergensen,          Aarhus University,            Denmark     (RESPONS, ABACUS, and CC modules)
  Maciej Kaminski,          University of Warsaw,         Poland      (CPPh in RESPONS)
  Joanna Kauczor,           Linkoeping University,        Sweden      (Complex polarization propagator (CPP) module)
  Sheela Kirpekar,          Univ. of Southern Denmark,    Denmark     (Mass-velocity & Darwin integrals)
  Wim Klopper,              KIT Karlsruhe,                Germany     (R12 code in CC, SIRIUS, and ABACUS modules)
  Stefan Knecht,            ETH Zurich,                   Switzerland (Parallel CI and MCSCF)
  Rika Kobayashi,           Australian National Univ.,    Australia   (DIIS in CC, London in MCSCF)
  Henrik Koch,              NTNU,                         Norway      (CC module, Cholesky decomposition)
  Jacob Kongsted,           Univ. of Southern Denmark,    Denmark     (Polarizable embedding model, QM/MM)
  Andrea Ligabue,           University of Modena,         Italy       (CTOCD, AOSOPPA)
  Nanna H. List             Univ. of Southern Denmark,    Denmark     (Polarizable embedding model)
  Ola B. Lutnaes,           University of Oslo,           Norway      (DFT Hessian)
  Juan I. Melo,             University of Buenos Aires,   Argentina   (LRESC, Relativistic Effects on NMR Shieldings)
  Kurt V. Mikkelsen,        University of Copenhagen,     Denmark     (MC-SCRF and QM/MM)
  Rolf H. Myhre,            NTNU,                         Norway      (Cholesky, subsystems and ECC2)
  Christian Neiss,          Univ. Erlangen-Nuernberg,     Germany     (CCSD(R12))
  Christian B. Nielsen,     University of Copenhagen,     Denmark     (QM/MM)
  Patrick Norman,           Linkoeping University,        Sweden      (Cubic response and complex frequency response in RESPONS)
  Jeppe Olsen,              Aarhus University,            Denmark     (SIRIUS CI/density modules)
  Jogvan Magnus H. Olsen,   Univ. of Southern Denmark,    Denmark     (Polarizable embedding model, QM/MM)
  Anders Osted,             Copenhagen University,        Denmark     (QM/MM)
  Martin J. Packer,         University of Sheffield,      UK          (SOPPA)
  Filip Pawlowski,          Kazimierz Wielki University,  Poland      (CC3)
  Morten N. Pedersen,       Univ. of Southern Denmark,    Denmark     (Polarizable embedding model)
  Thomas B. Pedersen,       University of Oslo,           Norway      (Cholesky decomposition)
  Patricio F. Provasi,      University of Northeastern,   Argentina   (Analysis of coupling constants in localized orbitals)
  Zilvinas Rinkevicius,     KTH Stockholm,                Sweden      (open-shell DFT, ESR)
  Elias Rudberg,            KTH Stockholm,                Sweden      (DFT grid and basis info)
  Torgeir A. Ruden,         University of Oslo,           Norway      (Numerical derivatives in ABACUS)
  Kenneth Ruud,             UiT The Arctic U. of Norway,  Norway      (DALTON; ABACUS magnetic properties and much more)
  Pawel Salek,              KTH Stockholm,                Sweden      (DALTON; DFT code)
  Claire C. M. Samson       University of Karlsruhe       Germany     (Boys localization, r12 integrals in ERI)
  Alfredo Sanchez de Meras, University of Valencia,       Spain       (CC module, Cholesky decomposition)
  Trond Saue,               Paul Sabatier University,     France      (direct Fock matrix construction)
  Stephan P. A. Sauer,      University of Copenhagen,     Denmark     (SOPPA(CCSD), SOPPA prop., AOSOPPA, vibrational g-factors)
  Bernd Schimmelpfennig,    Forschungszentrum Karlsruhe,  Germany     (AMFI module)
  Kristian Sneskov,         Aarhus University,            Denmark     (Polarizable embedding model, QM/MM)
  Arnfinn H. Steindal,      UiT The Arctic U. of Norway,  Norway      (parallel QM/MM, Polarizable embedding model)
  Casper Steinmann,         Univ. of Southern Denmark,    Denmark     (QFIT, Polarizable embedding model)
  K. O. Sylvester-Hvid,     University of Copenhagen,     Denmark     (MC-SCRF)
  Peter R. Taylor,          VLSCI/Univ. of Melbourne,     Australia   (Symmetry handling ABACUS, integral transformation)
  Andrew M. Teale,          University of Nottingham,     England     (DFT-AC, DFT-D)
  David P. Tew,             University of Bristol,        England     (CCSD(R12))
  Olav Vahtras,             KTH Stockholm,                Sweden      (triplet response, spin-orbit, ESR, TDDFT, open-shell DFT)
  David J. Wilson,          La Trobe University,          Australia   (DFT Hessian and DFT magnetizabilities)
  Hans Agren,               KTH Stockholm,                Sweden      (SIRIUS module, RESPONS, MC-SCRF solvation model)
 --------------------------------------------------------------------------------

     Date and time (Linux)  : Fri Jan 11 17:49:22 2019
     Host name              : n-62-29-23                              

 * Work memory size             :  1280000000 =  9.537 gigabytes.

 * Directories for basis set searches:
   1) /zhome/37/3/129401/NH3NH4/CCSD/AIMD_SAMPLING/nh4_4h2o_nd
   2) /zhome/9a/4/124800/source/dalton/build-mlcc/basis


Compilation information
-----------------------

 Who compiled             | rfaber
 Host                     | hpclogin1
 System                   | Linux-2.6.32-696.1.1.el6.x86_64
 CMake generator          | Unix Makefiles
 Processor                | x86_64
 64-bit integers          | ON
 MPI                      | OFF
 Fortran compiler         | /opt/intel/2016update2/compilers_and_libraries_201
                          | 6.2.181/linux/bin/intel64/ifort
 Fortran compiler version | ifort (IFORT) 16.0.2 20160204
 C compiler               | /opt/intel/2016update2/compilers_and_libraries_201
                          | 6.2.181/linux/bin/intel64/icc
 C compiler version       | icc (ICC) 16.0.2 20160204
 C++ compiler             | /opt/intel/2016update2/compilers_and_libraries_201
                          | 6.2.181/linux/bin/intel64/icpc
 C++ compiler version     | icpc (ICC) 16.0.2 20160204
 Static linking           | OFF
 Last Git revision        | bb4d1599ca5680a9f3980451fc8bbefdba436d59
 Git branch               | mlcc
 Configuration time       | 2017-06-13 16:11:03.928841


   Content of the .dal input file
 ----------------------------------

**DALTON
.RUN WAVE FUNCTIONS
*QMMM
.QMMM
**INTEGRALS
.DIPLEN
**WAVE FUNCTIONS
.CC
*PRINT
!To check the origin of excit
.PRINTL
   0 11
*SCF INP
.THRESH
1.0D-7
*CC INP
.CCSD
.THRLEQ
 1.0D-9
.THRENR
 1.0D-10
.FROIMP
4
0
.PRINT
 1
.MAX IT
 1200
.MAXRED
 1200
.MXLRV
1199
*CCSLV
.CCMM
.MXSLIT
200
.MXINIT
4 5
*CCEXCI
.NCCEXC
 15
.CVSEPARA
1
1
*CCLRSD
.DIPOLE
**END OF DALTON INPUT


   Content of the .mol file
 ----------------------------

ATOMBASIS


Atomtypes=4 Charge=1 Nosymm Angstrom
   7.00000    1    Basis=6-311G**
N          0.000000        0.000000        0.000000
   1.00000    4    Basis=6-311G**
H          0.213054        0.913857       -0.331465
H          0.540081       -0.739627       -0.527222
H         -0.983007       -0.106204       -0.265957
H          0.016736       -0.220781        1.007617
   8.00000    4    Basis=6-311G**
O         -3.012019       -0.430479        0.651997
O         -0.067078        2.251490       -1.943992
O          1.886821       -1.789299       -1.550108
O         -0.655438       -1.640672        2.101926
   1.00000    8    Basis=6-311G**
H         -3.913446       -0.191876        0.276023
H         -2.883941        0.173173        1.421659
H          0.098453        1.968732       -2.825882
H         -1.006135        2.409128       -1.928359
H          1.566919       -2.498953       -2.166160
H          2.302289       -2.267414       -0.745010
H         -0.085874       -1.644769        2.964084
H         -1.553200       -1.350775        2.403086


       *******************************************************************
       *********** Output from DALTON general input processing ***********
       *******************************************************************

 --------------------------------------------------------------------------------
   Overall default print level:    0
   Print level for DALTON.STAT:    1

    HERMIT 1- and 2-electron integral sections will be executed
    "Old" integral transformation used (limited to max 255 basis functions)
    Wave function sections will be executed (SIRIUS module)
 --------------------------------------------------------------------------------


 Changes of defaults for *QMMM  :
 --------------------------------

 +------------------+
 |  WORD: | CHANGE: |
 +------------------+
 |   QMMM |       T |
 +------------------+
 


   ****************************************************************************
   *************** Output of molecule and basis set information ***************
   ****************************************************************************


    The two title cards from your ".mol" input:
    ------------------------------------------------------------------------
 1:                                                                         
 2:                                                                         
    ------------------------------------------------------------------------

  Coordinates are entered in Angstrom and converted to atomic units.
          - Conversion factor : 1 bohr = 0.52917721 A

  Atomic type no.    1
  --------------------
  Nuclear charge:   7.00000
  Number of symmetry independent centers:    1
  Number of basis sets to read;    2
  The basis set is "6-311G**" from the basis set library.
  Basis set file used for this atomic type with Z =   7 :
     "/zhome/9a/4/124800/source/dalton/build-mlcc/basis/6-311G**"

  Info about the basis set file: your basis has no documentation.
  Basis set: 6-311G**                                                                        

  Atomic type no.    2
  --------------------
  Nuclear charge:   1.00000
  Number of symmetry independent centers:    4
  Number of basis sets to read;    2
  The basis set is "6-311G**" from the basis set library.
  Basis set file used for this atomic type with Z =   1 :
     "/zhome/9a/4/124800/source/dalton/build-mlcc/basis/6-311G**"

  Info about the basis set file: your basis has no documentation.
  Basis set: 6-311G**                                                                        

  Atomic type no.    3
  --------------------
  Nuclear charge:   8.00000
  Number of symmetry independent centers:    4
  Number of basis sets to read;    2
  The basis set is "6-311G**" from the basis set library.
  Basis set file used for this atomic type with Z =   8 :
     "/zhome/9a/4/124800/source/dalton/build-mlcc/basis/6-311G**"

  Info about the basis set file: your basis has no documentation.
  Basis set: 6-311G**                                                                        

  Atomic type no.    4
  --------------------
  Nuclear charge:   1.00000
  Number of symmetry independent centers:    8
  Number of basis sets to read;    2
  The basis set is "6-311G**" from the basis set library.
  Basis set file used for this atomic type with Z =   1 :
     "/zhome/9a/4/124800/source/dalton/build-mlcc/basis/6-311G**"

  Info about the basis set file: your basis has no documentation.
  Basis set: 6-311G**                                                                        


                         SYMGRP: Point group information
                         -------------------------------

@    Point group: C1 


                                 Isotopic Masses
                                 ---------------

                           N          14.003074
                           H           1.007825
                           H           1.007825
                           H           1.007825
                           H           1.007825
                           O          15.994915
                           O          15.994915
                           O          15.994915
                           O          15.994915
                           H           1.007825
                           H           1.007825
                           H           1.007825
                           H           1.007825
                           H           1.007825
                           H           1.007825
                           H           1.007825
                           H           1.007825

                       Total mass:    90.076634 amu
                       Natural abundance:  98.500 %

 Center-of-mass coordinates (a.u.):   -0.740281   -0.615076   -0.263545


  Atoms and basis sets
  --------------------

  Number of atom types :    4
  Total number of atoms:   17

  label    atoms   charge   prim   cont     basis
  ----------------------------------------------------------------------
  N           1    7.0000    31    18      [11s5p1d|4s3p1d]                                   
  H           4    1.0000     8     6      [5s1p|3s1p]                                        
  O           4    8.0000    31    18      [11s5p1d|4s3p1d]                                   
  H           8    1.0000     8     6      [5s1p|3s1p]                                        
  ----------------------------------------------------------------------
  total:     17   51.0000   251   162
  ----------------------------------------------------------------------
  Spherical harmonic basis used.

  Threshold for neglecting AO integrals:  1.00D-12


  Cartesian Coordinates (a.u.)
  ----------------------------

  Total number of coordinates:   51
  N       :     1  x   0.0000000000    2  y   0.0000000000    3  z   0.0000000000
  H       :     4  x   0.4026137098    5  y   1.7269394474    6  z  -0.6263780700
  H       :     7  x   1.0206051753    8  y  -1.3976924647    9  z  -0.9963051871
  H       :    10  x  -1.8576140090   11  y  -0.2006964734   12  z  -0.5025858910
  H       :    13  x   0.0316264564   14  y  -0.4172156236   15  z   1.9041201689
  O       :    16  x  -5.6918909933   17  y  -0.8134874126   18  z   1.2320957643
  O       :    19  x  -0.1267590490   20  y   4.2546994732   21  z  -3.6736124692
  O       :    22  x   3.5655749369   23  y  -3.3812850657   24  z  -2.9292795842
  O       :    25  x  -1.2385983119   26  y  -3.1004207409   27  z   3.9720644750
  H       :    28  x  -7.3953411450   29  y  -0.3625930900   30  z   0.5216078742
  H       :    31  x  -5.4498586506   32  y   0.3272495422   33  z   2.6865461531
  H       :    34  x   0.1860492062   35  y   3.7203642935   36  z  -5.3401430415
  H       :    37  x  -1.9013195948   38  y   4.5525921201   39  z  -3.6440703807
  H       :    40  x   2.9610477700   41  y  -4.7223367692   42  z  -4.0934491429
  H       :    43  x   4.3506956706   44  y  -4.2847914720   45  z  -1.4078648604
  H       :    46  x  -0.1622783413   47  y  -3.1081629489   48  z   5.6013069715
  H       :    49  x  -2.9351226173   50  y  -2.5525948065   51  z   4.5411743948

  Max    interatomic separation is    6.8275 Angstrom (   12.9021 Bohr)
  between atoms   16 and   12, "H     " and "H     ".

  Min HX interatomic separation is    0.9408 Angstrom (    1.7778 Bohr)

  Min YX interatomic separation is    2.7458 Angstrom (    5.1888 Bohr)


  Bond distances (Angstrom):
  --------------------------

                  atom 1     atom 2       distance
                  ------     ------       --------
  bond distance:  H          N            0.995186
  bond distance:  H          N            1.056740
  bond distance:  H          N            1.023873
  bond distance:  H          N            1.031657
  bond distance:  H          O            1.005415
  bond distance:  H          O            0.986499
  bond distance:  H          O            0.940788
  bond distance:  H          O            0.952325
  bond distance:  H          O            0.992706
  bond distance:  H          O            1.024398
  bond distance:  H          O            1.033313
  bond distance:  H          O            0.990310


  Bond angles (degrees):
  ----------------------

                  atom 1     atom 2     atom 3         angle
                  ------     ------     ------         -----
  bond angle:     H          N          H            111.539
  bond angle:     H          N          H            102.373
  bond angle:     H          N          H            121.222
  bond angle:     H          N          H            106.767
  bond angle:     H          N          H            109.221
  bond angle:     H          N          H            104.305
  bond angle:     H          O          H            105.244
  bond angle:     H          O          H            103.806
  bond angle:     H          O          H            106.545
  bond angle:     H          O          H            104.307




 Principal moments of inertia (u*A**2) and principal axes
 --------------------------------------------------------

   IA     287.123592          0.604310    0.322132   -0.728725
   IB     388.648795         -0.613582    0.771610   -0.167736
   IC     599.478736          0.508259    0.548497    0.663946


 Rotational constants
 --------------------

               A                   B                   C

           1760.1445           1300.3488            843.0307 MHz
            0.058712            0.043375            0.028120 cm-1


@  Nuclear repulsion energy :  198.621914905707 Hartree


                     .---------------------------------------.
                     | Starting in Integral Section (HERMIT) |
                     `---------------------------------------'



 ***************************************************************************************
 ****************** Output from **INTEGRALS input processing (HERMIT) ******************
 ***************************************************************************************



    *************************************************************************
    ****************** Output from HERMIT input processing ******************
    *************************************************************************


 Default print level:        1

 * Nuclear model: Point charge

 Calculation of one- and two-electron Hamiltonian integrals.

 The following one-electron property integrals are calculated as requested:
          - overlap integrals
          - dipole length integrals

 Center of mass  (bohr):     -0.740281058919     -0.615075747204     -0.263545022176
 Operator center (bohr):      0.000000000000      0.000000000000      0.000000000000
 Gauge origin    (bohr):      0.000000000000      0.000000000000      0.000000000000
 Dipole origin   (bohr):      0.000000000000      0.000000000000      0.000000000000
 
  *********************************** 
  QMMM electrostatic potential: 
  Multipole order                                    0
  Isotropic polarization  
  *********************************** 
 
  ---------------- 
  QMMM information 
  ---------------- 
 
  MM coordinates in au 
  -------------------- 
     1     -2.541270     10.400197     -3.166125
     2     -1.875491      8.693538     -2.902408
     3     -3.690168     10.667716     -1.718489
     4      7.780454     -9.292915     10.871821
     5      7.813133     -8.965084     12.696970
     6      7.752361    -11.163627     10.582544
     7      1.243697      9.526597      1.700060
     8     -0.032893     10.884728      1.353856
     9      2.465021      9.333699      0.309350
    10     -4.878436      5.440813     -3.589042
    11     -5.523055      5.334102     -1.871167
    12     -6.179877      6.449858     -4.511545
    13      4.015575     -7.311131      0.859548
    14      5.385325     -7.657138      2.159609
    15      4.278249     -8.641156     -0.234135
    16     -6.215948     -2.885304     -9.176255
    17     -7.301108     -1.450348     -8.445840
    18     -7.258128     -4.236622     -9.909675
    19     -1.098708     -8.588337      3.241075
    20     -1.649721     -6.768808      3.160331
    21      0.605293     -8.615180      2.496043
    22      6.538362     11.633318     -2.428729
    23      8.316853     11.412761     -1.678394
    24      5.701719      9.973908     -2.529909
    25      2.388183      2.101238     -8.225156
    26      3.133485      0.383546     -7.953239
    27      3.723322      3.275882     -7.621214
    28      3.174094     -3.092826      6.920139
    29      4.210935     -2.940185      5.343121
    30      3.175666     -4.858956      7.357239
    31     -7.590346      8.284754    -11.265839
    32     -8.618584      9.473103    -10.257437
    33     -5.968228      8.148964    -10.510430
    34     11.426492     10.548941     -0.651126
    35     11.434659      9.467592      0.811297
    36     11.935986     12.369480     -0.101860
    37      7.635737     -8.846105     -7.528272
    38      8.412152     -7.323641     -6.687497
    39      6.535242     -9.730916     -6.219871
    40    -10.579883      6.571732     -4.046187
    41    -11.615145      6.927925     -5.529042
    42    -10.719192      7.979537     -2.840387
    43    -10.919096      1.841043     -0.688474
    44    -11.423381      2.974482     -2.162026
    45    -11.698684      2.564211      0.781889
    46      8.311669     -8.637802      3.542834
    47      9.614677     -8.186772      4.810258
    48      8.533244    -10.429055      3.129727
    49      6.197302     -0.338265     10.094936
    50      4.714105     -0.841784      9.134896
    51      6.132758     -1.214158     11.799718
    52    -10.391124     -7.923794      0.465613
    53    -11.801778     -6.732907      0.658254
    54     -9.117418     -7.230268     -0.786814
    55    -11.663796      9.519369      4.689775
    56    -12.703555      9.679160      6.214404
    57     -9.919715      9.383615      5.279082
    58      1.538473     -6.217188     -6.993720
    59      0.818907     -6.412100     -8.695427
    60      1.732943     -7.976755     -6.346124
    61    -10.938880      3.969326    -11.062139
    62     -9.515298      5.069417    -11.559058
    63    -11.013337      2.787134    -12.511397
    64     -2.307257      4.847803      2.805285
    65     -1.903368      6.456949      1.948606
    66     -4.242809      4.921263      2.933414
    67      1.645702      5.377439      6.609009
    68      1.050954      4.277059      8.142751
    69      0.097773      5.163771      5.439811
    70      8.765085     -1.924533     -1.312861
    71      9.804534     -0.289977     -1.115662
    72      7.405733     -1.398800     -2.513453
    73     -5.718358    -11.631790     -7.074670
    74     -5.532961     -9.768947     -6.891563
    75     -4.248788    -12.088194     -5.951392
    76    -10.604952      0.796964      8.518203
    77     -8.877232      0.113983      8.218512
    78    -11.818566     -0.443575      7.787471
    79     -2.495790     -1.904377     10.425674
    80     -3.727606     -2.100775     11.938770
    81     -1.572534     -3.521990     10.497100
    82     -5.508954     -6.290029     -0.547896
    83     -4.794180     -6.032338     -2.195452
    84     -5.150658     -4.549419      0.226898
    85     -9.001102      1.274171     -6.957628
    86     -9.540796      2.162058     -8.567087
    87     -8.663493      2.622577     -5.772586
    88      5.785476      5.684708     11.431140
    89      5.894704      3.814964     11.021414
    90      3.967699      6.253238     11.901030
    91      5.925531     -2.270423     -8.504168
    92      7.184956     -1.785088     -7.208096
    93      5.203899     -3.964562     -7.991625
    94     -0.242660      2.715880     10.804537
    95     -1.011703      0.793075     10.783917
    96      1.170693      2.485290     12.003075
    97      1.225376      7.980417    -10.005172
    98     -0.121795      9.119229    -10.717164
    99      0.054940      6.702535     -9.225352
   100     -7.724834     -6.385572      5.159994
   101     -9.184564     -7.050884      6.373742
   102     -8.487336     -6.335124      3.438185
   103     10.447455      4.406373      3.667178
   104     11.289095      3.356178      5.023591
   105     10.720097      6.294827      3.926703
   106     -9.806628     -6.431741     -9.943023
   107    -11.014511     -6.396438    -11.344825
   108    -10.241683     -8.157420     -9.127303
   109      9.376141     -2.049519      6.596955
   110      8.214025     -1.517318      7.965296
   111      8.530736     -1.884662      4.884252
   112     11.099577     -6.878637      7.601384
   113     10.128312     -7.993995      8.705059
   114     10.518643     -5.154392      7.642977
   115     -7.205620      6.325531      1.641046
   116     -8.012632      6.160146      3.231022
   117     -6.649814      8.078197      1.600853
   118      5.874673      5.040397     -6.205468
   119      5.080589      5.731356     -4.646952
   120      7.107026      6.234959     -6.926706
   121      8.021621      9.319897      8.666987
   122      7.252618      7.936545      9.778807
   123      6.620472     10.085697      7.664546
   124     -4.553682    -10.496384      6.591975
   125     -2.986829     -9.735423      5.790614
   126     -5.706572     -9.093914      6.143437
   127      3.222682     10.627400      6.273634
   128      2.547506     10.280702      4.439227
   129      2.716950      9.025003      7.050929
   130     -6.877641      8.446679      6.706222
   131     -5.929925     10.017765      6.086424
   132     -7.069237      8.566474      8.626466
   133      9.749738      7.126845     -8.428589
   134     10.608038      8.735533     -8.876388
   135      9.972880      5.981376     -9.927550
   136      4.071914      6.655759     -1.610563
   137      2.317154      6.059293     -2.094637
   138      4.680532      5.876684     -0.050786
   139     -5.639510     11.593989      0.691538
   140     -7.127692     12.544231      0.178878
   141     -4.556476     12.653848      1.900700
   142     -3.304916      5.371724     -9.108123
   143     -2.643816      4.581962    -10.752413
   144     -3.331311      4.144419     -7.788518
   145     -0.360764     -6.748930     11.339610
   146      0.968286     -7.460032     10.204888
   147     -1.269261     -8.315152     11.862060
   148     -2.696675     11.666205    -11.610885
   149     -3.402172     12.006711    -13.288036
   150     -4.108333     11.636554    -10.315350
   151      8.826344      0.731738     -5.320184
   152     10.629152      1.168945     -5.766080
   153      8.050500      2.366604     -5.149564
   154      1.806217    -11.200658     -5.175363
   155      1.827753    -12.684826     -6.278367
   156      0.460832    -11.376930     -4.077812
   157      3.208354     -8.213988      8.239813
   158      3.183204     -9.901647      7.271776
   159      4.855169     -8.350828      9.160805
   160      5.987331     -1.680293      2.865314
   161      5.762028      0.209060      3.175912
   162      6.844981     -2.008066      1.198013
   163    -11.410711    -11.616065     -8.472018
   164    -13.127950    -10.895898     -8.204730
   165    -10.524741    -11.563151     -6.729891
   166      5.383225      3.692489      2.683103
   167      4.235041      4.154790      4.072507
   168      7.145053      4.223746      3.262435
   169     -6.277096     -1.326412      6.815363
   170     -6.947778     -3.033989      6.235008
   171     -4.921724     -1.572284      8.107836
   172     10.888273     -5.367933     -5.188122
   173     12.204577     -4.577242     -6.073740
   174     10.307088     -4.305231     -3.942545
   175     -4.367414     -6.452487     -5.982966
   176     -2.565137     -6.277082     -6.060323
   177     -4.877353     -5.089851     -7.298285
 
  MM charges 
  ---------- 
     1     -0.674440
     2      0.337220
     3      0.337220
     4     -0.674440
     5      0.337220
     6      0.337220
     7     -0.674440
     8      0.337220
     9      0.337220
    10     -0.674440
    11      0.337220
    12      0.337220
    13     -0.674440
    14      0.337220
    15      0.337220
    16     -0.674440
    17      0.337220
    18      0.337220
    19     -0.674440
    20      0.337220
    21      0.337220
    22     -0.674440
    23      0.337220
    24      0.337220
    25     -0.674440
    26      0.337220
    27      0.337220
    28     -0.674440
    29      0.337220
    30      0.337220
    31     -0.674440
    32      0.337220
    33      0.337220
    34     -0.674440
    35      0.337220
    36      0.337220
    37     -0.674440
    38      0.337220
    39      0.337220
    40     -0.674440
    41      0.337220
    42      0.337220
    43     -0.674440
    44      0.337220
    45      0.337220
    46     -0.674440
    47      0.337220
    48      0.337220
    49     -0.674440
    50      0.337220
    51      0.337220
    52     -0.674440
    53      0.337220
    54      0.337220
    55     -0.674440
    56      0.337220
    57      0.337220
    58     -0.674440
    59      0.337220
    60      0.337220
    61     -0.674440
    62      0.337220
    63      0.337220
    64     -0.674440
    65      0.337220
    66      0.337220
    67     -0.674440
    68      0.337220
    69      0.337220
    70     -0.674440
    71      0.337220
    72      0.337220
    73     -0.674440
    74      0.337220
    75      0.337220
    76     -0.674440
    77      0.337220
    78      0.337220
    79     -0.674440
    80      0.337220
    81      0.337220
    82     -0.674440
    83      0.337220
    84      0.337220
    85     -0.674440
    86      0.337220
    87      0.337220
    88     -0.674440
    89      0.337220
    90      0.337220
    91     -0.674440
    92      0.337220
    93      0.337220
    94     -0.674440
    95      0.337220
    96      0.337220
    97     -0.674440
    98      0.337220
    99      0.337220
   100     -0.674440
   101      0.337220
   102      0.337220
   103     -0.674440
   104      0.337220
   105      0.337220
   106     -0.674440
   107      0.337220
   108      0.337220
   109     -0.674440
   110      0.337220
   111      0.337220
   112     -0.674440
   113      0.337220
   114      0.337220
   115     -0.674440
   116      0.337220
   117      0.337220
   118     -0.674440
   119      0.337220
   120      0.337220
   121     -0.674440
   122      0.337220
   123      0.337220
   124     -0.674440
   125      0.337220
   126      0.337220
   127     -0.674440
   128      0.337220
   129      0.337220
   130     -0.674440
   131      0.337220
   132      0.337220
   133     -0.674440
   134      0.337220
   135      0.337220
   136     -0.674440
   137      0.337220
   138      0.337220
   139     -0.674440
   140      0.337220
   141      0.337220
   142     -0.674440
   143      0.337220
   144      0.337220
   145     -0.674440
   146      0.337220
   147      0.337220
   148     -0.674440
   149      0.337220
   150      0.337220
   151     -0.674440
   152      0.337220
   153      0.337220
   154     -0.674440
   155      0.337220
   156      0.337220
   157     -0.674440
   158      0.337220
   159      0.337220
   160     -0.674440
   161      0.337220
   162      0.337220
   163     -0.674440
   164      0.337220
   165      0.337220
   166     -0.674440
   167      0.337220
   168      0.337220
   169     -0.674440
   170      0.337220
   171      0.337220
   172     -0.674440
   173      0.337220
   174      0.337220
   175     -0.674440
   176      0.337220
   177      0.337220
 
  MM isotropic polarizabilities in au 
  ----------------------------------- 
     1      5.739350
     2      2.308390
     3      2.308390
     4      5.739350
     5      2.308390
     6      2.308390
     7      5.739350
     8      2.308390
     9      2.308390
    10      5.739350
    11      2.308390
    12      2.308390
    13      5.739350
    14      2.308390
    15      2.308390
    16      5.739350
    17      2.308390
    18      2.308390
    19      5.739350
    20      2.308390
    21      2.308390
    22      5.739350
    23      2.308390
    24      2.308390
    25      5.739350
    26      2.308390
    27      2.308390
    28      5.739350
    29      2.308390
    30      2.308390
    31      5.739350
    32      2.308390
    33      2.308390
    34      5.739350
    35      2.308390
    36      2.308390
    37      5.739350
    38      2.308390
    39      2.308390
    40      5.739350
    41      2.308390
    42      2.308390
    43      5.739350
    44      2.308390
    45      2.308390
    46      5.739350
    47      2.308390
    48      2.308390
    49      5.739350
    50      2.308390
    51      2.308390
    52      5.739350
    53      2.308390
    54      2.308390
    55      5.739350
    56      2.308390
    57      2.308390
    58      5.739350
    59      2.308390
    60      2.308390
    61      5.739350
    62      2.308390
    63      2.308390
    64      5.739350
    65      2.308390
    66      2.308390
    67      5.739350
    68      2.308390
    69      2.308390
    70      5.739350
    71      2.308390
    72      2.308390
    73      5.739350
    74      2.308390
    75      2.308390
    76      5.739350
    77      2.308390
    78      2.308390
    79      5.739350
    80      2.308390
    81      2.308390
    82      5.739350
    83      2.308390
    84      2.308390
    85      5.739350
    86      2.308390
    87      2.308390
    88      5.739350
    89      2.308390
    90      2.308390
    91      5.739350
    92      2.308390
    93      2.308390
    94      5.739350
    95      2.308390
    96      2.308390
    97      5.739350
    98      2.308390
    99      2.308390
   100      5.739350
   101      2.308390
   102      2.308390
   103      5.739350
   104      2.308390
   105      2.308390
   106      5.739350
   107      2.308390
   108      2.308390
   109      5.739350
   110      2.308390
   111      2.308390
   112      5.739350
   113      2.308390
   114      2.308390
   115      5.739350
   116      2.308390
   117      2.308390
   118      5.739350
   119      2.308390
   120      2.308390
   121      5.739350
   122      2.308390
   123      2.308390
   124      5.739350
   125      2.308390
   126      2.308390
   127      5.739350
   128      2.308390
   129      2.308390
   130      5.739350
   131      2.308390
   132      2.308390
   133      5.739350
   134      2.308390
   135      2.308390
   136      5.739350
   137      2.308390
   138      2.308390
   139      5.739350
   140      2.308390
   141      2.308390
   142      5.739350
   143      2.308390
   144      2.308390
   145      5.739350
   146      2.308390
   147      2.308390
   148      5.739350
   149      2.308390
   150      2.308390
   151      5.739350
   152      2.308390
   153      2.308390
   154      5.739350
   155      2.308390
   156      2.308390
   157      5.739350
   158      2.308390
   159      2.308390
   160      5.739350
   161      2.308390
   162      2.308390
   163      5.739350
   164      2.308390
   165      2.308390
   166      5.739350
   167      2.308390
   168      2.308390
   169      5.739350
   170      2.308390
   171      2.308390
   172      5.739350
   173      2.308390
   174      2.308390
   175      5.739350
   176      2.308390
   177      2.308390


     ************************************************************************
     ************************** Output from HERINT **************************
     ************************************************************************



                      Nuclear contribution to dipole moments
                      --------------------------------------

                 au               Debye          C m (/(10**-30)

      x    -38.68228371       -98.32055179      -327.96205897
      y    -31.04288821       -78.90314650      -263.19256670
      z    -12.54589552       -31.88848362      -106.36853187


  Time used in HUCKEL     is       0.49 seconds
  Time used in OVERLAP    is       0.14 seconds
  Time used in POPOVLP    is       0.21 seconds
  Time used in DIPLEN     is       1.75 seconds
  Time used in QUADRUP    is       0.47 seconds
  Time used in KINENE     is       0.32 seconds

 Threshold for neglecting two-electron integrals:  1.00D-12
 HERMIT - Number of two-electron integrals written:    36490236 ( 41.9% )
 HERMIT - Megabytes written:                            417.836

  Time used in TWOINT     is      17.38 seconds
  Total CPU  time used in HERMIT:  20.83 seconds
  Total wall time used in HERMIT:   7.87 seconds


                        .----------------------------------.
                        | End of Integral Section (HERMIT) |
                        `----------------------------------'



                   .--------------------------------------------.
                   | Starting in Wave Function Section (SIRIUS) |
                   `--------------------------------------------'

NCCEXCI for singlet:   15
 CCSD_INPUT: core-val requested
 Requested number of core orbs per sym
                     1
 Indices of requested core orbs
                     1

 *** Output from Huckel module :

     Using EWMO model:          T
     Using EHT  model:          F
     Number of Huckel orbitals each symmetry:   37

 EWMO - Energy Weighted Maximum Overlap - is a Huckel type method,
        which normally is better than Extended Huckel Theory.
 Reference: Linderberg and Ohrn, Propagators in Quantum Chemistry (Wiley, 1973)

 Huckel EWMO eigenvalues for symmetry :  1
          -20.685180     -20.684720     -20.684268     -20.683958     -15.676096
           -1.797020      -1.632784      -1.601090      -1.556456      -1.516072
           -0.832396      -0.805933      -0.783467      -0.779444      -0.752234
           -0.738188      -0.721463      -0.688188      -0.676356      -0.671329
           -0.654784      -0.613188      -0.595241      -0.577915      -0.564536
           -0.267784      -0.250753      -0.230505      -0.229264      -0.185543
           -0.184008      -0.180612      -0.175622      -0.164855      -0.150786
           -0.148738      -0.135025

 **********************************************************************
 *SIRIUS* a direct, restricted step, second order MCSCF program       *
 **********************************************************************

 
     Date and time (Linux)  : Fri Jan 11 17:49:31 2019
     Host name              : n-62-29-23                              

 Title lines from ".mol" input file:
                                                                             
                                                                             

 Print level on unit LUPRI =   2 is   0
 Print level on unit LUW4  =   2 is  11

@    (Integral direct) CC calculation.

@    This is a combination run starting with
@              a restricted, closed shell Hartree-Fock calculation


 Initial molecular orbitals are obtained according to
 ".MOSTART EWMO  " input option

@    QM part is embedded in an environment :

@         Model: QMMM

     Wave function specification
     ============================

     For the specification of the Coupled Cluster: see later.

@    Wave function type        --- CC ---
@    Number of closed shell electrons          50
@    Number of electrons in active shells       0
@    Total charge of the molecule               1

@    Spin multiplicity and 2 M_S                1         0
@    Total number of symmetries                 1 (point group: C1 )
@    Reference state symmetry                   1 (irrep name : A  )

     Orbital specifications
     ======================
@    Abelian symmetry species          All |    1
@                                          |  A  
                                       --- |  ---
@    Occupied SCF orbitals              25 |   25
@    Secondary orbitals                137 |  137
@    Total number of orbitals          162 |  162
@    Number of basis functions         162 |  162

     Optimization information
     ========================
@    Number of configurations                 1
@    Number of orbital rotations           3425
     ------------------------------------------
@    Total number of variables             3426

     Maximum number of Fock   iterations      0
     Maximum number of DIIS   iterations     60
     Maximum number of QC-SCF iterations     60
     Threshold for SCF convergence     1.00D-07


 Changes of defaults for CC:
 ---------------------------


 -Implicit frozen core calculation
 -Excitation energies calculated
 -One-photon absorption strengths will be calculated
 -Oscillator strengths calculated
  
* Read MO coefficients from SIRIUS.RST with label "NEWORB  " and header info: 11Jan19  REORTHO 


 ***********************************************
 ***** DIIS acceleration of SCF iterations *****
 ***********************************************

 C1-DIIS algorithm; max error vectors =    8
 -----------------------------------------------------------------------------

 *** DIIS iteration number    1
 RDSUPM called. NFMAT, ISYMDM(1:NFMAT)                     1
                     1

Calculating AOSUPINT
     (Precalculated two-electron integrals are transformed to P-supermatrix elements.
      Threshold for discarding integrals :  1.00D-12 )
  CPU  time used in FORMSUP    is   8.63 seconds
  WALL time used in FORMSUP    is   9.58 seconds

 ITDIIS, energy, error norm, change in energy, scr.thr., difden:
@ DIIS iter.   1    -360.143708473        4.08556D+00   -3.60D+02  -20    F

 (DIIS_RED) Control Parameters C2DIIS =         F NEVC =    1


 (DIIS_RED) B matrix:

               Column   1
       1      16.69179624
    ==== End of matrix output ====

 DIIS C vector; C2DIIS = F, LAMBDA = -1.67D+01
    1.000000
* Read MO coefficients from SIRIUS.RST with label "NEWORB  " and header info: 11Jan19  DIIS   1
      Virial theorem: -V/T =      2.003179
@      MULPOP N       0.18; H       0.17; H       0.15; H       0.16; H       0.17; O      -0.59; O      -0.62; O      -0.60; O      -0.60; H       0.31; 
@             H       0.33; H       0.32; H       0.33; H       0.32; H       0.33; H       0.31; H       0.32; 
   1  Level shift: doubly occupied orbital energies shifted by -2.00D-01

 DIIS Fock eigenvalues in symmetry 1
      -20.83406      -20.82068      -20.81219      -20.79146      -16.54597
       -1.77911       -1.66628       -1.64320       -1.63826       -1.60506
       -1.26970       -1.23720       -1.23107       -1.03803       -1.03300
       -1.00706       -0.98765       -0.90984       -0.89384       -0.88810
       -0.86024       -0.85535       -0.85157       -0.84515       -0.81879
       -0.02635        0.03931        0.04741        0.06671        0.09516
        0.10729        0.13101        0.14309        0.15097        0.17154
        0.18441        0.20148        0.22345        0.28025        0.30085
        0.40549        0.42776        0.44606        0.46654        0.47402
        0.48073        0.50009        0.50428        0.52710        0.60782
        0.66511        0.69795        0.82447        0.83719        0.87109
        0.88821        0.90161        0.91038        0.95133        0.98971
        0.99747        1.00362        1.02021        1.02128        1.04625
        1.06837        1.12245        1.18759        1.24226        1.27649
        1.30804        1.34530        1.35300        1.37275        1.38081
        1.38276        1.39242        1.39976        1.43810        1.49671
        1.51470        1.54285        1.54543        1.57014        1.61733
        1.70884        1.73727        1.75457        1.75794        1.77301
        1.80877        1.83775        1.92492        2.03032        2.04693
        2.07316        2.08362        2.13940        2.15300        2.16318
        2.19155        2.19793        2.21837        2.28349        2.31824
        2.43087        2.45438        2.47285        2.50505        2.53790
        2.57374        2.60495        2.63373        2.67034        2.68701
        2.68730        2.70596        2.71626        2.95171        2.97528
        3.01656        3.10005        3.30503        3.31644        3.33126
        3.36247        3.37319        3.37792        3.40372        3.41790
        3.51075        3.52296        3.53424        3.59511        3.85483
        3.87033        3.88609        3.89466        4.05117        4.09364
        4.14577        4.14853        4.63250        4.68443        4.82725
        5.25225        5.26727        5.28729        5.31477        5.64857
        5.70518        5.71995        5.72903        5.91889        5.96165
        5.96485        6.08857       36.30400       51.44140       51.44604
       51.47082       51.47913
 Time used in FCKEIG, thr_jaco:   4.99D-01  5.00D-02  1.75D-04
 CPU and wall times used in FCKEIG, THR_FCKEIG:   4.99D-01  5.00D-02  4.09D-02
 -----------------------------------------------------------------------------

 *** DIIS iteration number    2
 RDSUPM called. NFMAT, ISYMDM(1:NFMAT)                     1
                     1

 ITDIIS, energy, error norm, change in energy, scr.thr., difden:
@ DIIS iter.   2    -361.075541845        1.19773D+00   -9.32D-01  -20    F

 (DIIS_RED) Control Parameters C2DIIS =         F NEVC =    2


 (DIIS_RED) B matrix:

               Column   1     Column   2
       1      16.69179624
       2       0.46381687     1.43454635
    ==== End of matrix output ====

 DIIS C vector; C2DIIS = F, LAMBDA = -1.38D+00
    0.056442    0.943558
* Read MO coefficients from SIRIUS.RST with label "NEWORB  " and header info: 11Jan19  DIIS   2
      Virial theorem: -V/T =      2.002124
@      MULPOP N      -0.50; H       0.33; H       0.34; H       0.31; H       0.34; O      -0.53; O      -0.60; O      -0.55; O      -0.54; H       0.30; 
@             H       0.27; H       0.31; H       0.33; H       0.31; H       0.30; H       0.31; H       0.27; 
   2  Level shift: doubly occupied orbital energies shifted by -1.00D-01

 DIIS Fock eigenvalues in symmetry 1
      -20.80729      -20.78544      -20.76697      -20.74355      -15.66598
       -1.54790       -1.54183       -1.53753       -1.51089       -1.42091
       -0.92604       -0.91635       -0.90127       -0.89361       -0.88908
       -0.87322       -0.87122       -0.79890       -0.79037       -0.78919
       -0.76087       -0.73948       -0.72754       -0.71457       -0.70525
        0.04215        0.08691        0.09575        0.11862        0.14959
        0.15856        0.17520        0.19166        0.19802        0.21530
        0.22398        0.26080        0.33014        0.35360        0.38307
        0.44081        0.46152        0.48400        0.50873        0.51238
        0.52012        0.53497        0.57462        0.60442        0.74685
        0.82516        0.86003        0.86679        0.88205        0.91464
        0.91772        0.93771        0.97597        0.99442        1.01694
        1.02633        1.03613        1.06352        1.11313        1.13168
        1.14800        1.18399        1.22977        1.28127        1.32653
        1.35448        1.40143        1.40726        1.42320        1.43148
        1.43522        1.44551        1.45981        1.48930        1.56983
        1.60205        1.61713        1.64383        1.67004        1.68985
        1.78026        1.81434        1.81744        1.84604        1.86822
        1.91189        1.93638        2.02837        2.08138        2.11658
        2.12215        2.17980        2.20571        2.22640        2.24944
        2.25122        2.30299        2.34535        2.35628        2.42906
        2.52528        2.55687        2.56365        2.59903        2.62092
        2.66361        2.70576        2.71655        2.73702        2.74649
        2.78054        2.91829        2.94866        3.11188        3.28035
        3.29844        3.32083        3.33360        3.34337        3.36717
        3.39177        3.41191        3.41570        3.43755        3.45720
        3.51971        3.54311        3.54674        3.63752        3.86478
        3.87954        3.89382        3.93611        4.05850        4.10073
        4.15959        4.18555        5.04044        5.09289        5.22612
        5.25252        5.27446        5.28896        5.30587        5.63385
        5.68745        5.70862        5.75398        5.90890        5.96199
        5.96761        6.13105       37.06545       51.35398       51.37927
       51.39787       51.47170
 Time used in FCKEIG, thr_jaco:   3.64D-01  3.70D-02  5.12D-05
 CPU and wall times used in FCKEIG, THR_FCKEIG:   3.64D-01  3.70D-02  1.20D-02
 -----------------------------------------------------------------------------

 *** DIIS iteration number    3
 RDSUPM called. NFMAT, ISYMDM(1:NFMAT)                     1
                     1

 ITDIIS, energy, error norm, change in energy, scr.thr., difden:
@ DIIS iter.   3    -361.155005477        3.75769D-01   -7.95D-02  -20    F

 (DIIS_RED) Control Parameters C2DIIS =         F NEVC =    3


 (DIIS_RED) B matrix:

               Column   1     Column   2     Column   3
       1      16.69179624
       2       0.46381687     1.43454635
       3       0.84825530    -0.01259934     0.14120270
    ==== End of matrix output ====

 DIIS C vector; C2DIIS = F, LAMBDA = -9.54D-02
   -0.045348    0.089536    0.955811
* Read MO coefficients from SIRIUS.RST with label "NEWORB  " and header info: 11Jan19  DIIS   3
      Virial theorem: -V/T =      2.002961
@      MULPOP N      -0.27; H       0.28; H       0.29; H       0.25; H       0.29; O      -0.58; O      -0.65; O      -0.61; O      -0.61; H       0.33; 
@             H       0.29; H       0.34; H       0.35; H       0.34; H       0.32; H       0.35; H       0.30; 
   3  Level shift: doubly occupied orbital energies shifted by -5.00D-02

 DIIS Fock eigenvalues in symmetry 1
      -20.69773      -20.69461      -20.67487      -20.66863      -15.82176
       -1.48108       -1.47449       -1.46776       -1.43999       -1.41963
       -0.90920       -0.87193       -0.85820       -0.84023       -0.83730
       -0.82052       -0.80208       -0.72879       -0.72292       -0.71839
       -0.68802       -0.65916       -0.65087       -0.64464       -0.62656
        0.04917        0.09388        0.10177        0.12507        0.15259
        0.16324        0.17986        0.19596        0.20502        0.21798
        0.22707        0.26138        0.33034        0.35550        0.38614
        0.45195        0.47506        0.49543        0.51916        0.52368
        0.53110        0.54675        0.58141        0.60689        0.73738
        0.81114        0.84533        0.87977        0.89912        0.92473
        0.93401        0.95257        0.98912        1.00348        1.03255
        1.03717        1.05146        1.07777        1.12084        1.13115
        1.15127        1.19076        1.24139        1.29117        1.33755
        1.36522        1.41544        1.42387        1.43760        1.44793
        1.45079        1.46057        1.47378        1.50289        1.58052
        1.61224        1.62664        1.65195        1.67703        1.69999
        1.79365        1.82771        1.83049        1.84882        1.87761
        1.91450        1.93845        2.03279        2.10113        2.13333
        2.14076        2.17822        2.21986        2.24228        2.26885
        2.27043        2.30046        2.34597        2.37149        2.43809
        2.53593        2.56637        2.57329        2.60646        2.63247
        2.67392        2.71793        2.72737        2.74924        2.76058
        2.79126        2.88935        2.91795        3.10509        3.24046
        3.27089        3.33492        3.35830        3.37095        3.38433
        3.40088        3.41858        3.43485        3.44735        3.47567
        3.55328        3.56999        3.57631        3.65678        3.89389
        3.90816        3.92258        3.95422        4.09115        4.13169
        4.18947        4.20531        4.96585        5.01813        5.16188
        5.28316        5.30106        5.30974        5.33591        5.66875
        5.72474        5.74227        5.77238        5.95060        5.99838
        6.00001        6.15162       36.86601       51.41340       51.42030
       51.44624       51.49091
 Time used in FCKEIG, thr_jaco:   3.34D-01  3.40D-02  1.61D-05
 CPU and wall times used in FCKEIG, THR_FCKEIG:   3.34D-01  3.40D-02  3.76D-03
 -----------------------------------------------------------------------------

 *** DIIS iteration number    4
 RDSUPM called. NFMAT, ISYMDM(1:NFMAT)                     1
                     1

 ITDIIS, energy, error norm, change in energy, scr.thr., difden:
@ DIIS iter.   4    -361.165211500        8.99528D-02   -1.02D-02  -20    F

 (DIIS_RED) Control Parameters C2DIIS =         F NEVC =    4


 (DIIS_RED) B matrix:

               Column   1     Column   2     Column   3     Column   4
       1      16.69179624
       2       0.46381687     1.43454635
       3       0.84825530    -0.01259934     0.14120270
       4       0.05818774     0.07651719     0.00663143     0.00809150
    ==== End of matrix output ====

 DIIS C vector; C2DIIS = F, LAMBDA = -4.37D-03
   -0.001073   -0.053990   -0.017815    1.072878
* Read MO coefficients from SIRIUS.RST with label "NEWORB  " and header info: 11Jan19  DIIS   4
      Virial theorem: -V/T =      2.002911
@      MULPOP N      -0.34; H       0.30; H       0.31; H       0.27; H       0.31; O      -0.59; O      -0.67; O      -0.62; O      -0.62; H       0.33; 
@             H       0.30; H       0.35; H       0.36; H       0.35; H       0.32; H       0.35; H       0.30; 
   4  Level shift: doubly occupied orbital energies shifted by -1.25D-02

 DIIS Fock eigenvalues in symmetry 1
      -20.67956      -20.66961      -20.64675      -20.64377      -15.75496
       -1.44659       -1.44238       -1.43564       -1.40720       -1.37137
       -0.86105       -0.82477       -0.81158       -0.80341       -0.80242
       -0.78750       -0.76821       -0.69249       -0.68750       -0.68351
       -0.65285       -0.62353       -0.61434       -0.60574       -0.58989
        0.04964        0.09368        0.10108        0.12442        0.15371
        0.16376        0.18057        0.19708        0.20476        0.21962
        0.22879        0.26572        0.33665        0.36000        0.39117
        0.45190        0.47424        0.49566        0.51841        0.52271
        0.52941        0.54556        0.58181        0.61059        0.74343
        0.81815        0.85247        0.87988        0.89964        0.92654
        0.93384        0.95313        0.98963        1.00521        1.03151
        1.03651        1.05086        1.07701        1.12239        1.13575
        1.15254        1.19248        1.24159        1.29212        1.33865
        1.36646        1.41404        1.42169        1.43611        1.44636
        1.44919        1.45895        1.47172        1.50238        1.58152
        1.61396        1.62729        1.65550        1.68074        1.70205
        1.79290        1.82732        1.82952        1.85395        1.87739
        1.92011        1.94210        2.03729        2.09800        2.13025
        2.13846        2.18429        2.21756        2.24114        2.26555
        2.26733        2.30782        2.35184        2.36854        2.44175
        2.53668        2.56690        2.57897        2.61006        2.63230
        2.67601        2.71722        2.72811        2.74767        2.75946
        2.79408        2.89968        2.92881        3.11290        3.25289
        3.28215        3.33348        3.35533        3.36761        3.39411
        3.39599        3.41548        3.43293        3.44547        3.47438
        3.54851        3.56676        3.57277        3.65550        3.88954
        3.90367        3.91859        3.95251        4.08658        4.12784
        4.18559        4.20408        4.98169        5.03412        5.17747
        5.27746        5.29440        5.30514        5.32918        5.66184
        5.71687        5.73562        5.76998        5.94116        5.99058
        5.99317        6.14794       36.89503       51.39451       51.40810
       51.43100       51.48476
 Time used in FCKEIG, thr_jaco:   3.00D-01  3.00D-02  3.84D-06
 CPU and wall times used in FCKEIG, THR_FCKEIG:   3.00D-01  3.00D-02  9.00D-04
 -----------------------------------------------------------------------------

 *** DIIS iteration number    5
 RDSUPM called. NFMAT, ISYMDM(1:NFMAT)                     1
                     1

 ITDIIS, energy, error norm, change in energy, scr.thr., difden:
@ DIIS iter.   5    -361.166144290        2.92271D-02   -9.33D-04  -20    F

 (DIIS_RED) Control Parameters C2DIIS =         F NEVC =    5


 (DIIS_RED) B matrix:

               Column   1     Column   2     Column   3     Column   4     Column   5
       1      16.69179624
       2       0.46381687     1.43454635
       3       0.84825530    -0.01259934     0.14120270
       4       0.05818774     0.07651719     0.00663143     0.00809150
       5       0.02295813     0.00652091     0.00561459     0.00065634     0.00085422
    ==== End of matrix output ====

 DIIS C vector; C2DIIS = F, LAMBDA = -5.63D-04
    0.000943   -0.011834   -0.045740    0.137649    0.918981
* Read MO coefficients from SIRIUS.RST with label "NEWORB  " and header info: 11Jan19  DIIS   5
      Virial theorem: -V/T =      2.002537
@      MULPOP N      -0.33; H       0.29; H       0.31; H       0.26; H       0.30; O      -0.60; O      -0.68; O      -0.63; O      -0.63; H       0.34; 
@             H       0.30; H       0.35; H       0.37; H       0.35; H       0.33; H       0.36; H       0.30; 

 DIIS Fock eigenvalues in symmetry 1
      -20.65730      -20.65128      -20.62778      -20.62588      -15.73842
       -1.43281       -1.42690       -1.42062       -1.39172       -1.35707
       -0.84696       -0.81054       -0.79721       -0.78929       -0.78897
       -0.77284       -0.75357       -0.67844       -0.67309       -0.66896
       -0.63785       -0.60706       -0.59905       -0.59108       -0.57367
        0.05019        0.09412        0.10143        0.12474        0.15419
        0.16425        0.18113        0.19760        0.20527        0.22007
        0.22945        0.26676        0.33793        0.36091        0.39229
        0.45260        0.47510        0.49652        0.51887        0.52337
        0.52985        0.54623        0.58227        0.61157        0.74475
        0.81952        0.85380        0.88151        0.90175        0.92803
        0.93585        0.95495        0.99110        1.00650        1.03314
        1.03738        1.05260        1.07862        1.12389        1.13712
        1.15390        1.19398        1.24304        1.29342        1.34043
        1.36796        1.41454        1.42222        1.43671        1.44705
        1.44984        1.45967        1.47204        1.50338        1.58238
        1.61465        1.62809        1.65635        1.68169        1.70294
        1.79325        1.82773        1.82985        1.85508        1.87761
        1.92131        1.94311        2.03864        2.09923        2.13083
        2.13953        2.18559        2.21795        2.24253        2.26634
        2.26839        2.30910        2.35308        2.36883        2.44274
        2.53720        2.56737        2.58017        2.61092        2.63287
        2.67691        2.71738        2.72841        2.74766        2.75959
        2.79480        2.90127        2.93043        3.11439        3.25484
        3.28410        3.33694        3.35766        3.37079        3.39633
        3.39956        3.41761        3.43506        3.44788        3.47563
        3.55209        3.56894        3.57586        3.65673        3.89229
        3.90658        3.92169        3.95376        4.08993        4.13118
        4.18841        4.20546        4.98412        5.03660        5.17994
        5.28103        5.29903        5.30846        5.33413        5.66589
        5.72167        5.74023        5.77188        5.94621        5.99503
        5.99634        6.14961       36.89898       51.40414       51.41388
       51.43926       51.48821
 Time used in FCKEIG, thr_jaco:   2.86D-01  2.90D-02  1.25D-06
 CPU and wall times used in FCKEIG, THR_FCKEIG:   2.87D-01  2.90D-02  2.92D-04
 -----------------------------------------------------------------------------

 *** DIIS iteration number    6
 RDSUPM called. NFMAT, ISYMDM(1:NFMAT)                     1
                     1

 ITDIIS, energy, error norm, change in energy, scr.thr., difden:
@ DIIS iter.   6    -361.166222295        1.04732D-02   -7.80D-05  -20    F

 (DIIS_RED) Control Parameters C2DIIS =         F NEVC =    6


 (DIIS_RED) B matrix:

               Column   1     Column   2     Column   3     Column   4     Column   5     Column   6
       1      16.69179624
       2       0.46381687     1.43454635
       3       0.84825530    -0.01259934     0.14120270
       4       0.05818774     0.07651719     0.00663143     0.00809150
       5       0.02295813     0.00652091     0.00561459     0.00065634     0.00085422
       6      -0.00414338    -0.00011734     0.00075279     0.00052999     0.00000679     0.00010969
    ==== End of matrix output ====

 DIIS C vector; C2DIIS = F, LAMBDA = -3.42D-05
    0.000768    0.006145   -0.007726   -0.128852    0.114149    1.015516
* Read MO coefficients from SIRIUS.RST with label "NEWORB  " and header info: 11Jan19  DIIS   6
      Virial theorem: -V/T =      2.002781
@      MULPOP N      -0.32; H       0.29; H       0.30; H       0.26; H       0.30; O      -0.60; O      -0.68; O      -0.63; O      -0.63; H       0.34; 
@             H       0.30; H       0.35; H       0.37; H       0.35; H       0.33; H       0.36; H       0.30; 

 DIIS Fock eigenvalues in symmetry 1
      -20.65995      -20.65280      -20.62858      -20.62819      -15.74037
       -1.43298       -1.42751       -1.42115       -1.39237       -1.35754
       -0.84746       -0.81098       -0.79762       -0.78968       -0.78939
       -0.77346       -0.75425       -0.67902       -0.67380       -0.66973
       -0.63873       -0.60749       -0.59920       -0.59100       -0.57403
        0.05008        0.09398        0.10128        0.12458        0.15415
        0.16414        0.18105        0.19753        0.20512        0.21998
        0.22936        0.26663        0.33781        0.36087        0.39224
        0.45241        0.47488        0.49630        0.51869        0.52314
        0.52961        0.54595        0.58210        0.61147        0.74445
        0.81925        0.85352        0.88114        0.90141        0.92785
        0.93553        0.95475        0.99086        1.00630        1.03273
        1.03710        1.05225        1.07829        1.12357        1.13695
        1.15360        1.19370        1.24280        1.29323        1.34008
        1.36767        1.41429        1.42192        1.43643        1.44673
        1.44953        1.45936        1.47177        1.50305        1.58213
        1.61449        1.62779        1.65623        1.68158        1.70279
        1.79301        1.82747        1.82959        1.85500        1.87737
        1.92123        1.94291        2.03849        2.09871        2.13040
        2.13902        2.18538        2.21758        2.24214        2.26595
        2.26793        2.30899        2.35292        2.36852        2.44260
        2.53697        2.56715        2.58021        2.61082        2.63254
        2.67670        2.71706        2.72819        2.74736        2.75931
        2.79472        2.90083        2.92997        3.11425        3.25424
        3.28351        3.33609        3.35712        3.37003        3.39568
        3.39863        3.41706        3.43453        3.44725        3.47529
        3.55120        3.56840        3.57507        3.65642        3.89157
        3.90581        3.92084        3.95342        4.08909        4.13031
        4.18770        4.20511        4.98325        5.03569        5.17903
        5.28023        5.29798        5.30769        5.33290        5.66484
        5.72042        5.73900        5.77140        5.94481        5.99374
        5.99543        6.14910       36.89707       51.40152       51.41237
       51.43698       51.48741
 Time used in FCKEIG, thr_jaco:   2.97D-01  3.00D-02  4.47D-07
 CPU and wall times used in FCKEIG, THR_FCKEIG:   2.98D-01  3.00D-02  1.05D-04
 -----------------------------------------------------------------------------

 *** DIIS iteration number    7
 RDSUPM called. NFMAT, ISYMDM(1:NFMAT)                     1
                     1

 ITDIIS, energy, error norm, change in energy, scr.thr., difden:
@ DIIS iter.   7    -361.166234139        2.24793D-03   -1.18D-05  -20    F

 (DIIS_RED) Control Parameters C2DIIS =         F NEVC =    7


 (DIIS_RED) B matrix:

               Column   1     Column   2     Column   3     Column   4     Column   5     Column   6
       1      16.69179624
       2       0.46381687     1.43454635
       3       0.84825530    -0.01259934     0.14120270
       4       0.05818774     0.07651719     0.00663143     0.00809150
       5       0.02295813     0.00652091     0.00561459     0.00065634     0.00085422
       6      -0.00414338    -0.00011734     0.00075279     0.00052999     0.00000679     0.00010969
       7       0.00009743     0.00022315    -0.00001634     0.00000645     0.00004521     0.00000143

               Column   7
       7       0.00000505
    ==== End of matrix output ====

 DIIS C vector; C2DIIS = F, LAMBDA = -1.24D-06
   -0.000228   -0.000828    0.005245    0.022635   -0.101767   -0.153287    1.228230
* Read MO coefficients from SIRIUS.RST with label "NEWORB  " and header info: 11Jan19  DIIS   7
      Virial theorem: -V/T =      2.002725
@      MULPOP N      -0.32; H       0.29; H       0.30; H       0.26; H       0.30; O      -0.60; O      -0.68; O      -0.63; O      -0.63; H       0.34; 
@             H       0.30; H       0.35; H       0.37; H       0.35; H       0.33; H       0.36; H       0.30; 

 DIIS Fock eigenvalues in symmetry 1
      -20.65955      -20.65263      -20.62861      -20.62786      -15.73993
       -1.43294       -1.42735       -1.42101       -1.39221       -1.35732
       -0.84728       -0.81081       -0.79746       -0.78965       -0.78928
       -0.77335       -0.75415       -0.67903       -0.67379       -0.66971
       -0.63869       -0.60725       -0.59905       -0.59090       -0.57381
        0.05014        0.09402        0.10132        0.12461        0.15420
        0.16419        0.18110        0.19757        0.20516        0.22003
        0.22943        0.26673        0.33795        0.36098        0.39236
        0.45247        0.47495        0.49636        0.51873        0.52318
        0.52963        0.54598        0.58215        0.61158        0.74459
        0.81941        0.85367        0.88122        0.90153        0.92794
        0.93563        0.95486        0.99095        1.00638        1.03283
        1.03714        1.05235        1.07837        1.12369        1.13707
        1.15371        1.19381        1.24290        1.29333        1.34022
        1.36778        1.41431        1.42193        1.43646        1.44675
        1.44955        1.45939        1.47177        1.50311        1.58220
        1.61456        1.62784        1.65632        1.68168        1.70287
        1.79303        1.82748        1.82962        1.85513        1.87740
        1.92136        1.94302        2.03862        2.09876        2.13042
        2.13906        2.18552        2.21760        2.24222        2.26597
        2.26796        2.30914        2.35305        2.36851        2.44269
        2.53702        2.56719        2.58033        2.61091        2.63257
        2.67677        2.71706        2.72822        2.74735        2.75931
        2.79479        2.90103        2.93018        3.11442        3.25447
        3.28374        3.33629        3.35722        3.37018        3.39591
        3.39882        3.41715        3.43462        3.44737        3.47532
        3.55139        3.56850        3.57523        3.65645        3.89169
        3.90594        3.92099        3.95344        4.08926        4.13048
        4.18784        4.20515        4.98353        5.03598        5.17932
        5.28036        5.29817        5.30781        5.33313        5.66500
        5.72063        5.73920        5.77142        5.94504        5.99393
        5.99554        6.14911       36.89750       51.40191       51.41253
       51.43731       51.48738
 Time used in FCKEIG, thr_jaco:   2.91D-01  2.90D-02  9.60D-08
 CPU and wall times used in FCKEIG, THR_FCKEIG:   2.91D-01  2.90D-02  2.25D-05
 -----------------------------------------------------------------------------

 *** DIIS iteration number    8
 RDSUPM called. NFMAT, ISYMDM(1:NFMAT)                     1
                     1

 ITDIIS, energy, error norm, change in energy, scr.thr., difden:
@ DIIS iter.   8    -361.166234731        3.81281D-04   -5.92D-07  -20    F

 (DIIS_RED) Control Parameters C2DIIS =         F NEVC =    8


 (DIIS_RED) B matrix:

               Column   1     Column   2     Column   3     Column   4     Column   5     Column   6
       1      16.69179624
       2       0.46381687     1.43454635
       3       0.84825530    -0.01259934     0.14120270
       4       0.05818774     0.07651719     0.00663143     0.00809150
       5       0.02295813     0.00652091     0.00561459     0.00065634     0.00085422
       6      -0.00414338    -0.00011734     0.00075279     0.00052999     0.00000679     0.00010969
       7       0.00009743     0.00022315    -0.00001634     0.00000645     0.00004521     0.00000143
       8       0.00015265    -0.00004251     0.00000917     0.00000165     0.00000064     0.00000153

               Column   7     Column   8
       7       0.00000505
       8       0.00000039     0.00000015
    ==== End of matrix output ====

 DIIS C vector; C2DIIS = F, LAMBDA = -8.59D-08
   -0.000004   -0.000005   -0.000519    0.000152    0.012506   -0.011406   -0.184588    1.183863
* Read MO coefficients from SIRIUS.RST with label "NEWORB  " and header info: 11Jan19  DIIS   8
      Virial theorem: -V/T =      2.002740
@      MULPOP N      -0.32; H       0.29; H       0.30; H       0.26; H       0.30; O      -0.60; O      -0.68; O      -0.63; O      -0.63; H       0.34; 
@             H       0.30; H       0.35; H       0.37; H       0.35; H       0.33; H       0.36; H       0.30; 

 DIIS Fock eigenvalues in symmetry 1
      -20.65959      -20.65260      -20.62849      -20.62790      -15.73996
       -1.43289       -1.42735       -1.42100       -1.39222       -1.35732
       -0.84728       -0.81082       -0.79746       -0.78962       -0.78927
       -0.77334       -0.75415       -0.67902       -0.67380       -0.66973
       -0.63872       -0.60725       -0.59903       -0.59085       -0.57381
        0.05014        0.09401        0.10132        0.12461        0.15420
        0.16419        0.18110        0.19758        0.20516        0.22003
        0.22943        0.26672        0.33795        0.36098        0.39236
        0.45247        0.47495        0.49636        0.51873        0.52318
        0.52963        0.54598        0.58215        0.61158        0.74459
        0.81940        0.85367        0.88122        0.90153        0.92795
        0.93563        0.95487        0.99095        1.00639        1.03283
        1.03716        1.05235        1.07837        1.12369        1.13707
        1.15371        1.19381        1.24291        1.29334        1.34021
        1.36778        1.41432        1.42193        1.43646        1.44674
        1.44955        1.45939        1.47178        1.50310        1.58220
        1.61456        1.62783        1.65632        1.68167        1.70287
        1.79303        1.82747        1.82962        1.85513        1.87740
        1.92136        1.94302        2.03861        2.09875        2.13042
        2.13905        2.18552        2.21761        2.24221        2.26597
        2.26795        2.30913        2.35304        2.36853        2.44268
        2.53702        2.56720        2.58032        2.61091        2.63256
        2.67677        2.71706        2.72822        2.74735        2.75931
        2.79479        2.90102        2.93017        3.11441        3.25446
        3.28373        3.33628        3.35723        3.37016        3.39590
        3.39881        3.41716        3.43463        3.44737        3.47537
        3.55138        3.56851        3.57521        3.65650        3.89169
        3.90594        3.92097        3.95348        4.08926        4.13046
        4.18784        4.20520        4.98352        5.03597        5.17930
        5.28038        5.29818        5.30784        5.33311        5.66501
        5.72062        5.73918        5.77148        5.94502        5.99391
        5.99556        6.14917       36.89748       51.40188       51.41256
       51.43727       51.48750
 Time used in FCKEIG, thr_jaco:   2.73D-01  2.70D-02  1.63D-08
 CPU and wall times used in FCKEIG, THR_FCKEIG:   2.73D-01  2.70D-02  3.81D-06
 -----------------------------------------------------------------------------

 *** DIIS iteration number    9
 RDSUPM called. NFMAT, ISYMDM(1:NFMAT)                     1
                     1

 ITDIIS, energy, error norm, change in energy, scr.thr., difden:
@ DIIS iter.   9    -361.166234750        1.39343D-04   -1.90D-08  -20    F

 (DIIS_RED) Control Parameters C2DIIS =         F NEVC =    8


 (DIIS_RED) B matrix:

[...]

 Principal values of diagonalized transition strength matrix:

             a.u.               
 1      -0.00000000
 2       0.00000000
 3       0.00004656

 Principal axis of diagonalized transition strength matrix:


               Column   1     Column   2     Column   3
       1       0.80683606     0.44024820    -0.39395062
       2      -0.45658556     0.88784709     0.05707159
       3       0.37489358     0.13382475     0.91735802
    ==== End of matrix output ====


 CCSD   oscillator strength matrix for state nr. 13 of symmetry 1
 CCSD  excitation energy:15.20976844


               Column   1     Column   2     Column   3
       1     7.326689D-05  -1.061411D-05  -1.706105D-04
       2    -1.061411D-05   1.537632D-06   2.471635D-05
       3    -1.706105D-04   2.471635D-05   3.972854D-04
    ==== End of matrix output ====

 Principal values of diagonalized oscillator strength matrix:

             a.u.               
 1      -0.00000000
 2       0.00000000
 3       0.00047209

 Principal axis of diagonalized oscillator strength matrix:


               Column   1     Column   2     Column   3
       1       0.80683606     0.44024820    -0.39395062
       2      -0.45658556     0.88784709     0.05707159
       3       0.37489358     0.13382475     0.91735802
    ==== End of matrix output ====


 CCSD  Transition strength matrix for state nr. 14 of symmetry 1
 CCSD  excitation energy:15.24022888

 Gauge: length

               Column   1     Column   2     Column   3
       1     5.103400D-05   4.188416D-05  -8.996253D-05
       2     4.188416D-05   3.437473D-05  -7.383321D-05
       3    -8.996253D-05  -7.383321D-05   1.585856D-04
    ==== End of matrix output ====

 Principal values of diagonalized transition strength matrix:

             a.u.               
 1      -0.00000000
 2       0.00000000
 3       0.00024399

 Principal axis of diagonalized transition strength matrix:


               Column   1     Column   2     Column   3
       1      -0.34205192     0.82087752    -0.45734077
       2       0.91106605     0.17051458    -0.37534441
       3       0.23012852     0.54505493     0.80619848
    ==== End of matrix output ====


 CCSD   oscillator strength matrix for state nr. 14 of symmetry 1
 CCSD  excitation energy:15.24022888


               Column   1     Column   2     Column   3
       1       0.00051851     0.00042555    -0.00091403
       2       0.00042555     0.00034925    -0.00075016
       3      -0.00091403    -0.00075016     0.00161125
    ==== End of matrix output ====

 Principal values of diagonalized oscillator strength matrix:

             a.u.               
 1      -0.00000000
 2       0.00000000
 3       0.00247902

 Principal axis of diagonalized oscillator strength matrix:


               Column   1     Column   2     Column   3
       1      -0.34205192     0.82087752    -0.45734077
       2       0.91106605     0.17051458    -0.37534441
       3       0.23012852     0.54505493     0.80619848
    ==== End of matrix output ====


 CCSD  Transition strength matrix for state nr. 15 of symmetry 1
 CCSD  excitation energy:15.25092409

 Gauge: length

               Column   1     Column   2     Column   3
       1     2.520277D-04  -9.875788D-05  -3.031485D-05
       2    -9.875788D-05   3.869846D-05   1.187896D-05
       3    -3.031485D-05   1.187896D-05   3.646384D-06
    ==== End of matrix output ====

 Principal values of diagonalized transition strength matrix:

             a.u.               
 1      -0.00000000
 2      -0.00000000
 3       0.00029437

 Principal axis of diagonalized transition strength matrix:


               Column   1     Column   2     Column   3
       1       0.37131995     0.07726314     0.92528477
       2       0.92578000    -0.10709926    -0.36257569
       3       0.07108358     0.99124172    -0.11129676
    ==== End of matrix output ====


 CCSD   oscillator strength matrix for state nr. 15 of symmetry 1
 CCSD  excitation energy:15.25092409


               Column   1     Column   2     Column   3
       1       0.00256244    -0.00100410    -0.00030822
       2      -0.00100410     0.00039346     0.00012078
       3      -0.00030822     0.00012078     0.00003707
    ==== End of matrix output ====

 Principal values of diagonalized oscillator strength matrix:

             a.u.               
 1      -0.00000000
 2      -0.00000000
 3       0.00299297

 Principal axis of diagonalized oscillator strength matrix:


               Column   1     Column   2     Column   3
       1       0.37131995     0.07726314     0.92528477
       2       0.92578000    -0.10709926    -0.36257569
       3       0.07108358     0.99124172    -0.11129676
    ==== End of matrix output ====

  Total time for    135 linear response residues:     120.31 seconds.
  

 *******************************************************************************
 *******************************************************************************
 *                                                                             *
 *                                                                             *
 *                   SUMMARY OF COUPLED CLUSTER CALCULATION                    *
 *                                                                             *
 *                                                                             *
 *******************************************************************************
 *******************************************************************************

                                                                                
                                                                                
            Total SCF   energy:                  -361.1662347518                
            Total MP2   energy:                  -362.2709502198                
            Total CCSD  energy:                  -362.3128267267                
                                                                                
                                                                                
            Total SCF   energy:                  -361.1662347518                
            Total RSTAR energy:                  -362.3128267267                
            Total CCSD  energy:                  -362.3129475266                
                                                                                
                                                                                
            Total SCF   energy:                  -361.1662347518                
            Total RSTAR energy:                  -362.3129475266                
            Total CCSD  energy:                  -362.3129470152                
                                                                                
                                                                                
            Total SCF   energy:                  -361.1662347518                
            Total RSTAR energy:                  -362.3129470152                
            Total CCSD  energy:                  -362.3129470982                
                                                                                
                                                                                
            Total SCF   energy:                  -361.1662347518                
            Total RSTAR energy:                  -362.3129470982                
            Total CCSD  energy:                  -362.3129470977                
                                                                                
                                                                                
            Total SCF   energy:                  -361.1662347518                
            Total RSTAR energy:                  -362.3129470977                
            Total CCSD  energy:                  -362.3129470977                
            CCSD Total  energy:                  -362.6876559044                
            CCSD E(QM/MM)     :                    -0.3714092099                
                                                                                
                                                                                
                                                                                
 +=============================================================================+
 |  sym. | Exci.  |        CCSD       Excitation energies            | ||T1||  |
 |(spin, |        +------------------------------------------------------------+
 | spat) |        |     Hartree    |       eV.      |     cm-1       |    %    |
 +=============================================================================+
 | ^1A   |    1   |    14.9356994  |     406.42106  |   3278007.099  |  88.63  |
 | ^1A   |    2   |    14.9822893  |     407.68883  |   3288232.388  |  89.06  |
 | ^1A   |    3   |    15.0068141  |     408.35618  |   3293614.964  |  89.00  |
 | ^1A   |    4   |    15.0145584  |     408.56692  |   3295314.636  |  89.12  |
 | ^1A   |    5   |    15.0777241  |     410.28574  |   3309177.898  |  88.00  |
 | ^1A   |    6   |    15.1002984  |     410.90002  |   3314132.404  |  88.22  |
 | ^1A   |    7   |    15.1095658  |     411.15220  |   3316166.361  |  88.04  |
 | ^1A   |    8   |    15.1357610  |     411.86501  |   3321915.542  |  87.95  |
 | ^1A   |    9   |    15.1528283  |     412.32943  |   3325661.372  |  88.04  |
 | ^1A   |   10   |    15.1748160  |     412.92775  |   3330487.117  |  87.98  |
 | ^1A   |   11   |    15.1832225  |     413.15650  |   3332332.128  |  88.23  |
 | ^1A   |   12   |    15.2044198  |     413.73331  |   3336984.394  |  87.92  |
 | ^1A   |   13   |    15.2097684  |     413.87885  |   3338158.290  |  87.94  |
 | ^1A   |   14   |    15.2402289  |     414.70772  |   3344843.585  |  88.29  |
 | ^1A   |   15   |    15.2509241  |     414.99876  |   3347190.912  |  88.20  |
 +=============================================================================+
                                                                                
                                                                                
     Total energies in Hartree:                                                 
             1 ^1A       -347.3805472520                                        
             2 ^1A       -347.3339574062                                        
             3 ^1A       -347.3094325870                                        
             4 ^1A       -347.3016883120                                        
             5 ^1A       -347.2385226406                                        
             6 ^1A       -347.2159482485                                        
             7 ^1A       -347.2066808580                                        
             8 ^1A       -347.1804856623                                        
             9 ^1A       -347.1634184059                                        
            10 ^1A       -347.1414306956                                        
            11 ^1A       -347.1330242040                                        
            12 ^1A       -347.1118269229                                        
            13 ^1A       -347.1064782580                                        
            14 ^1A       -347.0760178143                                        
            15 ^1A       -347.0653226014                                        
                                                                                
                                                                                
 +=============================================================================+
 |  sym. | Exci.  |        CCSD       Length   Gauge Oscillator Strength       |
 |(spin, |        +------------------------------------------------------------+
 | spat) |        | Dipole Strength(a.u.) | Oscillator strength  | Direction   |
 +=============================================================================+
 | ^1A   |    1   |        0.0003307      |      0.0032930       |  (Y,Z)      |
 | ^1A   |    2   |        0.0038959      |      0.0389126       |  (Y,Z)      |
 | ^1A   |    3   |        0.0040665      |      0.0406832       |  (Y,Z)      |
 | ^1A   |    4   |        0.0038271      |      0.0383077       |  (Y,Z)      |
 | ^1A   |    5   |        0.0002027      |      0.0020373       |  (Y,Z)      |
 | ^1A   |    6   |        0.0000145      |      0.0001459       |  (Y,Z)      |
 | ^1A   |    7   |        0.0001929      |      0.0019431       |  (Y,Z)      |
 | ^1A   |    8   |        0.0002049      |      0.0020670       |  (Y,Z)      |
 | ^1A   |    9   |        0.0001247      |      0.0012600       |  (Y,Z)      |
 | ^1A   |   10   |        0.0001866      |      0.0018881       |  (Y,Z)      |
 | ^1A   |   11   |        0.0003039      |      0.0030760       |  (Y,Z)      |
 | ^1A   |   12   |        0.0000263      |      0.0002668       |  (Y,Z)      |
 | ^1A   |   13   |        0.0000466      |      0.0004721       |  (Y,Z)      |
 | ^1A   |   14   |        0.0002440      |      0.0024790       |  (Y,Z)      |
 | ^1A   |   15   |        0.0002944      |      0.0029930       |  (Y,Z)      |
 +=============================================================================+

  1 a.u. =        27.21138 eV.  
  1 a.u. =    219474.62934 cm-1.
  

 *******************************************************************************
 *******************************************************************************
 *                                                                             *
 *                                                                             *
 *                      END OF COUPLED CLUSTER CALCULATION                     *
 *                                                                             *
 *                                                                             *
 *******************************************************************************
 *******************************************************************************


 CPU and wall time for CC :  465469.935   51067.756

 
     Date and time (Linux)  : Sat Jan 12 08:02:50 2019
     Host name              : n-62-29-23                              


                      .-------------------------------------.
                      | End of Coupled Cluster Section (CC) |
                      `-------------------------------------'

  Total CPU  time used in DALTON: 129 hours 30 minutes 53 seconds
  Total wall time used in DALTON:  14 hours 13 minutes 28 seconds

 
     Date and time (Linux)  : Sat Jan 12 08:02:50 2019
     Host name              : n-62-29-23                              
  

 +---------------------------------------------------------+ 
 | List of selected calculated molecular properties (a.u.) | 
 +---------------------------------------------------------+ 

  Properties are read from unit number                      4

 CCSD       properties :
 #  1 1 CCSD/MM  Ground state Energy =    -362.6876559044
 #  2 1 E_QM/MM  Ground state Energy =      -0.3714092099
 #  3 1 Sy: 1 Sp: 1 Exc:  1 E_tot:   -347.3805472520 w:     14.9356994425 E_grs:   -362.3162466945
 #  4 1 Exctot   Excited state Energy =    -347.3805472520
 #  5 1 Sy: 1 Sp: 1 Exc:  2 E_tot:   -347.3339574062 w:     14.9822892883 E_grs:   -362.3162466945
 #  6 1 Exctot   Excited state Energy =    -347.3339574062
 #  7 1 Sy: 1 Sp: 1 Exc:  3 E_tot:   -347.3094325870 w:     15.0068141075 E_grs:   -362.3162466945
 #  8 1 Exctot   Excited state Energy =    -347.3094325870
 #  9 1 Sy: 1 Sp: 1 Exc:  4 E_tot:   -347.3016883120 w:     15.0145583825 E_grs:   -362.3162466945
 # 10 1 Exctot   Excited state Energy =    -347.3016883120
 # 11 1 Sy: 1 Sp: 1 Exc:  5 E_tot:   -347.2385226406 w:     15.0777240539 E_grs:   -362.3162466945
 # 12 1 Exctot   Excited state Energy =    -347.2385226406
 # 13 1 Sy: 1 Sp: 1 Exc:  6 E_tot:   -347.2159482485 w:     15.1002984460 E_grs:   -362.3162466945
 # 14 1 Exctot   Excited state Energy =    -347.2159482485
 # 15 1 Sy: 1 Sp: 1 Exc:  7 E_tot:   -347.2066808580 w:     15.1095658365 E_grs:   -362.3162466945
 # 16 1 Exctot   Excited state Energy =    -347.2066808580
 # 17 1 Sy: 1 Sp: 1 Exc:  8 E_tot:   -347.1804856623 w:     15.1357610322 E_grs:   -362.3162466945
 # 18 1 Exctot   Excited state Energy =    -347.1804856623
 # 19 1 Sy: 1 Sp: 1 Exc:  9 E_tot:   -347.1634184059 w:     15.1528282886 E_grs:   -362.3162466945
 # 20 1 Exctot   Excited state Energy =    -347.1634184059
 # 21 1 Sy: 1 Sp: 1 Exc: 10 E_tot:   -347.1414306956 w:     15.1748159989 E_grs:   -362.3162466945
 # 22 1 Exctot   Excited state Energy =    -347.1414306956
 # 23 1 Sy: 1 Sp: 1 Exc: 11 E_tot:   -347.1330242040 w:     15.1832224905 E_grs:   -362.3162466945
 # 24 1 Exctot   Excited state Energy =    -347.1330242040
 # 25 1 Sy: 1 Sp: 1 Exc: 12 E_tot:   -347.1118269229 w:     15.2044197716 E_grs:   -362.3162466945
 # 26 1 Exctot   Excited state Energy =    -347.1118269229
 # 27 1 Sy: 1 Sp: 1 Exc: 13 E_tot:   -347.1064782580 w:     15.2097684365 E_grs:   -362.3162466945
 # 28 1 Exctot   Excited state Energy =    -347.1064782580
 # 29 1 Sy: 1 Sp: 1 Exc: 14 E_tot:   -347.0760178143 w:     15.2402288802 E_grs:   -362.3162466945
 # 30 1 Exctot   Excited state Energy =    -347.0760178143
 # 31 1 Sy: 1 Sp: 1 Exc: 15 E_tot:   -347.0653226014 w:     15.2509240931 E_grs:   -362.3162466945
 # 32 1 Exctot   Excited state Energy =    -347.0653226014
 # 33 1 |<O|XDIPLEN |i(14.935699)>| =     0.01602991
 # 35 1 |<O|XDIPLEN |i(14.982289)>| =     0.05370752
 # 37 1 |<O|XDIPLEN |i(15.006814)>| =     0.03204620
 # 39 1 |<O|XDIPLEN |i(15.014558)>| =     0.00131491
 # 41 1 |<O|XDIPLEN |i(15.077724)>| =     0.00568811
 # 43 1 |<O|XDIPLEN |i(15.100298)>| =     0.00091043
 # 45 1 |<O|XDIPLEN |i(15.109566)>| =     0.00757601
 # 47 1 |<O|XDIPLEN |i(15.135761)>| =     0.00177751
 # 49 1 |<O|XDIPLEN |i(15.152828)>| =     0.00261926
 # 51 1 |<O|XDIPLEN |i(15.174816)>| =     0.01174569
 # 53 1 |<O|XDIPLEN |i(15.183222)>| =     0.01244772
 # 55 1 |<O|XDIPLEN |i(15.204420)>| =     0.00063765
 # 57 1 |<O|XDIPLEN |i(15.209768)>| =     0.00268806
 # 59 1 |<O|XDIPLEN |i(15.240229)>| =     0.00714381
 # 61 1 |<O|XDIPLEN |i(15.250924)>| =     0.01587538
 # 63 1 |<O|YDIPLEN |i(14.935699)>| =     0.00509912
 # 65 1 |<O|YDIPLEN |i(14.982289)>| =     0.01147030
 # 67 1 |<O|YDIPLEN |i(15.006814)>| =     0.02081454
 # 69 1 |<O|YDIPLEN |i(15.014558)>| =     0.05912558
 # 71 1 |<O|YDIPLEN |i(15.077724)>| =     0.00423928
 # 73 1 |<O|YDIPLEN |i(15.100298)>| =     0.00180130
 # 75 1 |<O|YDIPLEN |i(15.109566)>| =     0.00960652
 # 77 1 |<O|YDIPLEN |i(15.135761)>| =     0.00926993
 # 79 1 |<O|YDIPLEN |i(15.152828)>| =     0.00733367
 # 81 1 |<O|YDIPLEN |i(15.174816)>| =     0.00690668
 # 83 1 |<O|YDIPLEN |i(15.183222)>| =     0.01086169
 # 85 1 |<O|YDIPLEN |i(15.204420)>| =     0.00428525
 # 87 1 |<O|YDIPLEN |i(15.209768)>| =     0.00038941
 # 89 1 |<O|YDIPLEN |i(15.240229)>| =     0.00586300
 # 91 1 |<O|YDIPLEN |i(15.250924)>| =     0.00622081
 # 93 1 |<O|ZDIPLEN |i(14.935699)>| =     0.00691113
 # 95 1 |<O|ZDIPLEN |i(14.982289)>| =     0.02966131
 # 97 1 |<O|ZDIPLEN |i(15.006814)>| =     0.05105161
 # 99 1 |<O|ZDIPLEN |i(15.014558)>| =     0.01815207
 #101 1 |<O|ZDIPLEN |i(15.077724)>| =     0.01234325
 #103 1 |<O|ZDIPLEN |i(15.100298)>| =     0.00322863
 #105 1 |<O|ZDIPLEN |i(15.109566)>| =     0.00657433
 #107 1 |<O|ZDIPLEN |i(15.135761)>| =     0.01075918
 #109 1 |<O|ZDIPLEN |i(15.152828)>| =     0.00800521
 #111 1 |<O|ZDIPLEN |i(15.174816)>| =     0.00098794
 #113 1 |<O|ZDIPLEN |i(15.183222)>| =     0.00556465
 #115 1 |<O|ZDIPLEN |i(15.204420)>| =     0.00274746
 #117 1 |<O|ZDIPLEN |i(15.209768)>| =     0.00625944
 #119 1 |<O|ZDIPLEN |i(15.240229)>| =     0.01259308
 #121 1 |<O|ZDIPLEN |i(15.250924)>| =     0.00190955

 THE_END   
