

     ************************************************************************
     *************** Dalton - An Electronic Structure Program ***************
     ************************************************************************

    This is output from DALTON release Dalton2017.alpha (2016)
         ( Web site: http://daltonprogram.org )

   ----------------------------------------------------------------------------

    NOTE:
     
    Dalton is an experimental code for the evaluation of molecular
    properties using (MC)SCF, DFT, CI, and CC wave functions.
    The authors accept no responsibility for the performance of
    the code or for the correctness of the results.
     
    The code (in whole or part) is provided under a licence and
    is not to be reproduced for further distribution without
    the written permission of the authors or their representatives.
     
    See the home page "http://daltonprogram.org" for further information.
     
    If results obtained with this code are published,
    the appropriate citations would be both of:
     
       K. Aidas, C. Angeli, K. L. Bak, V. Bakken, R. Bast,
       L. Boman, O. Christiansen, R. Cimiraglia, S. Coriani,
       P. Dahle, E. K. Dalskov, U. Ekstroem,
       T. Enevoldsen, J. J. Eriksen, P. Ettenhuber, B. Fernandez,
       L. Ferrighi, H. Fliegl, L. Frediani, K. Hald, A. Halkier,
       C. Haettig, H. Heiberg, T. Helgaker, A. C. Hennum,
       H. Hettema, E. Hjertenaes, S. Hoest, I.-M. Hoeyvik,
       M. F. Iozzi, B. Jansik, H. J. Aa. Jensen, D. Jonsson,
       P. Joergensen, J. Kauczor, S. Kirpekar,
       T. Kjaergaard, W. Klopper, S. Knecht, R. Kobayashi, H. Koch,
       J. Kongsted, A. Krapp, K. Kristensen, A. Ligabue,
       O. B. Lutnaes, J. I. Melo, K. V. Mikkelsen, R. H. Myhre,
       C. Neiss, C. B. Nielsen, P. Norman, J. Olsen,
       J. M. H. Olsen, A. Osted, M. J. Packer, F. Pawlowski,
       T. B. Pedersen, P. F. Provasi, S. Reine, Z. Rinkevicius,
       T. A. Ruden, K. Ruud, V. Rybkin, P. Salek, C. C. M. Samson,
       A. Sanchez de Meras, T. Saue, S. P. A. Sauer,
       B. Schimmelpfennig, K. Sneskov, A. H. Steindal,
       K. O. Sylvester-Hvid, P. R. Taylor, A. M. Teale,
       E. I. Tellgren, D. P. Tew, A. J. Thorvaldsen, L. Thoegersen,
       O. Vahtras, M. A. Watson, D. J. D. Wilson, M. Ziolkowski
       and H. Agren,
       "The Dalton quantum chemistry program system",
       WIREs Comput. Mol. Sci. 2014, 4:269–284 (doi: 10.1002/wcms.1172)
     
    and
     
       Dalton, a Molecular Electronic Structure Program,
       Release Dalton2017.alpha (2016), see http://daltonprogram.org
   ----------------------------------------------------------------------------

    Authors in alphabetical order (major contribution(s) in parenthesis):

  Kestutis Aidas,           Vilnius University,           Lithuania   (QM/MM)
  Celestino Angeli,         University of Ferrara,        Italy       (NEVPT2)
  Keld L. Bak,              UNI-C,                        Denmark     (AOSOPPA, non-adiabatic coupling, magnetic properties)
  Vebjoern Bakken,          University of Oslo,           Norway      (DALTON; geometry optimizer, symmetry detection)
  Radovan Bast,             UiT The Arctic U. of Norway,  Norway      (DALTON installation and execution frameworks)
  Pablo Baudin,             University of Valencia,       Spain       (Cholesky excitation energies)
  Linus Boman,              NTNU,                         Norway      (Cholesky decomposition and subsystems)
  Ove Christiansen,         Aarhus University,            Denmark     (CC module)
  Renzo Cimiraglia,         University of Ferrara,        Italy       (NEVPT2)
  Sonia Coriani,            University of Trieste,        Italy       (CC module, MCD in RESPONS)
  Janusz Cukras,            University of Trieste,        Italy       (MChD in RESPONS)
  Paal Dahle,               University of Oslo,           Norway      (Parallelization)
  Erik K. Dalskov,          UNI-C,                        Denmark     (SOPPA)
  Thomas Enevoldsen,        Univ. of Southern Denmark,    Denmark     (SOPPA)
  Janus J. Eriksen,         Aarhus University,            Denmark     (Polarizable embedding model, TDA)
  Rasmus Faber,             University of Copenhagen,     Denmark     (Vib.avg. NMR with SOPPA, parallel AO-SOPPA)
  Berta Fernandez,          U. of Santiago de Compostela, Spain       (doublet spin, ESR in RESPONS)
  Lara Ferrighi,            Aarhus University,            Denmark     (PCM Cubic response)
  Heike Fliegl,             University of Oslo,           Norway      (CCSD(R12))
  Luca Frediani,            UiT The Arctic U. of Norway,  Norway      (PCM)
  Bin Gao,                  UiT The Arctic U. of Norway,  Norway      (Gen1Int library)
  Christof Haettig,         Ruhr-University Bochum,       Germany     (CC module)
  Kasper Hald,              Aarhus University,            Denmark     (CC module)
  Asger Halkier,            Aarhus University,            Denmark     (CC module)
  Frederik Beyer Hansen,    University of Copenhagen,     Denmark     (Parallel AO-SOPPA)
  Erik D. Hedegaard,        Univ. of Southern Denmark,    Denmark     (Polarizable embedding model, QM/MM)
  Hanne Heiberg,            University of Oslo,           Norway      (geometry analysis, selected one-electron integrals)
  Trygve Helgaker,          University of Oslo,           Norway      (DALTON; ABACUS, ERI, DFT modules, London, and much more)
  Alf Christian Hennum,     University of Oslo,           Norway      (Parity violation)
  Hinne Hettema,            University of Auckland,       New Zealand (quadratic response in RESPONS; SIRIUS supersymmetry)
  Eirik Hjertenaes,         NTNU,                         Norway      (Cholesky decomposition)
  Pi A. B. Haase,           University of Copenhagen,     Denmark     (Triplet AO-SOPPA)
  Maria Francesca Iozzi,    University of Oslo,           Norway      (RPA)
  Brano Jansik              Technical Univ. of Ostrava    Czech Rep.  (DFT cubic response)
  Hans Joergen Aa. Jensen,  Univ. of Southern Denmark,    Denmark     (DALTON; SIRIUS, RESPONS, ABACUS modules, London, and much more)
  Dan Jonsson,              UiT The Arctic U. of Norway,  Norway      (cubic response in RESPONS module)
  Poul Joergensen,          Aarhus University,            Denmark     (RESPONS, ABACUS, and CC modules)
  Maciej Kaminski,          University of Warsaw,         Poland      (CPPh in RESPONS)
  Joanna Kauczor,           Linkoeping University,        Sweden      (Complex polarization propagator (CPP) module)
  Sheela Kirpekar,          Univ. of Southern Denmark,    Denmark     (Mass-velocity & Darwin integrals)
  Wim Klopper,              KIT Karlsruhe,                Germany     (R12 code in CC, SIRIUS, and ABACUS modules)
  Stefan Knecht,            ETH Zurich,                   Switzerland (Parallel CI and MCSCF)
  Rika Kobayashi,           Australian National Univ.,    Australia   (DIIS in CC, London in MCSCF)
  Henrik Koch,              NTNU,                         Norway      (CC module, Cholesky decomposition)
  Jacob Kongsted,           Univ. of Southern Denmark,    Denmark     (Polarizable embedding model, QM/MM)
  Andrea Ligabue,           University of Modena,         Italy       (CTOCD, AOSOPPA)
  Nanna H. List             Univ. of Southern Denmark,    Denmark     (Polarizable embedding model)
  Ola B. Lutnaes,           University of Oslo,           Norway      (DFT Hessian)
  Juan I. Melo,             University of Buenos Aires,   Argentina   (LRESC, Relativistic Effects on NMR Shieldings)
  Kurt V. Mikkelsen,        University of Copenhagen,     Denmark     (MC-SCRF and QM/MM)
  Rolf H. Myhre,            NTNU,                         Norway      (Cholesky, subsystems and ECC2)
  Christian Neiss,          Univ. Erlangen-Nuernberg,     Germany     (CCSD(R12))
  Christian B. Nielsen,     University of Copenhagen,     Denmark     (QM/MM)
  Patrick Norman,           Linkoeping University,        Sweden      (Cubic response and complex frequency response in RESPONS)
  Jeppe Olsen,              Aarhus University,            Denmark     (SIRIUS CI/density modules)
  Jogvan Magnus H. Olsen,   Univ. of Southern Denmark,    Denmark     (Polarizable embedding model, QM/MM)
  Anders Osted,             Copenhagen University,        Denmark     (QM/MM)
  Martin J. Packer,         University of Sheffield,      UK          (SOPPA)
  Filip Pawlowski,          Kazimierz Wielki University,  Poland      (CC3)
  Morten N. Pedersen,       Univ. of Southern Denmark,    Denmark     (Polarizable embedding model)
  Thomas B. Pedersen,       University of Oslo,           Norway      (Cholesky decomposition)
  Patricio F. Provasi,      University of Northeastern,   Argentina   (Analysis of coupling constants in localized orbitals)
  Zilvinas Rinkevicius,     KTH Stockholm,                Sweden      (open-shell DFT, ESR)
  Elias Rudberg,            KTH Stockholm,                Sweden      (DFT grid and basis info)
  Torgeir A. Ruden,         University of Oslo,           Norway      (Numerical derivatives in ABACUS)
  Kenneth Ruud,             UiT The Arctic U. of Norway,  Norway      (DALTON; ABACUS magnetic properties and much more)
  Pawel Salek,              KTH Stockholm,                Sweden      (DALTON; DFT code)
  Claire C. M. Samson       University of Karlsruhe       Germany     (Boys localization, r12 integrals in ERI)
  Alfredo Sanchez de Meras, University of Valencia,       Spain       (CC module, Cholesky decomposition)
  Trond Saue,               Paul Sabatier University,     France      (direct Fock matrix construction)
  Stephan P. A. Sauer,      University of Copenhagen,     Denmark     (SOPPA(CCSD), SOPPA prop., AOSOPPA, vibrational g-factors)
  Bernd Schimmelpfennig,    Forschungszentrum Karlsruhe,  Germany     (AMFI module)
  Kristian Sneskov,         Aarhus University,            Denmark     (Polarizable embedding model, QM/MM)
  Arnfinn H. Steindal,      UiT The Arctic U. of Norway,  Norway      (parallel QM/MM, Polarizable embedding model)
  Casper Steinmann,         Univ. of Southern Denmark,    Denmark     (QFIT, Polarizable embedding model)
  K. O. Sylvester-Hvid,     University of Copenhagen,     Denmark     (MC-SCRF)
  Peter R. Taylor,          VLSCI/Univ. of Melbourne,     Australia   (Symmetry handling ABACUS, integral transformation)
  Andrew M. Teale,          University of Nottingham,     England     (DFT-AC, DFT-D)
  David P. Tew,             University of Bristol,        England     (CCSD(R12))
  Olav Vahtras,             KTH Stockholm,                Sweden      (triplet response, spin-orbit, ESR, TDDFT, open-shell DFT)
  David J. Wilson,          La Trobe University,          Australia   (DFT Hessian and DFT magnetizabilities)
  Hans Agren,               KTH Stockholm,                Sweden      (SIRIUS module, RESPONS, MC-SCRF solvation model)
 --------------------------------------------------------------------------------

     Date and time (Linux)  : Mon Dec 10 00:56:17 2018
     Host name              : n-62-24-1                               

 * Work memory size             :  1280000000 =  9.537 gigabytes.

 * Directories for basis set searches:
   1) /zhome/37/3/129401/NH3NH4/CCSD/AIMD_SAMPLING/nh4_4h2o_nd
   2) /zhome/9a/4/124800/source/dalton/build-mlcc/basis


Compilation information
-----------------------

 Who compiled             | rfaber
 Host                     | hpclogin1
 System                   | Linux-2.6.32-696.1.1.el6.x86_64
 CMake generator          | Unix Makefiles
 Processor                | x86_64
 64-bit integers          | ON
 MPI                      | OFF
 Fortran compiler         | /opt/intel/2016update2/compilers_and_libraries_201
                          | 6.2.181/linux/bin/intel64/ifort
 Fortran compiler version | ifort (IFORT) 16.0.2 20160204
 C compiler               | /opt/intel/2016update2/compilers_and_libraries_201
                          | 6.2.181/linux/bin/intel64/icc
 C compiler version       | icc (ICC) 16.0.2 20160204
 C++ compiler             | /opt/intel/2016update2/compilers_and_libraries_201
                          | 6.2.181/linux/bin/intel64/icpc
 C++ compiler version     | icpc (ICC) 16.0.2 20160204
 Static linking           | OFF
 Last Git revision        | bb4d1599ca5680a9f3980451fc8bbefdba436d59
 Git branch               | mlcc
 Configuration time       | 2017-06-13 16:11:03.928841


   Content of the .dal input file
 ----------------------------------

**DALTON
.RUN WAVE FUNCTIONS
*QMMM
.QMMM
**INTEGRALS
.DIPLEN
**WAVE FUNCTIONS
.CC
*PRINT
!To check the origin of excit
.PRINTL
   0 11
*SCF INP
.THRESH
1.0D-7
*CC INP
.CCSD
.THRLEQ
 1.0D-9
.THRENR
 1.0D-10
.FROIMP
4
0
.PRINT
 1
.MAX IT
 1200
.MAXRED
 1200
.MXLRV
1199
*CCSLV
.CCMM
.MXSLIT
200
.MXINIT
4 5
*CCEXCI
.NCCEXC
 15
.CVSEPARA
1
1
*CCLRSD
.DIPOLE
**END OF DALTON INPUT


   Content of the .mol file
 ----------------------------

ATOMBASIS


Atomtypes=4 Charge=1 Nosymm Angstrom
   7.00000    1    Basis=6-311G**
N          0.000000        0.000000        0.000000
   1.00000    4    Basis=6-311G**
H          0.529001        0.672680       -0.590281
H          0.594073       -0.851052        0.079235
H         -0.914381       -0.383598       -0.503547
H         -0.272247        0.178551        1.006561
   8.00000    4    Basis=6-311G**
O          0.570297        2.442997       -1.232175
O         -2.184182       -1.269063       -0.988936
O         -0.675496       -0.772522        2.871602
O          2.702868       -1.274050       -0.851375
   1.00000    8    Basis=6-311G**
H          0.273605        1.932760       -2.019031
H          1.453048        2.797896       -1.491515
H         -2.148302       -2.100534       -0.522676
H         -2.843812       -0.682463       -0.566387
H         -0.162715       -0.336485        3.536790
H         -0.372031       -1.720268        2.710287
H          2.701131       -2.111243       -0.298483
H          3.558942       -0.837946       -0.515728


       *******************************************************************
       *********** Output from DALTON general input processing ***********
       *******************************************************************

 --------------------------------------------------------------------------------
   Overall default print level:    0
   Print level for DALTON.STAT:    1

    HERMIT 1- and 2-electron integral sections will be executed
    "Old" integral transformation used (limited to max 255 basis functions)
    Wave function sections will be executed (SIRIUS module)
 --------------------------------------------------------------------------------


 Changes of defaults for *QMMM  :
 --------------------------------

 +------------------+
 |  WORD: | CHANGE: |
 +------------------+
 |   QMMM |       T |
 +------------------+
 


   ****************************************************************************
   *************** Output of molecule and basis set information ***************
   ****************************************************************************


    The two title cards from your ".mol" input:
    ------------------------------------------------------------------------
 1:                                                                         
 2:                                                                         
    ------------------------------------------------------------------------

  Coordinates are entered in Angstrom and converted to atomic units.
          - Conversion factor : 1 bohr = 0.52917721 A

  Atomic type no.    1
  --------------------
  Nuclear charge:   7.00000
  Number of symmetry independent centers:    1
  Number of basis sets to read;    2
  The basis set is "6-311G**" from the basis set library.
  Basis set file used for this atomic type with Z =   7 :
     "/zhome/9a/4/124800/source/dalton/build-mlcc/basis/6-311G**"

  Info about the basis set file: your basis has no documentation.
  Basis set: 6-311G**                                                                        

  Atomic type no.    2
  --------------------
  Nuclear charge:   1.00000
  Number of symmetry independent centers:    4
  Number of basis sets to read;    2
  The basis set is "6-311G**" from the basis set library.
  Basis set file used for this atomic type with Z =   1 :
     "/zhome/9a/4/124800/source/dalton/build-mlcc/basis/6-311G**"

  Info about the basis set file: your basis has no documentation.
  Basis set: 6-311G**                                                                        

  Atomic type no.    3
  --------------------
  Nuclear charge:   8.00000
  Number of symmetry independent centers:    4
  Number of basis sets to read;    2
  The basis set is "6-311G**" from the basis set library.
  Basis set file used for this atomic type with Z =   8 :
     "/zhome/9a/4/124800/source/dalton/build-mlcc/basis/6-311G**"

  Info about the basis set file: your basis has no documentation.
  Basis set: 6-311G**                                                                        

  Atomic type no.    4
  --------------------
  Nuclear charge:   1.00000
  Number of symmetry independent centers:    8
  Number of basis sets to read;    2
  The basis set is "6-311G**" from the basis set library.
  Basis set file used for this atomic type with Z =   1 :
     "/zhome/9a/4/124800/source/dalton/build-mlcc/basis/6-311G**"

  Info about the basis set file: your basis has no documentation.
  Basis set: 6-311G**                                                                        


                         SYMGRP: Point group information
                         -------------------------------

@    Point group: C1 


                                 Isotopic Masses
                                 ---------------

                           N          14.003074
                           H           1.007825
                           H           1.007825
                           H           1.007825
                           H           1.007825
                           O          15.994915
                           O          15.994915
                           O          15.994915
                           O          15.994915
                           H           1.007825
                           H           1.007825
                           H           1.007825
                           H           1.007825
                           H           1.007825
                           H           1.007825
                           H           1.007825
                           H           1.007825

                       Total mass:    90.076634 amu
                       Natural abundance:  98.500 %

 Center-of-mass coordinates (a.u.):    0.189415   -0.365590   -0.049960


  Atoms and basis sets
  --------------------

  Number of atom types :    4
  Total number of atoms:   17

  label    atoms   charge   prim   cont     basis
  ----------------------------------------------------------------------
  N           1    7.0000    31    18      [11s5p1d|4s3p1d]                                   
  H           4    1.0000     8     6      [5s1p|3s1p]                                        
  O           4    8.0000    31    18      [11s5p1d|4s3p1d]                                   
  H           8    1.0000     8     6      [5s1p|3s1p]                                        
  ----------------------------------------------------------------------
  total:     17   51.0000   251   162
  ----------------------------------------------------------------------
  Spherical harmonic basis used.

  Threshold for neglecting AO integrals:  1.00D-12


  Cartesian Coordinates (a.u.)
  ----------------------------

  Total number of coordinates:   51
  N       :     1  x   0.0000000000    2  y   0.0000000000    3  z   0.0000000000
  H       :     4  x   0.9996670098    5  y   1.2711809698    6  z  -1.1154694268
  H       :     7  x   1.1226352683    8  y  -1.6082551981    9  z   0.1497324495
  H       :    10  x  -1.7279296639   11  y  -0.7248951621   12  z  -0.9515659211
  H       :    13  x  -0.5144722684   14  y   0.3374124893   15  z   1.9021246181
  O       :    16  x   1.0777051399   17  y   4.6165952542   18  z  -2.3284732881
  O       :    19  x  -4.1275057871   20  y  -2.3981815054   21  z  -1.8688181951
  O       :    22  x  -1.2765024385   23  y  -1.4598550055   24  z   5.4265413200
  O       :    25  x   5.1076802720   26  y  -2.4076055695   27  z  -1.6088655797
  H       :    28  x   0.5170385164   29  y   3.6523870653   30  z  -3.8154156279
  H       :    31  x   2.7458627665   32  y   5.2872571662   33  z  -2.8185548613
  H       :    34  x  -4.0597024138   35  y  -3.9694339762   36  z  -0.9877144921
  H       :    37  x  -5.3740258310   38  y  -1.2896681604   39  z  -1.0703163108
  H       :    40  x  -0.3074867864   41  y  -0.6358644952   42  z   6.6835644616
  H       :    43  x  -0.7030367000   44  y  -3.2508353816   45  z   5.1217001501
  H       :    46  x   5.1043978177   47  y  -3.9896710533   48  z  -0.5640511230
  H       :    49  x   6.7254256747   50  y  -1.5834884475   51  z  -0.9745846750

  Max    interatomic separation is    6.4343 Angstrom (   12.1590 Bohr)
  between atoms   15 and   11, "H     " and "H     ".

  Min HX interatomic separation is    0.9463 Angstrom (    1.7883 Bohr)

  Min YX interatomic separation is    2.7128 Angstrom (    5.1264 Bohr)


  Bond distances (Angstrom):
  --------------------------

                  atom 1     atom 2       distance
                  ------     ------       --------
  bond distance:  H          N            1.039602
  bond distance:  H          N            1.040908
  bond distance:  H          N            1.112115
  bond distance:  H          N            1.057905
  bond distance:  H          O            0.983621
  bond distance:  H          O            0.986134
  bond distance:  H          O            0.953955
  bond distance:  H          O            0.978652
  bond distance:  H          O            0.946334
  bond distance:  H          O            1.008135
  bond distance:  H          O            1.003287
  bond distance:  H          O            1.017698


  Bond angles (degrees):
  ----------------------

                  atom 1     atom 2     atom 3         angle
                  ------     ------     ------         -----
  bond angle:     H          N          H            106.370
  bond angle:     H          N          H            112.611
  bond angle:     H          N          H            124.193
  bond angle:     H          N          H            102.809
  bond angle:     H          N          H            102.265
  bond angle:     H          N          H            106.107
  bond angle:     H          O          H            104.260
  bond angle:     H          O          H            109.679
  bond angle:     H          O          H            112.490
  bond angle:     H          O          H            100.212




 Principal moments of inertia (u*A**2) and principal axes
 --------------------------------------------------------

   IA     329.974232         -0.658411   -0.424245    0.621700
   IB     437.895409          0.744083   -0.491226    0.452811
   IC     499.118477          0.113292    0.760732    0.639102


 Rotational constants
 --------------------

               A                   B                   C

           1531.5711           1154.1089           1012.5432 MHz
            0.051088            0.038497            0.033775 cm-1


@  Nuclear repulsion energy :  197.000914860909 Hartree


                     .---------------------------------------.
                     | Starting in Integral Section (HERMIT) |
                     `---------------------------------------'



 ***************************************************************************************
 ****************** Output from **INTEGRALS input processing (HERMIT) ******************
 ***************************************************************************************



    *************************************************************************
    ****************** Output from HERMIT input processing ******************
    *************************************************************************


 Default print level:        1

 * Nuclear model: Point charge

 Calculation of one- and two-electron Hamiltonian integrals.

 The following one-electron property integrals are calculated as requested:
          - overlap integrals
          - dipole length integrals

 Center of mass  (bohr):      0.189415043959     -0.365590157559     -0.049960454877
 Operator center (bohr):      0.000000000000      0.000000000000      0.000000000000
 Gauge origin    (bohr):      0.000000000000      0.000000000000      0.000000000000
 Dipole origin   (bohr):      0.000000000000      0.000000000000      0.000000000000
 
  *********************************** 
  QMMM electrostatic potential: 
  Multipole order                                    0
  Isotropic polarization  
  *********************************** 
 
  ---------------- 
  QMMM information 
  ---------------- 
 
  MM coordinates in au 
  -------------------- 
     1    -11.413857      7.449002     -8.778150
     2    -12.861225      8.549920     -8.998524
     3    -12.019571      5.723744     -8.041178
     4      6.336152      5.378117     -2.989433
     5      7.210762      6.921307     -2.394394
     6      7.639348      4.354619     -3.859102
     7      9.054946      9.645927     -1.150291
     8      9.569713      9.064515      0.477698
     9     10.462558      9.740801     -2.387992
    10     10.347107     -5.203661     -8.506254
    11      9.819285     -5.855732    -10.183230
    12     12.119817     -4.542858     -8.564959
    13      6.132477      4.256255      2.382202
    14      5.157711      5.701625      2.906590
    15      6.221415      4.297252      0.578481
    16    -10.138507      9.662744     -4.315571
    17    -10.424054      9.231507     -6.071768
    18     -9.400256     11.414777     -4.349717
    19      0.845240     -6.671723      4.514516
    20      0.114805     -8.218451      3.806071
    21      0.649145     -6.584605      6.509846
    22      6.849335     -1.116947     -9.207859
    23      5.428431     -1.045066     -7.819520
    24      7.912160     -2.635911     -8.916888
    25      8.506487     -9.545343      6.457323
    26      9.913481     -8.928030      5.238032
    27      9.046814    -11.168128      7.082478
    28     -0.392774      7.650322     -9.873307
    29      0.074901      8.474382    -11.493902
    30     -1.733160      6.446256    -10.296024
    31     -7.139459      2.418054      0.939596
    32     -8.455759      2.584210      2.341014
    33     -7.007777      4.192189      0.201645
    34      7.907895     -9.249446     -6.381250
    35      9.098899     -7.874804     -6.898475
    36      7.246365     -9.004020     -4.673363
    37      2.632152     -1.531738     -5.816613
    38      1.787335     -3.229018     -6.314189
    39      3.725676     -2.003835     -4.411195
    40    -10.087787      0.922406     -3.005449
    41     -8.666832      0.669224     -4.258836
    42     -9.121436      1.676831     -1.595365
    43     11.492668     -5.976193     -0.920865
    44     10.004734     -6.820498     -1.611156
    45     10.880183     -4.368554     -0.445779
    46     10.939462      8.003580      3.924207
    47     12.574973      8.770827      4.194400
    48      9.793899      8.347839      5.323784
    49      7.969950     10.144144     -9.606030
    50      6.690318      9.034730     -9.027089
    51      8.167927     11.540306     -8.346703
    52     -1.895828      8.829968     -1.556344
    53     -0.716115      7.413571     -1.743201
    54     -3.577013      8.061122     -1.557684
    55    -11.472132      2.977434      3.820917
    56    -11.568478      2.505055      5.593304
    57    -12.126299      4.724625      3.611731
    58      1.397702     -8.551132     -2.974166
    59      3.220564     -8.831862     -2.803286
    60      0.693484     -9.926522     -4.233087
    61     -6.730864     -1.877244      7.050770
    62     -7.416102     -1.923314      5.297624
    63     -4.979523     -1.378604      6.816019
    64      1.098732      2.283050      8.808340
    65      2.603158      1.268694      9.447969
    66      1.880850      3.897760      8.387485
    67     -7.674735     -8.899127     -4.116105
    68     -7.054414     -9.312697     -5.865071
    69     -9.151932     -7.840789     -4.202258
    70     -0.645222     11.353250     -5.775334
    71     -1.218786     10.338608     -4.294454
    72     -0.253732     10.225378     -7.193904
    73     -9.010749     -3.024210      2.721773
    74    -10.661430     -3.103161      3.425675
    75     -9.156063     -1.729831      1.405389
    76     -3.889338     -5.647983    -10.719649
    77     -4.243856     -7.561459    -10.983447
    78     -2.948746     -5.247320     -9.206661
    79      4.374871     10.685050      3.574986
    80      5.210610     12.244573      4.119818
    81      2.931802     11.475335      2.588037
    82     -6.116184     -0.269048     -6.324280
    83     -7.046178     -1.380855     -7.543386
    84     -5.408774     -1.703274     -5.298395
    85      5.225422     -0.454088      4.545026
    86      5.826526      1.177783      3.877183
    87      5.222651     -0.190777      6.389807
    88      4.037653     -8.933142     -9.793192
    89      3.408121    -10.413767    -10.524514
    90      4.956124     -9.302254     -8.204250
    91      4.752572     -1.001077      9.763344
    92      4.305424     -2.743892      9.446395
    93      5.852506     -1.082802     11.394368
    94      6.472828      5.251471     10.186259
    95      6.063976      5.483239     11.966027
    96      7.487909      3.671373      9.973619
    97     -3.608364      8.633507      7.606956
    98     -4.203722      7.442288      8.896171
    99     -1.790362      8.307166      7.507438
   100     -6.077781     -7.082833      6.039359
   101     -5.633769     -6.635781      4.193814
   102     -6.523389     -5.376515      6.525457
   103     -5.349726    -10.928016     -8.363750
   104     -6.036475    -12.383859     -9.392504
   105     -3.665266    -11.519891     -7.611295
   106      7.853178     -6.529074     10.593880
   107      7.875725     -7.556535      9.008619
   108      6.514770     -7.401762     11.763065
   109     -6.914498      8.234916    -11.604406
   110     -8.293379      7.566826    -10.392369
   111     -7.999194      9.164469    -12.817126
   112     -4.392665     -7.185672      0.292783
   113     -3.318540     -8.552012      0.753672
   114     -5.401106     -8.086153     -0.965389
   115     10.423098      1.112416      8.865130
   116     11.989178      1.138392     10.115279
   117     10.109251     -0.752268      8.716413
   118      9.556963     -3.870892      4.848400
   119      9.636781     -4.902995      6.354903
   120      8.224324     -2.714180      5.168170
   121      1.342546    -11.573501     10.123355
   122     -0.265474    -10.803468      9.622646
   123      1.988196    -12.850642      8.896715
   124      9.732188     -0.406762      0.461401
   125     10.169588      0.776558      1.809199
   126     10.561428      0.337006     -1.062251
   127     -3.014081      3.695125    -11.434731
   128     -1.568870      3.127718    -12.492318
   129     -2.368416      3.383848     -9.701603
   130     -7.807967      1.526600     11.011496
   131     -6.108647      2.145616     11.366232
   132     -7.556854      0.621765      9.289142
   133     10.493292      3.243322     -6.302006
   134     10.411747      1.620591     -7.091152
   135     11.760467      3.017012     -5.081230
   136      2.855964      7.533726      7.129022
   137      3.380877      8.834606      5.820842
   138      4.353782      7.165675      7.995339
   139     -0.779576      2.286074     -6.809728
   140      0.488872      1.016682     -6.651751
   141     -2.531933      1.444820     -6.606724
   142      1.939632     -5.505381      9.089911
   143      2.508904     -7.054144      9.968577
   144      0.789703     -4.841212     10.572335
   145      0.546734     -5.731288     -7.503947
   146      0.356982     -6.302484     -5.704412
   147      1.785300     -6.994577     -8.210189
   148     -8.500958     -3.092690     -9.742377
   149     -7.010504     -4.202318    -10.142308
   150     -8.154971     -1.533964    -10.642630
   151      4.441918      6.486370     -8.312455
   152      2.585918      6.593445     -8.739551
   153      4.827417      6.128886     -6.465974
   154     10.223428      9.678557      8.976324
   155      9.404318     10.292339     10.566761
   156     10.284377      7.863377      9.246534
   157      6.465284     -9.566944     -1.670724
   158      6.153013     -8.689932     -0.019196
   159      7.379760    -11.128463     -1.233313
   160      5.610812     -6.469596      1.888381
   161      6.775656     -6.141761      3.255722
   162      3.904427     -6.456896      2.625003
   163    -10.735464     -8.704334      3.823279
   164    -11.066174     -7.756260      2.327462
   165     -9.302054     -7.796052      4.533682
   166     -6.984239      7.463717     -0.866394
   167     -7.944469      7.824296     -2.460210
   168     -7.366676      8.922348      0.277468
   169     -3.121899     -9.781742      9.268717
   170     -4.172534    -11.326811      8.838935
   171     -3.701811     -8.524411      8.044043
   172     -7.676971     10.240265      3.679459
   173     -8.150098     12.053818      3.648048
   174     -6.492226      9.919257      5.008957
   175      0.113482    -10.769082      1.131836
   176     -0.860925    -12.344557      0.687070
   177      0.648588    -10.048226     -0.536136
 
  MM charges 
  ---------- 
     1     -0.674440
     2      0.337220
     3      0.337220
     4     -0.674440
     5      0.337220
     6      0.337220
     7     -0.674440
     8      0.337220
     9      0.337220
    10     -0.674440
    11      0.337220
    12      0.337220
    13     -0.674440
    14      0.337220
    15      0.337220
    16     -0.674440
    17      0.337220
    18      0.337220
    19     -0.674440
    20      0.337220
    21      0.337220
    22     -0.674440
    23      0.337220
    24      0.337220
    25     -0.674440
    26      0.337220
    27      0.337220
    28     -0.674440
    29      0.337220
    30      0.337220
    31     -0.674440
    32      0.337220
    33      0.337220
    34     -0.674440
    35      0.337220
    36      0.337220
    37     -0.674440
    38      0.337220
    39      0.337220
    40     -0.674440
    41      0.337220
    42      0.337220
    43     -0.674440
    44      0.337220
    45      0.337220
    46     -0.674440
    47      0.337220
    48      0.337220
    49     -0.674440
    50      0.337220
    51      0.337220
    52     -0.674440
    53      0.337220
    54      0.337220
    55     -0.674440
    56      0.337220
    57      0.337220
    58     -0.674440
    59      0.337220
    60      0.337220
    61     -0.674440
    62      0.337220
    63      0.337220
    64     -0.674440
    65      0.337220
    66      0.337220
    67     -0.674440
    68      0.337220
    69      0.337220
    70     -0.674440
    71      0.337220
    72      0.337220
    73     -0.674440
    74      0.337220
    75      0.337220
    76     -0.674440
    77      0.337220
    78      0.337220
    79     -0.674440
    80      0.337220
    81      0.337220
    82     -0.674440
    83      0.337220
    84      0.337220
    85     -0.674440
    86      0.337220
    87      0.337220
    88     -0.674440
    89      0.337220
    90      0.337220
    91     -0.674440
    92      0.337220
    93      0.337220
    94     -0.674440
    95      0.337220
    96      0.337220
    97     -0.674440
    98      0.337220
    99      0.337220
   100     -0.674440
   101      0.337220
   102      0.337220
   103     -0.674440
   104      0.337220
   105      0.337220
   106     -0.674440
   107      0.337220
   108      0.337220
   109     -0.674440
   110      0.337220
   111      0.337220
   112     -0.674440
   113      0.337220
   114      0.337220
   115     -0.674440
   116      0.337220
   117      0.337220
   118     -0.674440
   119      0.337220
   120      0.337220
   121     -0.674440
   122      0.337220
   123      0.337220
   124     -0.674440
   125      0.337220
   126      0.337220
   127     -0.674440
   128      0.337220
   129      0.337220
   130     -0.674440
   131      0.337220
   132      0.337220
   133     -0.674440
   134      0.337220
   135      0.337220
   136     -0.674440
   137      0.337220
   138      0.337220
   139     -0.674440
   140      0.337220
   141      0.337220
   142     -0.674440
   143      0.337220
   144      0.337220
   145     -0.674440
   146      0.337220
   147      0.337220
   148     -0.674440
   149      0.337220
   150      0.337220
   151     -0.674440
   152      0.337220
   153      0.337220
   154     -0.674440
   155      0.337220
   156      0.337220
   157     -0.674440
   158      0.337220
   159      0.337220
   160     -0.674440
   161      0.337220
   162      0.337220
   163     -0.674440
   164      0.337220
   165      0.337220
   166     -0.674440
   167      0.337220
   168      0.337220
   169     -0.674440
   170      0.337220
   171      0.337220
   172     -0.674440
   173      0.337220
   174      0.337220
   175     -0.674440
   176      0.337220
   177      0.337220
 
  MM isotropic polarizabilities in au 
  ----------------------------------- 
     1      5.739350
     2      2.308390
     3      2.308390
     4      5.739350
     5      2.308390
     6      2.308390
     7      5.739350
     8      2.308390
     9      2.308390
    10      5.739350
    11      2.308390
    12      2.308390
    13      5.739350
    14      2.308390
    15      2.308390
    16      5.739350
    17      2.308390
    18      2.308390
    19      5.739350
    20      2.308390
    21      2.308390
    22      5.739350
    23      2.308390
    24      2.308390
    25      5.739350
    26      2.308390
    27      2.308390
    28      5.739350
    29      2.308390
    30      2.308390
    31      5.739350
    32      2.308390
    33      2.308390
    34      5.739350
    35      2.308390
    36      2.308390
    37      5.739350
    38      2.308390
    39      2.308390
    40      5.739350
    41      2.308390
    42      2.308390
    43      5.739350
    44      2.308390
    45      2.308390
    46      5.739350
    47      2.308390
    48      2.308390
    49      5.739350
    50      2.308390
    51      2.308390
    52      5.739350
    53      2.308390
    54      2.308390
    55      5.739350
    56      2.308390
    57      2.308390
    58      5.739350
    59      2.308390
    60      2.308390
    61      5.739350
    62      2.308390
    63      2.308390
    64      5.739350
    65      2.308390
    66      2.308390
    67      5.739350
    68      2.308390
    69      2.308390
    70      5.739350
    71      2.308390
    72      2.308390
    73      5.739350
    74      2.308390
    75      2.308390
    76      5.739350
    77      2.308390
    78      2.308390
    79      5.739350
    80      2.308390
    81      2.308390
    82      5.739350
    83      2.308390
    84      2.308390
    85      5.739350
    86      2.308390
    87      2.308390
    88      5.739350
    89      2.308390
    90      2.308390
    91      5.739350
    92      2.308390
    93      2.308390
    94      5.739350
    95      2.308390
    96      2.308390
    97      5.739350
    98      2.308390
    99      2.308390
   100      5.739350
   101      2.308390
   102      2.308390
   103      5.739350
   104      2.308390
   105      2.308390
   106      5.739350
   107      2.308390
   108      2.308390
   109      5.739350
   110      2.308390
   111      2.308390
   112      5.739350
   113      2.308390
   114      2.308390
   115      5.739350
   116      2.308390
   117      2.308390
   118      5.739350
   119      2.308390
   120      2.308390
   121      5.739350
   122      2.308390
   123      2.308390
   124      5.739350
   125      2.308390
   126      2.308390
   127      5.739350
   128      2.308390
   129      2.308390
   130      5.739350
   131      2.308390
   132      2.308390
   133      5.739350
   134      2.308390
   135      2.308390
   136      5.739350
   137      2.308390
   138      2.308390
   139      5.739350
   140      2.308390
   141      2.308390
   142      5.739350
   143      2.308390
   144      2.308390
   145      5.739350
   146      2.308390
   147      2.308390
   148      5.739350
   149      2.308390
   150      2.308390
   151      5.739350
   152      2.308390
   153      2.308390
   154      5.739350
   155      2.308390
   156      2.308390
   157      5.739350
   158      2.308390
   159      2.308390
   160      5.739350
   161      2.308390
   162      2.308390
   163      5.739350
   164      2.308390
   165      2.308390
   166      5.739350
   167      2.308390
   168      2.308390
   169      5.739350
   170      2.308390
   171      2.308390
   172      5.739350
   173      2.308390
   174      2.308390
   175      5.739350
   176      2.308390
   177      2.308390


     ************************************************************************
     ************************** Output from HERINT **************************
     ************************************************************************



                      Nuclear contribution to dipole moments
                      --------------------------------------

                 au               Debye          C m (/(10**-30)

      x     10.77939088        27.39847697        91.39148180
      y    -19.69624879       -50.06286765      -166.99175150
      z     -1.47747670        -3.75537095       -12.52656913


  Time used in HUCKEL     is       0.25 seconds
  Time used in OVERLAP    is       0.33 seconds
  Time used in POPOVLP    is       0.24 seconds
  Time used in DIPLEN     is       1.54 seconds
  Time used in QUADRUP    is       0.45 seconds
  Time used in KINENE     is       0.23 seconds

 Threshold for neglecting two-electron integrals:  1.00D-12
 HERMIT - Number of two-electron integrals written:    35879303 ( 41.2% )
 HERMIT - Megabytes written:                            410.835

  Time used in TWOINT     is      16.86 seconds
  Total CPU  time used in HERMIT:  19.98 seconds
  Total wall time used in HERMIT:   7.41 seconds


                        .----------------------------------.
                        | End of Integral Section (HERMIT) |
                        `----------------------------------'



                   .--------------------------------------------.
                   | Starting in Wave Function Section (SIRIUS) |
                   `--------------------------------------------'

NCCEXCI for singlet:   15
 CCSD_INPUT: core-val requested
 Requested number of core orbs per sym
                     1
 Indices of requested core orbs
                     1

 *** Output from Huckel module :

     Using EWMO model:          T
     Using EHT  model:          F
     Number of Huckel orbitals each symmetry:   37

 EWMO - Energy Weighted Maximum Overlap - is a Huckel type method,
        which normally is better than Extended Huckel Theory.
 Reference: Linderberg and Ohrn, Propagators in Quantum Chemistry (Wiley, 1973)

 Huckel EWMO eigenvalues for symmetry :  1
          -20.685014     -20.684705     -20.684618     -20.684208     -15.674850
           -1.808221      -1.626532      -1.604831      -1.585225      -1.475425
           -0.828174      -0.803373      -0.792863      -0.775292      -0.764161
           -0.751769      -0.710855      -0.692467      -0.679449      -0.670325
           -0.661954      -0.613089      -0.589334      -0.571071      -0.538834
           -0.260574      -0.245121      -0.239241      -0.235422      -0.186241
           -0.184564      -0.175637      -0.171355      -0.169547      -0.157767
           -0.154111      -0.139582

 **********************************************************************
 *SIRIUS* a direct, restricted step, second order MCSCF program       *
 **********************************************************************

 
     Date and time (Linux)  : Mon Dec 10 00:56:25 2018
     Host name              : n-62-24-1                               

 Title lines from ".mol" input file:
                                                                             
                                                                             

 Print level on unit LUPRI =   2 is   0
 Print level on unit LUW4  =   2 is  11

@    (Integral direct) CC calculation.

@    This is a combination run starting with
@              a restricted, closed shell Hartree-Fock calculation


 Initial molecular orbitals are obtained according to
 ".MOSTART EWMO  " input option

@    QM part is embedded in an environment :

@         Model: QMMM

     Wave function specification
     ============================

     For the specification of the Coupled Cluster: see later.

@    Wave function type        --- CC ---
@    Number of closed shell electrons          50
@    Number of electrons in active shells       0
@    Total charge of the molecule               1

@    Spin multiplicity and 2 M_S                1         0
@    Total number of symmetries                 1 (point group: C1 )
@    Reference state symmetry                   1 (irrep name : A  )

     Orbital specifications
     ======================
@    Abelian symmetry species          All |    1
@                                          |  A  
                                       --- |  ---
@    Occupied SCF orbitals              25 |   25
@    Secondary orbitals                137 |  137
@    Total number of orbitals          162 |  162
@    Number of basis functions         162 |  162

     Optimization information
     ========================
@    Number of configurations                 1
@    Number of orbital rotations           3425
     ------------------------------------------
@    Total number of variables             3426

     Maximum number of Fock   iterations      0
     Maximum number of DIIS   iterations     60
     Maximum number of QC-SCF iterations     60
     Threshold for SCF convergence     1.00D-07


 Changes of defaults for CC:
 ---------------------------


 -Implicit frozen core calculation
 -Excitation energies calculated
 -One-photon absorption strengths will be calculated
 -Oscillator strengths calculated
  
* Read MO coefficients from SIRIUS.RST with label "NEWORB  " and header info: 10Dec18  REORTHO 


 ***********************************************
 ***** DIIS acceleration of SCF iterations *****
 ***********************************************

 C1-DIIS algorithm; max error vectors =    8
 -----------------------------------------------------------------------------

 *** DIIS iteration number    1
 RDSUPM called. NFMAT, ISYMDM(1:NFMAT)                     1
                     1

Calculating AOSUPINT
     (Precalculated two-electron integrals are transformed to P-supermatrix elements.
      Threshold for discarding integrals :  1.00D-12 )
  CPU  time used in FORMSUP    is   7.69 seconds
  WALL time used in FORMSUP    is   9.05 seconds

 ITDIIS, energy, error norm, change in energy, scr.thr., difden:
@ DIIS iter.   1    -360.200988013        3.98237D+00   -3.60D+02  -20    F

 (DIIS_RED) Control Parameters C2DIIS =         F NEVC =    1


 (DIIS_RED) B matrix:

               Column   1
       1      15.85929043
    ==== End of matrix output ====

 DIIS C vector; C2DIIS = F, LAMBDA = -1.59D+01
    1.000000
* Read MO coefficients from SIRIUS.RST with label "NEWORB  " and header info: 10Dec18  DIIS   1
      Virial theorem: -V/T =      2.003041
@      MULPOP N       0.10; H       0.17; H       0.16; H       0.19; H       0.15; O      -0.61; O      -0.57; O      -0.62; O      -0.63; H       0.34; 
@             H       0.32; H       0.33; H       0.33; H       0.33; H       0.33; H       0.33; H       0.33; 
   1  Level shift: doubly occupied orbital energies shifted by -2.00D-01

 DIIS Fock eigenvalues in symmetry 1
      -20.87782      -20.81219      -20.80894      -20.79777      -16.45337
       -1.71989       -1.69184       -1.63330       -1.62747       -1.62580
       -1.21190       -1.18202       -1.17605       -1.07474       -1.02849
       -1.00055       -0.99659       -0.92578       -0.89599       -0.89401
       -0.87108       -0.86872       -0.84102       -0.83834       -0.83076
       -0.01969        0.04857        0.06120        0.07065        0.10772
        0.11442        0.15189        0.16148        0.16955        0.18194
        0.19448        0.19913        0.26526        0.29166        0.30558
        0.42544        0.43226        0.45653        0.46264        0.47380
        0.49631        0.49977        0.52265        0.52763        0.65577
        0.68803        0.69491        0.82725        0.85671        0.86387
        0.89592        0.89991        0.93368        0.97240        0.98296
        0.98624        1.01677        1.02387        1.03239        1.03928
        1.09413        1.10717        1.20107        1.23501        1.26552
        1.29903        1.32481        1.34171        1.35165        1.36877
        1.39546        1.40360        1.42473        1.48026        1.50429
        1.54140        1.55945        1.58884        1.60929        1.63595
        1.69246        1.71692        1.74262        1.75821        1.79040
        1.80634        1.88899        1.91973        2.04286        2.05833
        2.10068        2.12323        2.12987        2.13407        2.16866
        2.20099        2.21845        2.22759        2.25693        2.36687
        2.47157        2.47976        2.50198        2.54868        2.56492
        2.56735        2.59867        2.62212        2.65092        2.66352
        2.69807        2.73047        2.78177        2.94461        2.98385
        3.02527        3.15338        3.29612        3.30506        3.33282
        3.35684        3.35924        3.39853        3.42160        3.43424
        3.51307        3.51911        3.52737        3.56769        3.82840
        3.88132        3.89749        3.93826        4.05957        4.07936
        4.09955        4.13701        4.59166        4.63201        4.79922
        5.25409        5.28251        5.29883        5.33680        5.64143
        5.64855        5.69078        5.72398        5.89458        6.00763
        6.03353        6.07410       36.32033       51.43491       51.43902
       51.47269       51.48084
 Time used in FCKEIG, thr_jaco:   4.69D-01  4.70D-02  1.70D-04
 CPU and wall times used in FCKEIG, THR_FCKEIG:   4.69D-01  4.70D-02  3.98D-02
 -----------------------------------------------------------------------------

 *** DIIS iteration number    2
 RDSUPM called. NFMAT, ISYMDM(1:NFMAT)                     1
                     1

 ITDIIS, energy, error norm, change in energy, scr.thr., difden:
@ DIIS iter.   2    -361.095353605        1.12101D+00   -8.94D-01  -20    F

 (DIIS_RED) Control Parameters C2DIIS =         F NEVC =    2


 (DIIS_RED) B matrix:

               Column   1     Column   2
       1      15.85929043
       2       0.79048457     1.25665822
    ==== End of matrix output ====

 DIIS C vector; C2DIIS = F, LAMBDA = -1.24D+00
    0.030008    0.969992
* Read MO coefficients from SIRIUS.RST with label "NEWORB  " and header info: 10Dec18  DIIS   2
      Virial theorem: -V/T =      2.002428
@      MULPOP N      -0.54; H       0.33; H       0.30; H       0.36; H       0.33; O      -0.56; O      -0.56; O      -0.58; O      -0.58; H       0.30; 
@             H       0.31; H       0.33; H       0.32; H       0.32; H       0.30; H       0.30; H       0.32; 
   2  Level shift: doubly occupied orbital energies shifted by -1.00D-01

 DIIS Fock eigenvalues in symmetry 1
      -20.79135      -20.77679      -20.75843      -20.75403      -15.64600
       -1.57331       -1.52287       -1.52272       -1.52096       -1.37656
       -0.94292       -0.90491       -0.89842       -0.87543       -0.87339
       -0.86532       -0.83813       -0.80136       -0.79235       -0.76819
       -0.76169       -0.72790       -0.71438       -0.70720       -0.69916
        0.04984        0.09439        0.10936        0.12099        0.15183
        0.16882        0.18876        0.20234        0.21166        0.22708
        0.25925        0.28695        0.33559        0.38081        0.39557
        0.46522        0.47426        0.49780        0.50658        0.51491
        0.53711        0.55169        0.56526        0.60685        0.78144
        0.82379        0.83352        0.87547        0.90895        0.91223
        0.93626        0.95163        0.97766        0.99561        1.01003
        1.02346        1.04667        1.06141        1.07671        1.15486
        1.17961        1.21632        1.25413        1.27775        1.32738
        1.35011        1.37247        1.40985        1.41415        1.42841
        1.45568        1.46329        1.50005        1.53622        1.58250
        1.61734        1.64217        1.66735        1.69939        1.73129
        1.78025        1.79181        1.81309        1.84000        1.85450
        1.89116        1.99100        2.02592        2.09131        2.15295
        2.15894        2.17826        2.20091        2.24586        2.25386
        2.26572        2.28646        2.33370        2.36329        2.47849
        2.53922        2.58163        2.59587        2.64178        2.65045
        2.68530        2.69384        2.72433        2.73723        2.76303
        2.79623        2.91908        2.96008        3.11520        3.22349
        3.26549        3.33046        3.34459        3.35917        3.37560
        3.37851        3.39655        3.45714        3.46111        3.48743
        3.53561        3.55031        3.58060        3.59251        3.84482
        3.91530        3.92895        3.96636        4.09765        4.10731
        4.11657        4.15529        4.96527        5.01073        5.17988
        5.25357        5.29087        5.33233        5.34027        5.64061
        5.64832        5.70442        5.72995        5.90091        6.01891
        6.07248        6.09710       37.01195       51.37094       51.42102
       51.42815       51.43328
 Time used in FCKEIG, thr_jaco:   3.32D-01  3.40D-02  4.79D-05
 CPU and wall times used in FCKEIG, THR_FCKEIG:   3.32D-01  3.40D-02  1.12D-02
 -----------------------------------------------------------------------------

 *** DIIS iteration number    3
 RDSUPM called. NFMAT, ISYMDM(1:NFMAT)                     1
                     1

 ITDIIS, energy, error norm, change in energy, scr.thr., difden:
@ DIIS iter.   3    -361.169116249        3.76608D-01   -7.38D-02  -20    F

 (DIIS_RED) Control Parameters C2DIIS =         F NEVC =    3


 (DIIS_RED) B matrix:

               Column   1     Column   2     Column   3
       1      15.85929043
       2       0.79048457     1.25665822
       3       0.79516829    -0.00274845     0.14183378
    ==== End of matrix output ====

 DIIS C vector; C2DIIS = F, LAMBDA = -9.60D-02
   -0.046381    0.107601    0.938780
* Read MO coefficients from SIRIUS.RST with label "NEWORB  " and header info: 10Dec18  DIIS   3
      Virial theorem: -V/T =      2.003275
@      MULPOP N      -0.35; H       0.30; H       0.24; H       0.33; H       0.29; O      -0.62; O      -0.62; O      -0.63; O      -0.64; H       0.32; 
@             H       0.34; H       0.36; H       0.33; H       0.34; H       0.32; H       0.32; H       0.35; 
   3  Level shift: doubly occupied orbital energies shifted by -5.00D-02

 DIIS Fock eigenvalues in symmetry 1
      -20.70383      -20.68696      -20.67414      -20.66533      -15.80995
       -1.50448       -1.45968       -1.45663       -1.45306       -1.38132
       -0.88059       -0.87422       -0.84319       -0.83755       -0.83157
       -0.80657       -0.80251       -0.73204       -0.72550       -0.69855
       -0.69500       -0.66269       -0.64230       -0.63818       -0.62837
        0.05350        0.09995        0.11393        0.12557        0.15487
        0.17051        0.19202        0.20632        0.21481        0.22671
        0.25846        0.28730        0.33309        0.37732        0.39505
        0.47548        0.48360        0.50585        0.51623        0.52450
        0.54588        0.55956        0.57576        0.60494        0.77503
        0.81155        0.81626        0.88938        0.91101        0.92211
        0.94013        0.96228        0.99042        1.00820        1.02100
        1.03672        1.05915        1.07266        1.08815        1.15071
        1.18134        1.21096        1.25674        1.28451        1.33445
        1.36341        1.38430        1.42274        1.42597        1.44094
        1.46578        1.47488        1.50837        1.54723        1.58961
        1.62605        1.64783        1.67374        1.70662        1.73534
        1.78726        1.79800        1.82299        1.84630        1.86439
        1.89131        1.99242        2.02616        2.10498        2.16274
        2.17481        2.19213        2.20918        2.24418        2.26680
        2.27738        2.30117        2.34007        2.36034        2.48316
        2.54959        2.59193        2.59888        2.65376        2.65842
        2.68774        2.70186        2.72821        2.73778        2.77262
        2.78999        2.89370        2.93362        3.10658        3.18310
        3.23165        3.34942        3.35511        3.37759        3.38301
        3.40020        3.40666        3.47462        3.48149        3.48692
        3.55943        3.57118        3.60124        3.61712        3.86766
        3.94019        3.95309        3.98704        4.12504        4.13031
        4.14103        4.18212        4.88441        4.92723        5.09761
        5.27900        5.31394        5.35774        5.36509        5.66807
        5.67291        5.73440        5.75981        5.93010        6.05080
        6.10350        6.12193       36.80420       51.41086       51.46196
       51.46341       51.46815
 Time used in FCKEIG, thr_jaco:   2.94D-01  3.00D-02  1.61D-05
 CPU and wall times used in FCKEIG, THR_FCKEIG:   2.94D-01  3.00D-02  3.77D-03
 -----------------------------------------------------------------------------

 *** DIIS iteration number    4
 RDSUPM called. NFMAT, ISYMDM(1:NFMAT)                     1
                     1

 ITDIIS, energy, error norm, change in energy, scr.thr., difden:
@ DIIS iter.   4    -361.179292766        9.40886D-02   -1.02D-02  -20    F

 (DIIS_RED) Control Parameters C2DIIS =         F NEVC =    4


 (DIIS_RED) B matrix:

               Column   1     Column   2     Column   3     Column   4
       1      15.85929043
       2       0.79048457     1.25665822
       3       0.79516829    -0.00274845     0.14183378
       4       0.05337612     0.08060681     0.00341294     0.00885266
    ==== End of matrix output ====

 DIIS C vector; C2DIIS = F, LAMBDA = -4.19D-03
   -0.000320   -0.064463    0.004560    1.060222
* Read MO coefficients from SIRIUS.RST with label "NEWORB  " and header info: 10Dec18  DIIS   4
      Virial theorem: -V/T =      2.003087
@      MULPOP N      -0.42; H       0.32; H       0.26; H       0.35; H       0.31; O      -0.63; O      -0.63; O      -0.64; O      -0.66; H       0.33; 
@             H       0.35; H       0.36; H       0.34; H       0.35; H       0.33; H       0.33; H       0.36; 
   4  Level shift: doubly occupied orbital energies shifted by -1.25D-02

 DIIS Fock eigenvalues in symmetry 1
      -20.68163      -20.66065      -20.64608      -20.64071      -15.73645
       -1.47200       -1.42628       -1.42376       -1.41968       -1.33108
       -0.84058       -0.83206       -0.80380       -0.79656       -0.78481
       -0.77221       -0.76499       -0.69597       -0.69066       -0.66277
       -0.65862       -0.62448       -0.60520       -0.60027       -0.59034
        0.05413        0.09886        0.11369        0.12547        0.15521
        0.17132        0.19243        0.20687        0.21495        0.22880
        0.26208        0.29103        0.33862        0.38247        0.39990
        0.47501        0.48335        0.50574        0.51606        0.52376
        0.54346        0.55918        0.57451        0.60902        0.78068
        0.81819        0.82350        0.88946        0.91355        0.92407
        0.94222        0.96345        0.99014        1.00693        1.02054
        1.03670        1.05784        1.07191        1.08782        1.15563
        1.18378        1.21460        1.25834        1.28504        1.33591
        1.36293        1.38228        1.42212        1.42483        1.44074
        1.46601        1.47231        1.50910        1.54607        1.59066
        1.62656        1.64979        1.67444        1.70912        1.73861
        1.78776        1.79915        1.82350        1.84687        1.86406
        1.89464        1.99728        2.03090        2.10152        2.16394
        2.17255        2.18981        2.20906        2.24977        2.26494
        2.27584        2.29782        2.34203        2.36530        2.48627
        2.54746        2.59202        2.60083        2.65417        2.66228
        2.69194        2.70235        2.73214        2.73960        2.77105
        2.79388        2.90318        2.94270        3.11407        3.19603
        3.24236        3.34798        3.35737        3.37555        3.38552
        3.39725        3.40498        3.47263        3.47922        3.48801
        3.55628        3.56874        3.59876        3.61464        3.86428
        3.93701        3.94935        3.98423        4.12115        4.12744
        4.13795        4.17932        4.90260        4.94562        5.11678
        5.27387        5.30953        5.35251        5.35943        5.66317
        5.66835        5.72839        5.75355        5.92390        6.04442
        6.09584        6.11675       36.83971       51.39995       51.44781
       51.45393       51.45518
 Time used in FCKEIG, thr_jaco:   2.85D-01  2.90D-02  4.02D-06
 CPU and wall times used in FCKEIG, THR_FCKEIG:   2.86D-01  2.90D-02  9.41D-04
 -----------------------------------------------------------------------------

 *** DIIS iteration number    5
 RDSUPM called. NFMAT, ISYMDM(1:NFMAT)                     1
                     1

 ITDIIS, energy, error norm, change in energy, scr.thr., difden:
@ DIIS iter.   5    -361.180283858        2.72914D-02   -9.91D-04  -20    F

 (DIIS_RED) Control Parameters C2DIIS =         F NEVC =    5


 (DIIS_RED) B matrix:

               Column   1     Column   2     Column   3     Column   4     Column   5
       1      15.85929043
       2       0.79048457     1.25665822
       3       0.79516829    -0.00274845     0.14183378
       4       0.05337612     0.08060681     0.00341294     0.00885266
       5       0.01998653     0.00647131     0.00539467     0.00080102     0.00074482
    ==== End of matrix output ====

 DIIS C vector; C2DIIS = F, LAMBDA = -5.19D-04
    0.001166   -0.009902   -0.042072    0.069135    0.981674
* Read MO coefficients from SIRIUS.RST with label "NEWORB  " and header info: 10Dec18  DIIS   5
      Virial theorem: -V/T =      2.002802
@      MULPOP N      -0.41; H       0.31; H       0.25; H       0.35; H       0.31; O      -0.64; O      -0.64; O      -0.65; O      -0.67; H       0.34; 
@             H       0.36; H       0.37; H       0.34; H       0.35; H       0.33; H       0.33; H       0.36; 

 DIIS Fock eigenvalues in symmetry 1
      -20.65982      -20.64344      -20.62909      -20.62176      -15.72157
       -1.45620       -1.41225       -1.40956       -1.40491       -1.31750
       -0.82577       -0.81867       -0.79047       -0.78254       -0.77100
       -0.75846       -0.75115       -0.68056       -0.67704       -0.64853
       -0.64482       -0.60859       -0.59021       -0.58540       -0.57490
        0.05453        0.09907        0.11393        0.12577        0.15549
        0.17162        0.19283        0.20718        0.21527        0.22921
        0.26268        0.29187        0.33939        0.38330        0.40067
        0.47556        0.48400        0.50616        0.51661        0.52441
        0.54358        0.55965        0.57498        0.60979        0.78194
        0.81931        0.82435        0.89090        0.91472        0.92555
        0.94362        0.96491        0.99171        1.00786        1.02158
        1.03813        1.05922        1.07327        1.08913        1.15664
        1.18482        1.21570        1.25927        1.28601        1.33698
        1.36415        1.38274        1.42282        1.42528        1.44150
        1.46685        1.47242        1.50996        1.54637        1.59108
        1.62713        1.65049        1.67491        1.70985        1.73943
        1.78793        1.79960        1.82404        1.84703        1.86421
        1.89521        1.99816        2.03188        2.10178        2.16507
        2.17342        2.19034        2.21003        2.25061        2.26562
        2.27657        2.29811        2.34295        2.36615        2.48701
        2.54736        2.59236        2.60126        2.65451        2.66327
        2.69246        2.70255        2.73269        2.73995        2.77088
        2.79426        2.90405        2.94366        3.11508        3.19726
        3.24382        3.34969        3.35985        3.37747        3.38772
        3.39908        3.40726        3.47558        3.48089        3.49010
        3.55796        3.57035        3.60196        3.61694        3.86601
        3.93939        3.95255        3.98574        4.12447        4.12945
        4.13979        4.18181        4.90430        4.94729        5.11820
        5.27683        5.31236        5.35707        5.36378        5.66577
        5.67094        5.73253        5.75790        5.92630        6.04770
        6.10063        6.11896       36.84205       51.40462       51.45608
       51.45865       51.46217
 Time used in FCKEIG, thr_jaco:   2.56D-01  2.60D-02  1.17D-06
 CPU and wall times used in FCKEIG, THR_FCKEIG:   2.58D-01  2.60D-02  2.73D-04
 -----------------------------------------------------------------------------

 *** DIIS iteration number    6
 RDSUPM called. NFMAT, ISYMDM(1:NFMAT)                     1
                     1

 ITDIIS, energy, error norm, change in energy, scr.thr., difden:
@ DIIS iter.   6    -361.180361250        1.02305D-02   -7.74D-05  -20    F

 (DIIS_RED) Control Parameters C2DIIS =         F NEVC =    6


 (DIIS_RED) B matrix:

               Column   1     Column   2     Column   3     Column   4     Column   5     Column   6
       1      15.85929043
       2       0.79048457     1.25665822
       3       0.79516829    -0.00274845     0.14183378
       4       0.05337612     0.08060681     0.00341294     0.00885266
       5       0.01998653     0.00647131     0.00539467     0.00080102     0.00074482
       6      -0.00478196    -0.00023630     0.00069580     0.00046285     0.00002087     0.00010466
    ==== End of matrix output ====

 DIIS C vector; C2DIIS = F, LAMBDA = -3.47D-05
    0.000755    0.006780   -0.011613   -0.122777    0.156395    0.970461
* Read MO coefficients from SIRIUS.RST with label "NEWORB  " and header info: 10Dec18  DIIS   6
      Virial theorem: -V/T =      2.003022
@      MULPOP N      -0.41; H       0.31; H       0.25; H       0.35; H       0.31; O      -0.64; O      -0.64; O      -0.65; O      -0.67; H       0.34; 
@             H       0.36; H       0.37; H       0.34; H       0.36; H       0.33; H       0.33; H       0.37; 

 DIIS Fock eigenvalues in symmetry 1
      -20.66293      -20.64490      -20.63056      -20.62388      -15.72337
       -1.45710       -1.41267       -1.40992       -1.40553       -1.31798
       -0.82666       -0.81922       -0.79103       -0.78305       -0.77140
       -0.75897       -0.75165       -0.68152       -0.67770       -0.64939
       -0.64539       -0.60924       -0.59036       -0.58558       -0.57524
        0.05443        0.09891        0.11378        0.12562        0.15538
        0.17150        0.19270        0.20707        0.21514        0.22911
        0.26257        0.29168        0.33928        0.38311        0.40055
        0.47535        0.48375        0.50593        0.51636        0.52415
        0.54333        0.55942        0.57469        0.60964        0.78157
        0.81897        0.82404        0.89067        0.91445        0.92521
        0.94326        0.96464        0.99127        1.00752        1.02120
        1.03783        1.05878        1.07283        1.08882        1.15644
        1.18456        1.21534        1.25900        1.28577        1.33667
        1.36374        1.38245        1.42247        1.42496        1.44114
        1.46648        1.47212        1.50962        1.54609        1.59083
        1.62686        1.65025        1.67461        1.70965        1.73922
        1.78766        1.79940        1.82380        1.84679        1.86390
        1.89505        1.99801        2.03171        2.10136        2.16462
        2.17287        2.18988        2.20958        2.25041        2.26520
        2.27616        2.29768        2.34261        2.36590        2.48678
        2.54705        2.59201        2.60095        2.65425        2.66323
        2.69229        2.70228        2.73253        2.73963        2.77061
        2.79389        2.90362        2.94323        3.11490        3.19668
        3.24320        3.34916        3.35903        3.37691        3.38695
        3.39853        3.40652        3.47460        3.48029        3.48934
        3.55745        3.56982        3.60095        3.61618        3.86550
        3.93856        3.95146        3.98516        4.12341        4.12875
        4.13925        4.18099        4.90337        4.94642        5.11730
        5.27605        5.31156        5.35568        5.36244        5.66496
        5.67010        5.73116        5.75647        5.92547        6.04651
        6.09896        6.11810       36.84028       51.40317       51.45339
       51.45714       51.45975
 Time used in FCKEIG, thr_jaco:   2.53D-01  2.50D-02  4.37D-07
 CPU and wall times used in FCKEIG, THR_FCKEIG:   2.53D-01  2.50D-02  1.02D-04
 -----------------------------------------------------------------------------

 *** DIIS iteration number    7
 RDSUPM called. NFMAT, ISYMDM(1:NFMAT)                     1
                     1

 ITDIIS, energy, error norm, change in energy, scr.thr., difden:
@ DIIS iter.   7    -361.180371834        2.28394D-03   -1.06D-05  -20    F

 (DIIS_RED) Control Parameters C2DIIS =         F NEVC =    7


 (DIIS_RED) B matrix:

               Column   1     Column   2     Column   3     Column   4     Column   5     Column   6
       1      15.85929043
       2       0.79048457     1.25665822
       3       0.79516829    -0.00274845     0.14183378
       4       0.05337612     0.08060681     0.00341294     0.00885266
       5       0.01998653     0.00647131     0.00539467     0.00080102     0.00074482
       6      -0.00478196    -0.00023630     0.00069580     0.00046285     0.00002087     0.00010466
       7       0.00032317     0.00020568    -0.00000677     0.00001165     0.00004304     0.00000002

               Column   7
       7       0.00000522
    ==== End of matrix output ====

 DIIS C vector; C2DIIS = F, LAMBDA = -1.18D-06
   -0.000241   -0.000943    0.005941    0.023349   -0.118499   -0.121239    1.211633
* Read MO coefficients from SIRIUS.RST with label "NEWORB  " and header info: 10Dec18  DIIS   7
      Virial theorem: -V/T =      2.002962
@      MULPOP N      -0.41; H       0.31; H       0.25; H       0.35; H       0.31; O      -0.64; O      -0.64; O      -0.65; O      -0.67; H       0.34; 
@             H       0.36; H       0.37; H       0.34; H       0.36; H       0.33; H       0.33; H       0.37; 

 DIIS Fock eigenvalues in symmetry 1
      -20.66246      -20.64468      -20.63038      -20.62358      -15.72298
       -1.45690       -1.41257       -1.40979       -1.40538       -1.31778
       -0.82652       -0.81907       -0.79098       -0.78289       -0.77126
       -0.75888       -0.75153       -0.68139       -0.67770       -0.64936
       -0.64538       -0.60902       -0.59018       -0.58542       -0.57502
        0.05449        0.09894        0.11382        0.12566        0.15542
        0.17154        0.19274        0.20711        0.21518        0.22916
        0.26265        0.29177        0.33939        0.38322        0.40065
        0.47542        0.48382        0.50597        0.51641        0.52421
        0.54335        0.55947        0.57472        0.60975        0.78170
        0.81910        0.82416        0.89076        0.91454        0.92532
        0.94337        0.96475        0.99138        1.00760        1.02129
        1.03793        1.05887        1.07292        1.08891        1.15655
        1.18466        1.21548        1.25910        1.28588        1.33676
        1.36383        1.38249        1.42251        1.42500        1.44120
        1.46656        1.47213        1.50970        1.54611        1.59090
        1.62692        1.65033        1.67467        1.70973        1.73931
        1.78770        1.79945        1.82386        1.84683        1.86392
        1.89514        1.99813        2.03183        2.10139        2.16472
        2.17292        2.18990        2.20965        2.25053        2.26525
        2.27622        2.29771        2.34269        2.36601        2.48686
        2.54706        2.59204        2.60100        2.65429        2.66332
        2.69237        2.70231        2.73261        2.73969        2.77062
        2.79396        2.90378        2.94339        3.11504        3.19688
        3.24339        3.34926        3.35921        3.37704        3.38713
        3.39865        3.40667        3.47479        3.48039        3.48950
        3.55758        3.56992        3.60115        3.61633        3.86560
        3.93869        3.95165        3.98525        4.12361        4.12888
        4.13938        4.18114        4.90362        4.94667        5.11756
        5.27621        5.31171        5.35593        5.36268        5.66510
        5.67023        5.73139        5.75670        5.92561        6.04668
        6.09923        6.11821       36.84065       51.40338       51.45379
       51.45733       51.46009
 Time used in FCKEIG, thr_jaco:   2.58D-01  2.60D-02  9.76D-08
 CPU and wall times used in FCKEIG, THR_FCKEIG:   2.58D-01  2.60D-02  2.28D-05
 -----------------------------------------------------------------------------

 *** DIIS iteration number    8
 RDSUPM called. NFMAT, ISYMDM(1:NFMAT)                     1
                     1

 ITDIIS, energy, error norm, change in energy, scr.thr., difden:
@ DIIS iter.   8    -361.180372420        3.52491D-04   -5.86D-07  -20    F

 (DIIS_RED) Control Parameters C2DIIS =         F NEVC =    8


 (DIIS_RED) B matrix:

               Column   1     Column   2     Column   3     Column   4     Column   5     Column   6
       1      15.85929043
       2       0.79048457     1.25665822
       3       0.79516829    -0.00274845     0.14183378
       4       0.05337612     0.08060681     0.00341294     0.00885266
       5       0.01998653     0.00647131     0.00539467     0.00080102     0.00074482
       6      -0.00478196    -0.00023630     0.00069580     0.00046285     0.00002087     0.00010466
       7       0.00032317     0.00020568    -0.00000677     0.00001165     0.00004304     0.00000002
       8       0.00007737    -0.00003813     0.00000698     0.00000184     0.00000033     0.00000161

               Column   7     Column   8
       7       0.00000522
       8       0.00000034     0.00000012
    ==== End of matrix output ====

 DIIS C vector; C2DIIS = F, LAMBDA = -5.17D-08
    0.000022    0.000100   -0.001006   -0.002437    0.023478   -0.004726   -0.266222    1.250790
* Read MO coefficients from SIRIUS.RST with label "NEWORB  " and header info: 10Dec18  DIIS   8
      Virial theorem: -V/T =      2.002978
@      MULPOP N      -0.41; H       0.31; H       0.25; H       0.35; H       0.31; O      -0.64; O      -0.64; O      -0.65; O      -0.67; H       0.34; 
@             H       0.36; H       0.37; H       0.34; H       0.36; H       0.33; H       0.33; H       0.37; 

 DIIS Fock eigenvalues in symmetry 1
      -20.66248      -20.64470      -20.63037      -20.62361      -15.72301
       -1.45690       -1.41256       -1.40979       -1.40539       -1.31778
       -0.82651       -0.81907       -0.79097       -0.78290       -0.77126
       -0.75888       -0.75153       -0.68141       -0.67773       -0.64939
       -0.64539       -0.60902       -0.59017       -0.58541       -0.57502
        0.05449        0.09894        0.11381        0.12565        0.15542
        0.17154        0.19274        0.20710        0.21518        0.22917
        0.26265        0.29176        0.33939        0.38322        0.40065
        0.47542        0.48382        0.50597        0.51641        0.52420
        0.54334        0.55947        0.57471        0.60975        0.78170
        0.81909        0.82416        0.89075        0.91454        0.92531
        0.94336        0.96475        0.99138        1.00761        1.02128
        1.03793        1.05887        1.07292        1.08890        1.15655
        1.18466        1.21548        1.25910        1.28588        1.33676
        1.36382        1.38249        1.42251        1.42499        1.44119
        1.46655        1.47213        1.50969        1.54611        1.59089
        1.62692        1.65032        1.67466        1.70972        1.73931
        1.78770        1.79946        1.82386        1.84683        1.86391
        1.89513        1.99813        2.03183        2.10138        2.16472
        2.17291        2.18990        2.20965        2.25052        2.26524
        2.27621        2.29771        2.34268        2.36600        2.48686
        2.54705        2.59203        2.60100        2.65428        2.66333
        2.69237        2.70231        2.73261        2.73968        2.77062
        2.79395        2.90377        2.94338        3.11503        3.19686
        3.24338        3.34926        3.35920        3.37703        3.38712
        3.39865        3.40666        3.47478        3.48039        3.48949
        3.55757        3.56992        3.60114        3.61631        3.86560
        3.93868        3.95164        3.98525        4.12360        4.12888
        4.13938        4.18113        4.90361        4.94666        5.11755
        5.27620        5.31171        5.35592        5.36267        5.66509
        5.67023        5.73137        5.75669        5.92559        6.04667
        6.09922        6.11822       36.84063       51.40337       51.45378
       51.45734       51.46007
 Time used in FCKEIG, thr_jaco:   2.59D-01  2.60D-02  1.51D-08
 CPU and wall times used in FCKEIG, THR_FCKEIG:   2.59D-01  2.60D-02  3.52D-06
 -----------------------------------------------------------------------------

 *** DIIS iteration number    9
 RDSUPM called. NFMAT, ISYMDM(1:NFMAT)                     1
                     1

 ITDIIS, energy, error norm, change in energy, scr.thr., difden:
@ DIIS iter.   9    -361.180372437        7.39391D-05   -1.75D-08  -20    F

 (DIIS_RED) Control Parameters C2DIIS =         F NEVC =    8


 (DIIS_RED) B matrix:

[...]

 Principal values of diagonalized transition strength matrix:

             a.u.               
 1      -0.00000001
 2      -0.00000000
 3       0.00049982

 Principal axis of diagonalized transition strength matrix:


               Column   1     Column   2     Column   3
       1       0.94715429     0.21938702     0.23402581
       2      -0.30157242     0.36034404     0.88272660
       3      -0.10932895     0.90665402    -0.40746248
    ==== End of matrix output ====


 CCSD   oscillator strength matrix for state nr. 13 of symmetry 1
 CCSD  excitation energy:15.19890664


               Column   1     Column   2     Column   3
       1       0.00027731     0.00104625    -0.00048293
       2       0.00104625     0.00394628    -0.00182159
       3      -0.00048293    -0.00182159     0.00084084
    ==== End of matrix output ====

 Principal values of diagonalized oscillator strength matrix:

             a.u.               
 1      -0.00000007
 2      -0.00000000
 3       0.00506450

 Principal axis of diagonalized oscillator strength matrix:


               Column   1     Column   2     Column   3
       1       0.94715429     0.21938702     0.23402581
       2      -0.30157242     0.36034404     0.88272660
       3      -0.10932895     0.90665402    -0.40746248
    ==== End of matrix output ====


 CCSD  Transition strength matrix for state nr. 14 of symmetry 1
 CCSD  excitation energy:15.21164645

 Gauge: length

               Column   1     Column   2     Column   3
       1     3.407774D-04   4.270677D-05   1.343379D-04
       2     4.270677D-05   5.347995D-06   1.683451D-05
       3     1.343379D-04   1.683451D-05   5.295712D-05
    ==== End of matrix output ====

 Principal values of diagonalized transition strength matrix:

             a.u.               
 1      -0.00000000
 2       0.00000000
 3       0.00039909

 Principal axis of diagonalized transition strength matrix:


               Column   1     Column   2     Column   3
       1      -0.18216719    -0.33603798     0.92406363
       2       0.97123556    -0.20806519     0.11580311
       3       0.15335124     0.91857899     0.36427468
    ==== End of matrix output ====


 CCSD   oscillator strength matrix for state nr. 14 of symmetry 1
 CCSD  excitation energy:15.21164645


               Column   1     Column   2     Column   3
       1       0.00345586     0.00043309     0.00136233
       2       0.00043309     0.00005423     0.00017072
       3       0.00136233     0.00017072     0.00053704
    ==== End of matrix output ====

 Principal values of diagonalized oscillator strength matrix:

             a.u.               
 1      -0.00000004
 2       0.00000000
 3       0.00404718

 Principal axis of diagonalized oscillator strength matrix:


               Column   1     Column   2     Column   3
       1      -0.18216719    -0.33603798     0.92406363
       2       0.97123556    -0.20806519     0.11580311
       3       0.15335124     0.91857899     0.36427468
    ==== End of matrix output ====


 CCSD  Transition strength matrix for state nr. 15 of symmetry 1
 CCSD  excitation energy:15.23557678

 Gauge: length

               Column   1     Column   2     Column   3
       1     2.965904D-05   4.234349D-05  -7.034789D-05
       2     4.234349D-05   6.045275D-05  -1.004338D-04
       3    -7.034789D-05  -1.004338D-04   1.668562D-04
    ==== End of matrix output ====

 Principal values of diagonalized transition strength matrix:

             a.u.               
 1      -0.00000000
 2      -0.00000000
 3       0.00025697

 Principal axis of diagonalized transition strength matrix:


               Column   1     Column   2     Column   3
       1       0.57605428     0.74346624    -0.33973434
       2       0.56995151    -0.66325049    -0.48502997
       3       0.58593237    -0.08577149     0.80580799
    ==== End of matrix output ====


 CCSD   oscillator strength matrix for state nr. 15 of symmetry 1
 CCSD  excitation energy:15.23557678


               Column   1     Column   2     Column   3
       1       0.00030125     0.00043009    -0.00071453
       2       0.00043009     0.00061402    -0.00102011
       3      -0.00071453    -0.00102011     0.00169477
    ==== End of matrix output ====

 Principal values of diagonalized oscillator strength matrix:

             a.u.               
 1      -0.00000000
 2      -0.00000000
 3       0.00261004

 Principal axis of diagonalized oscillator strength matrix:


               Column   1     Column   2     Column   3
       1       0.57605428     0.74346624    -0.33973434
       2       0.56995151    -0.66325049    -0.48502997
       3       0.58593237    -0.08577149     0.80580799
    ==== End of matrix output ====

  Total time for    135 linear response residues:     332.12 seconds.
  

 *******************************************************************************
 *******************************************************************************
 *                                                                             *
 *                                                                             *
 *                   SUMMARY OF COUPLED CLUSTER CALCULATION                    *
 *                                                                             *
 *                                                                             *
 *******************************************************************************
 *******************************************************************************

                                                                                
                                                                                
            Total SCF   energy:                  -361.1803724378                
            Total MP2   energy:                  -362.2874339003                
            Total CCSD  energy:                  -362.3286727707                
                                                                                
                                                                                
            Total SCF   energy:                  -361.1803724378                
            Total RSTAR energy:                  -362.3286727707                
            Total CCSD  energy:                  -362.3288082480                
                                                                                
                                                                                
            Total SCF   energy:                  -361.1803724378                
            Total RSTAR energy:                  -362.3288082480                
            Total CCSD  energy:                  -362.3288095499                
                                                                                
                                                                                
            Total SCF   energy:                  -361.1803724378                
            Total RSTAR energy:                  -362.3288095499                
            Total CCSD  energy:                  -362.3288096585                
                                                                                
                                                                                
            Total SCF   energy:                  -361.1803724378                
            Total RSTAR energy:                  -362.3288096585                
            Total CCSD  energy:                  -362.3288096629                
                                                                                
                                                                                
            Total SCF   energy:                  -361.1803724378                
            Total RSTAR energy:                  -362.3288096629                
            Total CCSD  energy:                  -362.3288096630                
            CCSD Total  energy:                  -362.7384702541                
            CCSD E(QM/MM)     :                    -0.4054006107                
                                                                                
                                                                                
                                                                                
 +=============================================================================+
 |  sym. | Exci.  |        CCSD       Excitation energies            | ||T1||  |
 |(spin, |        +------------------------------------------------------------+
 | spat) |        |     Hartree    |       eV.      |     cm-1       |    %    |
 +=============================================================================+
 | ^1A   |    1   |    14.9133538  |     405.81300  |   3273102.792  |  88.34  |
 | ^1A   |    2   |    14.9533904  |     406.90245  |   3281889.808  |  88.61  |
 | ^1A   |    3   |    14.9983010  |     408.12453  |   3291746.557  |  88.72  |
 | ^1A   |    4   |    15.0103312  |     408.45189  |   3294386.872  |  88.70  |
 | ^1A   |    5   |    15.0630849  |     409.88739  |   3305964.981  |  87.79  |
 | ^1A   |    6   |    15.0871492  |     410.54221  |   3311246.482  |  87.76  |
 | ^1A   |    7   |    15.1028066  |     410.96827  |   3314682.882  |  87.74  |
 | ^1A   |    8   |    15.1148587  |     411.29623  |   3317328.017  |  87.77  |
 | ^1A   |    9   |    15.1203738  |     411.44630  |   3318538.437  |  88.00  |
 | ^1A   |   10   |    15.1497524  |     412.24573  |   3324986.291  |  87.73  |
 | ^1A   |   11   |    15.1736673  |     412.89649  |   3330235.005  |  87.83  |
 | ^1A   |   12   |    15.1868501  |     413.25521  |   3333128.305  |  87.78  |
 | ^1A   |   13   |    15.1989066  |     413.58329  |   3335774.402  |  87.89  |
 | ^1A   |   14   |    15.2116464  |     413.92996  |   3338570.465  |  88.00  |
 | ^1A   |   15   |    15.2355768  |     414.58113  |   3343822.566  |  87.90  |
 +=============================================================================+
                                                                                
                                                                                
     Total energies in Hartree:                                                 
             1 ^1A       -347.4197158668                                        
             2 ^1A       -347.3796792788                                        
             3 ^1A       -347.3347686245                                        
             4 ^1A       -347.3227384631                                        
             5 ^1A       -347.2699847157                                        
             6 ^1A       -347.2459204290                                        
             7 ^1A       -347.2302630376                                        
             8 ^1A       -347.2182109131                                        
             9 ^1A       -347.2126958336                                        
            10 ^1A       -347.1833172507                                        
            11 ^1A       -347.1594023490                                        
            12 ^1A       -347.1462195040                                        
            13 ^1A       -347.1341630020                                        
            14 ^1A       -347.1214231977                                        
            15 ^1A       -347.0974928656                                        
                                                                                
                                                                                
 +=============================================================================+
 |  sym. | Exci.  |        CCSD       Length   Gauge Oscillator Strength       |
 |(spin, |        +------------------------------------------------------------+
 | spat) |        | Dipole Strength(a.u.) | Oscillator strength  | Direction   |
 +=============================================================================+
 | ^1A   |    1   |        0.0008744      |      0.0086932       |  (Y,Z)      |
 | ^1A   |    2   |        0.0033831      |      0.0337260       |  (Y,Z)      |
 | ^1A   |    3   |        0.0038873      |      0.0388691       |  (Y,Z)      |
 | ^1A   |    4   |        0.0034145      |      0.0341686       |  (Y,Z)      |
 | ^1A   |    5   |        0.0001717      |      0.0017242       |  (Y,Z)      |
 | ^1A   |    6   |        0.0002834      |      0.0028508       |  (Y,Z)      |
 | ^1A   |    7   |        0.0005365      |      0.0054021       |  (Y,Z)      |
 | ^1A   |    8   |        0.0000599      |      0.0006034       |  (Y,Z)      |
 | ^1A   |    9   |        0.0003202      |      0.0032275       |  (Y,Z)      |
 | ^1A   |   10   |        0.0004028      |      0.0040684       |  (Y,Z)      |
 | ^1A   |   11   |        0.0002352      |      0.0023788       |  (Y,Z)      |
 | ^1A   |   12   |        0.0001843      |      0.0018657       |  (Y,Z)      |
 | ^1A   |   13   |        0.0004998      |      0.0050644       |  (Y,Z)      |
 | ^1A   |   14   |        0.0003991      |      0.0040471       |  (Y,Z)      |
 | ^1A   |   15   |        0.0002570      |      0.0026100       |  (Y,Z)      |
 +=============================================================================+

  1 a.u. =        27.21138 eV.  
  1 a.u. =    219474.62934 cm-1.
  

 *******************************************************************************
 *******************************************************************************
 *                                                                             *
 *                                                                             *
 *                      END OF COUPLED CLUSTER CALCULATION                     *
 *                                                                             *
 *                                                                             *
 *******************************************************************************
 *******************************************************************************


 CPU and wall time for CC :  671773.666  109856.660

 
     Date and time (Linux)  : Tue Dec 11 07:29:50 2018
     Host name              : n-62-24-1                               


                      .-------------------------------------.
                      | End of Coupled Cluster Section (CC) |
                      `-------------------------------------'

  Total CPU  time used in DALTON: 186 hours 51 minutes 21 seconds
  Total wall time used in DALTON:  30 hours 33 minutes 33 seconds

 
     Date and time (Linux)  : Tue Dec 11 07:29:50 2018
     Host name              : n-62-24-1                               
  

 +---------------------------------------------------------+ 
 | List of selected calculated molecular properties (a.u.) | 
 +---------------------------------------------------------+ 

  Properties are read from unit number                      4

 CCSD       properties :
 #  1 1 CCSD/MM  Ground state Energy =    -362.7384702541
 #  2 1 E_QM/MM  Ground state Energy =      -0.4054006107
 #  3 1 Sy: 1 Sp: 1 Exc:  1 E_tot:   -347.4197158668 w:     14.9133537766 E_grs:   -362.3330696434
 #  4 1 Exctot   Excited state Energy =    -347.4197158668
 #  5 1 Sy: 1 Sp: 1 Exc:  2 E_tot:   -347.3796792788 w:     14.9533903646 E_grs:   -362.3330696434
 #  6 1 Exctot   Excited state Energy =    -347.3796792788
 #  7 1 Sy: 1 Sp: 1 Exc:  3 E_tot:   -347.3347686245 w:     14.9983010189 E_grs:   -362.3330696434
 #  8 1 Exctot   Excited state Energy =    -347.3347686245
 #  9 1 Sy: 1 Sp: 1 Exc:  4 E_tot:   -347.3227384631 w:     15.0103311804 E_grs:   -362.3330696434
 # 10 1 Exctot   Excited state Energy =    -347.3227384631
 # 11 1 Sy: 1 Sp: 1 Exc:  5 E_tot:   -347.2699847157 w:     15.0630849277 E_grs:   -362.3330696434
 # 12 1 Exctot   Excited state Energy =    -347.2699847157
 # 13 1 Sy: 1 Sp: 1 Exc:  6 E_tot:   -347.2459204290 w:     15.0871492145 E_grs:   -362.3330696434
 # 14 1 Exctot   Excited state Energy =    -347.2459204290
 # 15 1 Sy: 1 Sp: 1 Exc:  7 E_tot:   -347.2302630376 w:     15.1028066059 E_grs:   -362.3330696434
 # 16 1 Exctot   Excited state Energy =    -347.2302630376
 # 17 1 Sy: 1 Sp: 1 Exc:  8 E_tot:   -347.2182109131 w:     15.1148587303 E_grs:   -362.3330696434
 # 18 1 Exctot   Excited state Energy =    -347.2182109131
 # 19 1 Sy: 1 Sp: 1 Exc:  9 E_tot:   -347.2126958336 w:     15.1203738098 E_grs:   -362.3330696434
 # 20 1 Exctot   Excited state Energy =    -347.2126958336
 # 21 1 Sy: 1 Sp: 1 Exc: 10 E_tot:   -347.1833172507 w:     15.1497523928 E_grs:   -362.3330696434
 # 22 1 Exctot   Excited state Energy =    -347.1833172507
 # 23 1 Sy: 1 Sp: 1 Exc: 11 E_tot:   -347.1594023490 w:     15.1736672945 E_grs:   -362.3330696434
 # 24 1 Exctot   Excited state Energy =    -347.1594023490
 # 25 1 Sy: 1 Sp: 1 Exc: 12 E_tot:   -347.1462195040 w:     15.1868501395 E_grs:   -362.3330696434
 # 26 1 Exctot   Excited state Energy =    -347.1462195040
 # 27 1 Sy: 1 Sp: 1 Exc: 13 E_tot:   -347.1341630020 w:     15.1989066414 E_grs:   -362.3330696434
 # 28 1 Exctot   Excited state Energy =    -347.1341630020
 # 29 1 Sy: 1 Sp: 1 Exc: 14 E_tot:   -347.1214231977 w:     15.2116464458 E_grs:   -362.3330696434
 # 30 1 Exctot   Excited state Energy =    -347.1214231977
 # 31 1 Sy: 1 Sp: 1 Exc: 15 E_tot:   -347.0974928656 w:     15.2355767779 E_grs:   -362.3330696434
 # 32 1 Exctot   Excited state Energy =    -347.0974928656
 # 33 1 |<O|XDIPLEN |i(14.913354)>| =     0.01364675
 # 35 1 |<O|XDIPLEN |i(14.953390)>| =     0.02582132
 # 37 1 |<O|XDIPLEN |i(14.998301)>| =     0.02104068
 # 39 1 |<O|XDIPLEN |i(15.010331)>| =     0.04885260
 # 41 1 |<O|XDIPLEN |i(15.063085)>| =     0.00944315
 # 43 1 |<O|XDIPLEN |i(15.087149)>| =     0.01621429
 # 45 1 |<O|XDIPLEN |i(15.102807)>| =     0.01430593
 # 47 1 |<O|XDIPLEN |i(15.114859)>| =     0.00673940
 # 49 1 |<O|XDIPLEN |i(15.120374)>| =     0.01777051
 # 51 1 |<O|XDIPLEN |i(15.149752)>| =     0.00773085
 # 53 1 |<O|XDIPLEN |i(15.173667)>| =     0.01086591
 # 55 1 |<O|XDIPLEN |i(15.186850)>| =     0.01254478
 # 57 1 |<O|XDIPLEN |i(15.198907)>| =     0.00523148
 # 59 1 |<O|XDIPLEN |i(15.211646)>| =     0.01846016
 # 61 1 |<O|XDIPLEN |i(15.235577)>| =     0.00544601
 # 63 1 |<O|YDIPLEN |i(14.913354)>| =     0.02468292
 # 65 1 |<O|YDIPLEN |i(14.953390)>| =     0.04958903
 # 67 1 |<O|YDIPLEN |i(14.998301)>| =     0.00135822
 # 69 1 |<O|YDIPLEN |i(15.010331)>| =     0.02557334
 # 71 1 |<O|YDIPLEN |i(15.063085)>| =     0.00837507
 # 73 1 |<O|YDIPLEN |i(15.087149)>| =     0.00027046
 # 75 1 |<O|YDIPLEN |i(15.102807)>| =     0.01123161
 # 77 1 |<O|YDIPLEN |i(15.114859)>| =     0.00315642
 # 79 1 |<O|YDIPLEN |i(15.120374)>| =     0.00131865
 # 81 1 |<O|YDIPLEN |i(15.149752)>| =     0.00741464
 # 83 1 |<O|YDIPLEN |i(15.173667)>| =     0.01038433
 # 85 1 |<O|YDIPLEN |i(15.186850)>| =     0.00044095
 # 87 1 |<O|YDIPLEN |i(15.198907)>| =     0.01973483
 # 89 1 |<O|YDIPLEN |i(15.211646)>| =     0.00231257
 # 91 1 |<O|YDIPLEN |i(15.235577)>| =     0.00777514
 # 93 1 |<O|ZDIPLEN |i(14.913354)>| =     0.00888199
 # 95 1 |<O|ZDIPLEN |i(14.953390)>| =     0.01604054
 # 97 1 |<O|ZDIPLEN |i(14.998301)>| =     0.05867532
 # 99 1 |<O|ZDIPLEN |i(15.010331)>| =     0.01933730
 #101 1 |<O|ZDIPLEN |i(15.063085)>| =     0.00351936
 #103 1 |<O|ZDIPLEN |i(15.087149)>| =     0.00452339
 #105 1 |<O|ZDIPLEN |i(15.102807)>| =     0.01434296
 #107 1 |<O|ZDIPLEN |i(15.114859)>| =     0.00212096
 #109 1 |<O|ZDIPLEN |i(15.120374)>| =     0.00162791
 #111 1 |<O|ZDIPLEN |i(15.149752)>| =     0.01697264
 #113 1 |<O|ZDIPLEN |i(15.173667)>| =     0.00304243
 #115 1 |<O|ZDIPLEN |i(15.186850)>| =     0.00516785
 #117 1 |<O|ZDIPLEN |i(15.198907)>| =     0.00910951
 #119 1 |<O|ZDIPLEN |i(15.211646)>| =     0.00727716
 #121 1 |<O|ZDIPLEN |i(15.235577)>| =     0.01291728

 THE_END   
