

     ************************************************************************
     *************** Dalton - An Electronic Structure Program ***************
     ************************************************************************

    This is output from DALTON release Dalton2017.alpha (2016)
         ( Web site: http://daltonprogram.org )

   ----------------------------------------------------------------------------

    NOTE:
     
    Dalton is an experimental code for the evaluation of molecular
    properties using (MC)SCF, DFT, CI, and CC wave functions.
    The authors accept no responsibility for the performance of
    the code or for the correctness of the results.
     
    The code (in whole or part) is provided under a licence and
    is not to be reproduced for further distribution without
    the written permission of the authors or their representatives.
     
    See the home page "http://daltonprogram.org" for further information.
     
    If results obtained with this code are published,
    the appropriate citations would be both of:
     
       K. Aidas, C. Angeli, K. L. Bak, V. Bakken, R. Bast,
       L. Boman, O. Christiansen, R. Cimiraglia, S. Coriani,
       P. Dahle, E. K. Dalskov, U. Ekstroem,
       T. Enevoldsen, J. J. Eriksen, P. Ettenhuber, B. Fernandez,
       L. Ferrighi, H. Fliegl, L. Frediani, K. Hald, A. Halkier,
       C. Haettig, H. Heiberg, T. Helgaker, A. C. Hennum,
       H. Hettema, E. Hjertenaes, S. Hoest, I.-M. Hoeyvik,
       M. F. Iozzi, B. Jansik, H. J. Aa. Jensen, D. Jonsson,
       P. Joergensen, J. Kauczor, S. Kirpekar,
       T. Kjaergaard, W. Klopper, S. Knecht, R. Kobayashi, H. Koch,
       J. Kongsted, A. Krapp, K. Kristensen, A. Ligabue,
       O. B. Lutnaes, J. I. Melo, K. V. Mikkelsen, R. H. Myhre,
       C. Neiss, C. B. Nielsen, P. Norman, J. Olsen,
       J. M. H. Olsen, A. Osted, M. J. Packer, F. Pawlowski,
       T. B. Pedersen, P. F. Provasi, S. Reine, Z. Rinkevicius,
       T. A. Ruden, K. Ruud, V. Rybkin, P. Salek, C. C. M. Samson,
       A. Sanchez de Meras, T. Saue, S. P. A. Sauer,
       B. Schimmelpfennig, K. Sneskov, A. H. Steindal,
       K. O. Sylvester-Hvid, P. R. Taylor, A. M. Teale,
       E. I. Tellgren, D. P. Tew, A. J. Thorvaldsen, L. Thoegersen,
       O. Vahtras, M. A. Watson, D. J. D. Wilson, M. Ziolkowski
       and H. Agren,
       "The Dalton quantum chemistry program system",
       WIREs Comput. Mol. Sci. 2014, 4:269–284 (doi: 10.1002/wcms.1172)
     
    and
     
       Dalton, a Molecular Electronic Structure Program,
       Release Dalton2017.alpha (2016), see http://daltonprogram.org
   ----------------------------------------------------------------------------

    Authors in alphabetical order (major contribution(s) in parenthesis):

  Kestutis Aidas,           Vilnius University,           Lithuania   (QM/MM)
  Celestino Angeli,         University of Ferrara,        Italy       (NEVPT2)
  Keld L. Bak,              UNI-C,                        Denmark     (AOSOPPA, non-adiabatic coupling, magnetic properties)
  Vebjoern Bakken,          University of Oslo,           Norway      (DALTON; geometry optimizer, symmetry detection)
  Radovan Bast,             UiT The Arctic U. of Norway,  Norway      (DALTON installation and execution frameworks)
  Pablo Baudin,             University of Valencia,       Spain       (Cholesky excitation energies)
  Linus Boman,              NTNU,                         Norway      (Cholesky decomposition and subsystems)
  Ove Christiansen,         Aarhus University,            Denmark     (CC module)
  Renzo Cimiraglia,         University of Ferrara,        Italy       (NEVPT2)
  Sonia Coriani,            University of Trieste,        Italy       (CC module, MCD in RESPONS)
  Janusz Cukras,            University of Trieste,        Italy       (MChD in RESPONS)
  Paal Dahle,               University of Oslo,           Norway      (Parallelization)
  Erik K. Dalskov,          UNI-C,                        Denmark     (SOPPA)
  Thomas Enevoldsen,        Univ. of Southern Denmark,    Denmark     (SOPPA)
  Janus J. Eriksen,         Aarhus University,            Denmark     (Polarizable embedding model, TDA)
  Rasmus Faber,             University of Copenhagen,     Denmark     (Vib.avg. NMR with SOPPA, parallel AO-SOPPA)
  Berta Fernandez,          U. of Santiago de Compostela, Spain       (doublet spin, ESR in RESPONS)
  Lara Ferrighi,            Aarhus University,            Denmark     (PCM Cubic response)
  Heike Fliegl,             University of Oslo,           Norway      (CCSD(R12))
  Luca Frediani,            UiT The Arctic U. of Norway,  Norway      (PCM)
  Bin Gao,                  UiT The Arctic U. of Norway,  Norway      (Gen1Int library)
  Christof Haettig,         Ruhr-University Bochum,       Germany     (CC module)
  Kasper Hald,              Aarhus University,            Denmark     (CC module)
  Asger Halkier,            Aarhus University,            Denmark     (CC module)
  Frederik Beyer Hansen,    University of Copenhagen,     Denmark     (Parallel AO-SOPPA)
  Erik D. Hedegaard,        Univ. of Southern Denmark,    Denmark     (Polarizable embedding model, QM/MM)
  Hanne Heiberg,            University of Oslo,           Norway      (geometry analysis, selected one-electron integrals)
  Trygve Helgaker,          University of Oslo,           Norway      (DALTON; ABACUS, ERI, DFT modules, London, and much more)
  Alf Christian Hennum,     University of Oslo,           Norway      (Parity violation)
  Hinne Hettema,            University of Auckland,       New Zealand (quadratic response in RESPONS; SIRIUS supersymmetry)
  Eirik Hjertenaes,         NTNU,                         Norway      (Cholesky decomposition)
  Pi A. B. Haase,           University of Copenhagen,     Denmark     (Triplet AO-SOPPA)
  Maria Francesca Iozzi,    University of Oslo,           Norway      (RPA)
  Brano Jansik              Technical Univ. of Ostrava    Czech Rep.  (DFT cubic response)
  Hans Joergen Aa. Jensen,  Univ. of Southern Denmark,    Denmark     (DALTON; SIRIUS, RESPONS, ABACUS modules, London, and much more)
  Dan Jonsson,              UiT The Arctic U. of Norway,  Norway      (cubic response in RESPONS module)
  Poul Joergensen,          Aarhus University,            Denmark     (RESPONS, ABACUS, and CC modules)
  Maciej Kaminski,          University of Warsaw,         Poland      (CPPh in RESPONS)
  Joanna Kauczor,           Linkoeping University,        Sweden      (Complex polarization propagator (CPP) module)
  Sheela Kirpekar,          Univ. of Southern Denmark,    Denmark     (Mass-velocity & Darwin integrals)
  Wim Klopper,              KIT Karlsruhe,                Germany     (R12 code in CC, SIRIUS, and ABACUS modules)
  Stefan Knecht,            ETH Zurich,                   Switzerland (Parallel CI and MCSCF)
  Rika Kobayashi,           Australian National Univ.,    Australia   (DIIS in CC, London in MCSCF)
  Henrik Koch,              NTNU,                         Norway      (CC module, Cholesky decomposition)
  Jacob Kongsted,           Univ. of Southern Denmark,    Denmark     (Polarizable embedding model, QM/MM)
  Andrea Ligabue,           University of Modena,         Italy       (CTOCD, AOSOPPA)
  Nanna H. List             Univ. of Southern Denmark,    Denmark     (Polarizable embedding model)
  Ola B. Lutnaes,           University of Oslo,           Norway      (DFT Hessian)
  Juan I. Melo,             University of Buenos Aires,   Argentina   (LRESC, Relativistic Effects on NMR Shieldings)
  Kurt V. Mikkelsen,        University of Copenhagen,     Denmark     (MC-SCRF and QM/MM)
  Rolf H. Myhre,            NTNU,                         Norway      (Cholesky, subsystems and ECC2)
  Christian Neiss,          Univ. Erlangen-Nuernberg,     Germany     (CCSD(R12))
  Christian B. Nielsen,     University of Copenhagen,     Denmark     (QM/MM)
  Patrick Norman,           Linkoeping University,        Sweden      (Cubic response and complex frequency response in RESPONS)
  Jeppe Olsen,              Aarhus University,            Denmark     (SIRIUS CI/density modules)
  Jogvan Magnus H. Olsen,   Univ. of Southern Denmark,    Denmark     (Polarizable embedding model, QM/MM)
  Anders Osted,             Copenhagen University,        Denmark     (QM/MM)
  Martin J. Packer,         University of Sheffield,      UK          (SOPPA)
  Filip Pawlowski,          Kazimierz Wielki University,  Poland      (CC3)
  Morten N. Pedersen,       Univ. of Southern Denmark,    Denmark     (Polarizable embedding model)
  Thomas B. Pedersen,       University of Oslo,           Norway      (Cholesky decomposition)
  Patricio F. Provasi,      University of Northeastern,   Argentina   (Analysis of coupling constants in localized orbitals)
  Zilvinas Rinkevicius,     KTH Stockholm,                Sweden      (open-shell DFT, ESR)
  Elias Rudberg,            KTH Stockholm,                Sweden      (DFT grid and basis info)
  Torgeir A. Ruden,         University of Oslo,           Norway      (Numerical derivatives in ABACUS)
  Kenneth Ruud,             UiT The Arctic U. of Norway,  Norway      (DALTON; ABACUS magnetic properties and much more)
  Pawel Salek,              KTH Stockholm,                Sweden      (DALTON; DFT code)
  Claire C. M. Samson       University of Karlsruhe       Germany     (Boys localization, r12 integrals in ERI)
  Alfredo Sanchez de Meras, University of Valencia,       Spain       (CC module, Cholesky decomposition)
  Trond Saue,               Paul Sabatier University,     France      (direct Fock matrix construction)
  Stephan P. A. Sauer,      University of Copenhagen,     Denmark     (SOPPA(CCSD), SOPPA prop., AOSOPPA, vibrational g-factors)
  Bernd Schimmelpfennig,    Forschungszentrum Karlsruhe,  Germany     (AMFI module)
  Kristian Sneskov,         Aarhus University,            Denmark     (Polarizable embedding model, QM/MM)
  Arnfinn H. Steindal,      UiT The Arctic U. of Norway,  Norway      (parallel QM/MM, Polarizable embedding model)
  Casper Steinmann,         Univ. of Southern Denmark,    Denmark     (QFIT, Polarizable embedding model)
  K. O. Sylvester-Hvid,     University of Copenhagen,     Denmark     (MC-SCRF)
  Peter R. Taylor,          VLSCI/Univ. of Melbourne,     Australia   (Symmetry handling ABACUS, integral transformation)
  Andrew M. Teale,          University of Nottingham,     England     (DFT-AC, DFT-D)
  David P. Tew,             University of Bristol,        England     (CCSD(R12))
  Olav Vahtras,             KTH Stockholm,                Sweden      (triplet response, spin-orbit, ESR, TDDFT, open-shell DFT)
  David J. Wilson,          La Trobe University,          Australia   (DFT Hessian and DFT magnetizabilities)
  Hans Agren,               KTH Stockholm,                Sweden      (SIRIUS module, RESPONS, MC-SCRF solvation model)
 --------------------------------------------------------------------------------

     Date and time (Linux)  : Sun Dec  2 13:29:41 2018
     Host name              : n-62-23-30                              

 * Work memory size             :  1280000000 =  9.537 gigabytes.

 * Directories for basis set searches:
   1) /zhome/37/3/129401/NH3NH4/CCSD/AIMD_SAMPLING/nh4_4h2o_nd
   2) /zhome/9a/4/124800/source/dalton/build-mlcc/basis


Compilation information
-----------------------

 Who compiled             | rfaber
 Host                     | hpclogin1
 System                   | Linux-2.6.32-696.1.1.el6.x86_64
 CMake generator          | Unix Makefiles
 Processor                | x86_64
 64-bit integers          | ON
 MPI                      | OFF
 Fortran compiler         | /opt/intel/2016update2/compilers_and_libraries_201
                          | 6.2.181/linux/bin/intel64/ifort
 Fortran compiler version | ifort (IFORT) 16.0.2 20160204
 C compiler               | /opt/intel/2016update2/compilers_and_libraries_201
                          | 6.2.181/linux/bin/intel64/icc
 C compiler version       | icc (ICC) 16.0.2 20160204
 C++ compiler             | /opt/intel/2016update2/compilers_and_libraries_201
                          | 6.2.181/linux/bin/intel64/icpc
 C++ compiler version     | icpc (ICC) 16.0.2 20160204
 Static linking           | OFF
 Last Git revision        | bb4d1599ca5680a9f3980451fc8bbefdba436d59
 Git branch               | mlcc
 Configuration time       | 2017-06-13 16:11:03.928841


   Content of the .dal input file
 ----------------------------------

**DALTON
.RUN WAVE FUNCTIONS
*QMMM
.QMMM
**INTEGRALS
.DIPLEN
**WAVE FUNCTIONS
.CC
*PRINT
!To check the origin of excit
.PRINTL
   0 11
*SCF INP
.THRESH
1.0D-7
*CC INP
.CCSD
.THRLEQ
 1.0D-9
.THRENR
 1.0D-10
.FROIMP
4
0
.PRINT
 1
.MAX IT
 1200
.MAXRED
 1200
.MXLRV
1199
*CCSLV
.CCMM
.MXSLIT
200
.MXINIT
4 5
*CCEXCI
.NCCEXC
 15
.CVSEPARA
1
1
*CCLRSD
.DIPOLE
**END OF DALTON INPUT


   Content of the .mol file
 ----------------------------

ATOMBASIS


Atomtypes=4 Charge=1 Nosymm Angstrom
   7.00000    1    Basis=6-311G**
N          0.000000        0.000000        0.000000
   1.00000    4    Basis=6-311G**
H         -0.828045       -0.157825        0.717812
H         -0.440224        0.324684       -0.946102
H          0.416959       -0.877615       -0.168664
H          0.662734        0.695568        0.230945
   8.00000    4    Basis=6-311G**
O          1.244781        2.426042        0.609841
O         -1.162309        0.658249       -2.479956
O         -2.293568       -0.059480        1.684967
O          1.412388       -2.230480        0.981671
   1.00000    8    Basis=6-311G**
H          0.434052        3.059584        0.900307
H          2.044868        2.948894        0.886857
H         -0.474360        0.174333       -2.998872
H         -1.893077        0.013863       -2.483744
H         -2.681341        0.800908        1.688762
H         -2.992156       -0.713413        1.758737
H          0.668928       -2.666956        1.428886
H          1.838083       -1.549770        1.606351


       *******************************************************************
       *********** Output from DALTON general input processing ***********
       *******************************************************************

 --------------------------------------------------------------------------------
   Overall default print level:    0
   Print level for DALTON.STAT:    1

    HERMIT 1- and 2-electron integral sections will be executed
    "Old" integral transformation used (limited to max 255 basis functions)
    Wave function sections will be executed (SIRIUS module)
 --------------------------------------------------------------------------------


 Changes of defaults for *QMMM  :
 --------------------------------

 +------------------+
 |  WORD: | CHANGE: |
 +------------------+
 |   QMMM |       T |
 +------------------+
 


   ****************************************************************************
   *************** Output of molecule and basis set information ***************
   ****************************************************************************


    The two title cards from your ".mol" input:
    ------------------------------------------------------------------------
 1:                                                                         
 2:                                                                         
    ------------------------------------------------------------------------

  Coordinates are entered in Angstrom and converted to atomic units.
          - Conversion factor : 1 bohr = 0.52917721 A

  Atomic type no.    1
  --------------------
  Nuclear charge:   7.00000
  Number of symmetry independent centers:    1
  Number of basis sets to read;    2
  The basis set is "6-311G**" from the basis set library.
  Basis set file used for this atomic type with Z =   7 :
     "/zhome/9a/4/124800/source/dalton/build-mlcc/basis/6-311G**"

  Info about the basis set file: your basis has no documentation.
  Basis set: 6-311G**                                                                        

  Atomic type no.    2
  --------------------
  Nuclear charge:   1.00000
  Number of symmetry independent centers:    4
  Number of basis sets to read;    2
  The basis set is "6-311G**" from the basis set library.
  Basis set file used for this atomic type with Z =   1 :
     "/zhome/9a/4/124800/source/dalton/build-mlcc/basis/6-311G**"

  Info about the basis set file: your basis has no documentation.
  Basis set: 6-311G**                                                                        

  Atomic type no.    3
  --------------------
  Nuclear charge:   8.00000
  Number of symmetry independent centers:    4
  Number of basis sets to read;    2
  The basis set is "6-311G**" from the basis set library.
  Basis set file used for this atomic type with Z =   8 :
     "/zhome/9a/4/124800/source/dalton/build-mlcc/basis/6-311G**"

  Info about the basis set file: your basis has no documentation.
  Basis set: 6-311G**                                                                        

  Atomic type no.    4
  --------------------
  Nuclear charge:   1.00000
  Number of symmetry independent centers:    8
  Number of basis sets to read;    2
  The basis set is "6-311G**" from the basis set library.
  Basis set file used for this atomic type with Z =   1 :
     "/zhome/9a/4/124800/source/dalton/build-mlcc/basis/6-311G**"

  Info about the basis set file: your basis has no documentation.
  Basis set: 6-311G**                                                                        


                         SYMGRP: Point group information
                         -------------------------------

@    Point group: C1 


                                 Isotopic Masses
                                 ---------------

                           N          14.003074
                           H           1.007825
                           H           1.007825
                           H           1.007825
                           H           1.007825
                           O          15.994915
                           O          15.994915
                           O          15.994915
                           O          15.994915
                           H           1.007825
                           H           1.007825
                           H           1.007825
                           H           1.007825
                           H           1.007825
                           H           1.007825
                           H           1.007825
                           H           1.007825

                       Total mass:    90.076634 amu
                       Natural abundance:  98.500 %

 Center-of-mass coordinates (a.u.):   -0.336593    0.309936    0.322703


  Atoms and basis sets
  --------------------

  Number of atom types :    4
  Total number of atoms:   17

  label    atoms   charge   prim   cont     basis
  ----------------------------------------------------------------------
  N           1    7.0000    31    18      [11s5p1d|4s3p1d]                                   
  H           4    1.0000     8     6      [5s1p|3s1p]                                        
  O           4    8.0000    31    18      [11s5p1d|4s3p1d]                                   
  H           8    1.0000     8     6      [5s1p|3s1p]                                        
  ----------------------------------------------------------------------
  total:     17   51.0000   251   162
  ----------------------------------------------------------------------
  Spherical harmonic basis used.

  Threshold for neglecting AO integrals:  1.00D-12


  Cartesian Coordinates (a.u.)
  ----------------------------

  Total number of coordinates:   51
  N       :     1  x   0.0000000000    2  y   0.0000000000    3  z   0.0000000000
  H       :     4  x  -1.5647782692    5  y  -0.2982460257    6  z   1.3564680892
  H       :     7  x  -0.8319027936    8  y   0.6135638372    9  z  -1.7878736663
  H       :    10  x   0.7879383154   11  y  -1.6584519932   12  z  -0.3187287671
  H       :    13  x   1.2523857537   14  y   1.3144330213   15  z   0.4364227999
  O       :    16  x   2.3522951756   17  y   4.5845549477   18  z   1.1524324698
  O       :    19  x  -2.1964456826   20  y   1.2439103321   21  z  -4.6864376420
  O       :    22  x  -4.3342153690   23  y  -0.1124009099   24  z   3.1841261597
  O       :    25  x   2.6690265022   26  y  -4.2149963273   27  z   1.8550893348
  H       :    28  x   0.8202394040   29  y   5.7817758164   30  z   1.7013336584
  H       :    31  x   3.8642404818   32  y   5.5726020316   33  z   1.6759168420
  H       :    34  x  -0.8964104847   35  y   0.3294416245   36  z  -5.6670467639
  H       :    37  x  -3.5773970635   38  y   0.0261972733   39  z  -4.6935959246
  H       :    40  x  -5.0670001377   41  y   1.5134967713   42  z   3.1912976703
  H       :    43  x  -5.6543553633   44  y  -1.3481551840   45  z   3.3235312559
  H       :    46  x   1.2640907173   47  y  -5.0398164274   48  z   2.7002032038
  H       :    49  x   3.4734734650   50  y  -2.9286408567   51  z   3.0355634506

  Max    interatomic separation is    6.2884 Angstrom (   11.8834 Bohr)
  between atoms   15 and   11, "H     " and "H     ".

  Min HX interatomic separation is    0.9437 Angstrom (    1.7834 Bohr)

  Min YX interatomic separation is    2.7941 Angstrom (    5.2801 Bohr)


  Bond distances (Angstrom):
  --------------------------

                  atom 1     atom 2       distance
                  ------     ------       --------
  bond distance:  H          N            1.107168
  bond distance:  H          N            1.092852
  bond distance:  H          N            0.986159
  bond distance:  H          N            0.988113
  bond distance:  H          O            1.069125
  bond distance:  H          O            0.995114
  bond distance:  H          O            0.988293
  bond distance:  H          O            0.974305
  bond distance:  H          O            0.943742
  bond distance:  H          O            0.959737
  bond distance:  H          O            0.971208
  bond distance:  H          O            1.017255


  Bond angles (degrees):
  ----------------------

                  atom 1     atom 2     atom 3         angle
                  ------     ------     ------         -----
  bond angle:     H          N          H            107.599
  bond angle:     H          N          H            107.472
  bond angle:     H          N          H            116.771
  bond angle:     H          N          H            106.657
  bond angle:     H          N          H            105.270
  bond angle:     H          N          H            112.510
  bond angle:     H          O          H            102.868
  bond angle:     H          O          H            101.316
  bond angle:     H          O          H            108.771
  bond angle:     H          O          H            109.774




 Principal moments of inertia (u*A**2) and principal axes
 --------------------------------------------------------

   IA     338.678372         -0.322848    0.700209   -0.636770
   IB     401.471589          0.869217    0.485560    0.093235
   IC     439.189946         -0.374474    0.523391    0.765396


 Rotational constants
 --------------------

               A                   B                   C

           1492.2093           1258.8164           1150.7071 MHz
            0.049775            0.041990            0.038383 cm-1


@  Nuclear repulsion energy :  201.352780194121 Hartree


                     .---------------------------------------.
                     | Starting in Integral Section (HERMIT) |
                     `---------------------------------------'



 ***************************************************************************************
 ****************** Output from **INTEGRALS input processing (HERMIT) ******************
 ***************************************************************************************



    *************************************************************************
    ****************** Output from HERMIT input processing ******************
    *************************************************************************


 Default print level:        1

 * Nuclear model: Point charge

 Calculation of one- and two-electron Hamiltonian integrals.

 The following one-electron property integrals are calculated as requested:
          - overlap integrals
          - dipole length integrals

 Center of mass  (bohr):     -0.336593329132      0.309936121206      0.322702601028
 Operator center (bohr):      0.000000000000      0.000000000000      0.000000000000
 Gauge origin    (bohr):      0.000000000000      0.000000000000      0.000000000000
 Dipole origin   (bohr):      0.000000000000      0.000000000000      0.000000000000
 
  *********************************** 
  QMMM electrostatic potential: 
  Multipole order                                    0
  Isotropic polarization  
  *********************************** 
 
  ---------------- 
  QMMM information 
  ---------------- 
 
  MM coordinates in au 
  -------------------- 
     1     -1.845576      6.649918     -4.204866
     2     -1.679562      4.869913     -4.973844
     3     -0.193807      7.431883     -4.384233
     4      7.152464      8.469159    -11.088136
     5      5.649106      7.403416    -10.766560
     6      8.622803      7.319382    -11.299529
     7      3.819314      3.776327     -3.901993
     8      3.095895      4.300493     -2.120460
     9      4.952012      2.271628     -3.736287
    10     -6.864339     -1.939228     -2.653767
    11     -6.823296     -2.513205     -0.913734
    12     -8.018210     -0.451085     -2.290265
    13      6.483586     10.340613     -2.204169
    14      6.301893      9.062030     -0.839688
    15      7.612450      9.407695     -3.427530
    16     -9.399749     -9.067418     -4.618164
    17     -8.355093     -7.694458     -5.055138
    18     -9.961916     -9.633366     -6.222046
    19      9.319241      8.490245     -5.825534
    20     11.115216      8.705560     -5.981068
    21      8.384418      9.309755     -7.204381
    22     -4.617245     -8.440524      0.818748
    23     -3.865920     -8.549612     -0.934056
    24     -4.779675    -10.100571      1.495703
    25      1.354747     -1.187332     -7.621897
    26      2.196434     -2.872531     -7.039262
    27      2.742645     -0.395968     -8.577945
    28      3.117899    -10.607617      4.106530
    29      4.591966     -9.405713      4.123849
    30      2.992841    -11.961896      5.483312
    31     -6.013910      4.413066     -8.615235
    32     -7.691006      3.559471     -8.747176
    33     -5.079684      3.144759     -7.716470
    34    -10.480757      1.406124     -1.819629
    35    -11.423226      1.559530     -0.206075
    36    -10.149519      3.151383     -2.503806
    37      8.935542     -9.356134     -6.117399
    38      9.266259     -7.770019     -7.035405
    39     10.351814     -9.556148     -4.988977
    40    -10.469776      1.090958     -7.335097
    41    -10.170825     -0.595506     -8.064533
    42    -11.059133      0.841512     -5.550141
    43     10.434204     -4.925388     -1.689944
    44     12.131292     -4.953046     -2.554422
    45     10.906842     -4.570501      0.073512
    46      6.521796      7.104869      2.315455
    47      5.700056      7.722719      3.908290
    48      8.188146      6.408698      2.792960
    49      3.961297     -9.767048    -10.387736
    50      2.293965     -9.595077     -9.813962
    51      4.901162    -10.333916     -8.925528
    52     -4.445539      8.925354     -0.091620
    53     -3.815019      7.815612     -1.451914
    54     -6.089310      9.619821     -0.453755
    55      9.603951      1.258818      2.729241
    56      7.767508      1.111146      2.935818
    57     10.639459      1.897916      4.122651
    58      2.341238     10.489773     -5.119380
    59      3.921934     10.416435     -4.034407
    60      2.666817      9.601657     -6.787688
    61     -9.362393      1.537360     10.818200
    62     -7.687077      1.111461     11.455936
    63    -10.074910     -0.217538     10.744314
    64     -0.299816      1.028999      7.366765
    65     -0.707944     -0.276873      8.763575
    66     -1.745759      0.625006      6.201280
    67      9.359795     -9.650650      0.423979
    68      9.581136     -8.156831     -0.823847
    69      8.360475    -10.984101     -0.361285
    70     -6.343465     10.411754     -7.255656
    71     -6.144223     10.905445     -5.456934
    72     -5.147100      9.005144     -7.506306
    73    -11.638349     -3.405560     10.883212
    74    -10.587941     -4.786279     10.308809
    75    -12.751534     -2.965887      9.426109
    76     -8.445759     -7.364658      9.090227
    77     -8.505500     -8.383012     10.596082
    78     -6.716355     -6.830863      8.810415
    79     -0.760681      9.435206      2.950860
    80      0.647851     10.562505      2.591039
    81     -2.183458      9.683042      1.668898
    82     -8.106815     -4.414028     -7.119919
    83     -9.957740     -4.416666     -7.257474
    84     -7.858271     -3.592526     -5.414579
    85      1.660345      5.165037      9.763251
    86      0.770547      3.747009      8.981298
    87      0.276531      6.125670     10.619839
    88      4.727193     -4.839347     -6.163693
    89      5.866834     -5.531449     -7.453339
    90      4.381311     -6.235057     -5.009624
    91     -1.086553     -2.607119     11.063375
    92     -1.328224     -4.329771     10.364966
    93     -0.072297     -2.731454     12.497401
    94     -2.672005      7.868891    -11.146412
    95     -3.520779      8.361573    -12.838125
    96     -3.590914      6.266840    -10.637123
    97     11.254254      9.582176      5.181117
    98     11.064520     10.289895      6.951441
    99     11.700816      7.812579      5.668536
   100     11.259616     -3.307671      3.741497
   101     10.224444     -4.517135      4.647218
   102     10.254865     -1.675807      3.661089
   103    -10.162446    -10.126022    -10.091729
   104    -11.065533    -11.393947    -11.085383
   105     -8.674083    -10.992805     -9.435087
   106      7.191602     -7.457334      9.534866
   107      6.025156     -8.319022     10.678937
   108      6.765994     -8.105776      7.860888
   109     10.083626    -11.621956     10.009545
   110      8.745443    -12.536634     10.903242
   111      9.406000     -9.806785     10.014222
   112     -7.267142     -4.028342      2.460703
   113     -6.617229     -5.746712      2.083890
   114     -8.999490     -4.055955      3.024454
   115      5.307398      1.514693    -10.755558
   116      6.484057      2.440861     -9.711338
   117      4.258069      2.772587    -11.533367
   118      7.304676     -2.392403      8.991239
   119      7.335053     -4.144521      9.565495
   120      6.833029     -1.566838     10.613620
   121     -4.026033      8.289716      7.503551
   122     -2.860743      9.165835      6.389795
   123     -5.388953      9.529749      7.412058
   124      4.695336     -0.596741      4.739924
   125      5.513318     -1.478257      6.297316
   126      3.330143      0.498684      5.436510
   127    -10.825317      4.431544      5.910037
   128     -9.315630      4.424686      4.850891
   129    -10.291307      3.942645      7.564508
   130     11.521416      5.554786    -10.531215
   131     11.692677      5.131427     -8.706873
   132     12.163033      4.029665    -11.305001
   133      7.298525     -0.692462     -3.951225
   134      6.919996     -2.521144     -4.008591
   135      8.464730     -0.441200     -2.518260
   136     -6.066197      4.945838      3.246774
   137     -5.713706      5.923541      1.628279
   138     -4.984073      5.769801      4.554506
   139     -5.468626     -1.081685    -10.398651
   140     -3.644860     -1.375571    -11.064129
   141     -6.173932     -2.566541     -9.536248
   142     -2.877524     -6.823121      9.088938
   143     -2.412902     -7.552736      7.471100
   144     -2.981665     -8.240368     10.372060
   145     -1.664510    -10.507168    -10.301337
   146     -1.881003    -12.373906    -10.075149
   147     -2.559846     -9.823853     -8.863050
   148      9.908807     -4.581868     -8.194648
   149      9.927311     -3.713457     -9.800995
   150      9.071585     -3.310349     -7.143900
   151      3.136401      6.403371     -8.311454
   152      1.271761      6.124795     -8.590241
   153      3.478139      5.648376     -6.582474
   154      4.496998      8.387177      6.741991
   155      3.377842      7.098244      7.632288
   156      5.693977      8.797635      8.130312
   157      3.325510     -7.827401     -2.402367
   158      3.361271     -6.555328     -1.085912
   159      4.158182     -9.248966     -1.629242
   160     -0.394656     -6.996732      4.442523
   161      0.958085     -8.265749      4.357548
   162     -1.566545     -7.517202      3.048928
   163      6.874962     -6.945556      3.976571
   164      5.978406     -5.491973      3.127805
   165      7.951310     -8.101951      2.851601
   166     -8.036028      6.040610     -3.703070
   167     -8.828948      7.634352     -3.331387
   168     -7.267545      6.004699     -5.534681
   169     -7.103826    -11.283404      4.985793
   170     -8.410585    -12.036658      4.020583
   171     -7.920859     -9.893170      5.937429
   172     -9.425619     10.483738     -1.069456
   173     -9.667877     11.998725     -2.096438
   174    -10.804265     10.392861      0.055429
   175     -1.803919    -10.031473     -4.080584
   176     -0.378525    -11.257677     -4.152639
   177     -0.876138     -8.572387     -4.593301
 
  MM charges 
  ---------- 
     1     -0.674440
     2      0.337220
     3      0.337220
     4     -0.674440
     5      0.337220
     6      0.337220
     7     -0.674440
     8      0.337220
     9      0.337220
    10     -0.674440
    11      0.337220
    12      0.337220
    13     -0.674440
    14      0.337220
    15      0.337220
    16     -0.674440
    17      0.337220
    18      0.337220
    19     -0.674440
    20      0.337220
    21      0.337220
    22     -0.674440
    23      0.337220
    24      0.337220
    25     -0.674440
    26      0.337220
    27      0.337220
    28     -0.674440
    29      0.337220
    30      0.337220
    31     -0.674440
    32      0.337220
    33      0.337220
    34     -0.674440
    35      0.337220
    36      0.337220
    37     -0.674440
    38      0.337220
    39      0.337220
    40     -0.674440
    41      0.337220
    42      0.337220
    43     -0.674440
    44      0.337220
    45      0.337220
    46     -0.674440
    47      0.337220
    48      0.337220
    49     -0.674440
    50      0.337220
    51      0.337220
    52     -0.674440
    53      0.337220
    54      0.337220
    55     -0.674440
    56      0.337220
    57      0.337220
    58     -0.674440
    59      0.337220
    60      0.337220
    61     -0.674440
    62      0.337220
    63      0.337220
    64     -0.674440
    65      0.337220
    66      0.337220
    67     -0.674440
    68      0.337220
    69      0.337220
    70     -0.674440
    71      0.337220
    72      0.337220
    73     -0.674440
    74      0.337220
    75      0.337220
    76     -0.674440
    77      0.337220
    78      0.337220
    79     -0.674440
    80      0.337220
    81      0.337220
    82     -0.674440
    83      0.337220
    84      0.337220
    85     -0.674440
    86      0.337220
    87      0.337220
    88     -0.674440
    89      0.337220
    90      0.337220
    91     -0.674440
    92      0.337220
    93      0.337220
    94     -0.674440
    95      0.337220
    96      0.337220
    97     -0.674440
    98      0.337220
    99      0.337220
   100     -0.674440
   101      0.337220
   102      0.337220
   103     -0.674440
   104      0.337220
   105      0.337220
   106     -0.674440
   107      0.337220
   108      0.337220
   109     -0.674440
   110      0.337220
   111      0.337220
   112     -0.674440
   113      0.337220
   114      0.337220
   115     -0.674440
   116      0.337220
   117      0.337220
   118     -0.674440
   119      0.337220
   120      0.337220
   121     -0.674440
   122      0.337220
   123      0.337220
   124     -0.674440
   125      0.337220
   126      0.337220
   127     -0.674440
   128      0.337220
   129      0.337220
   130     -0.674440
   131      0.337220
   132      0.337220
   133     -0.674440
   134      0.337220
   135      0.337220
   136     -0.674440
   137      0.337220
   138      0.337220
   139     -0.674440
   140      0.337220
   141      0.337220
   142     -0.674440
   143      0.337220
   144      0.337220
   145     -0.674440
   146      0.337220
   147      0.337220
   148     -0.674440
   149      0.337220
   150      0.337220
   151     -0.674440
   152      0.337220
   153      0.337220
   154     -0.674440
   155      0.337220
   156      0.337220
   157     -0.674440
   158      0.337220
   159      0.337220
   160     -0.674440
   161      0.337220
   162      0.337220
   163     -0.674440
   164      0.337220
   165      0.337220
   166     -0.674440
   167      0.337220
   168      0.337220
   169     -0.674440
   170      0.337220
   171      0.337220
   172     -0.674440
   173      0.337220
   174      0.337220
   175     -0.674440
   176      0.337220
   177      0.337220
 
  MM isotropic polarizabilities in au 
  ----------------------------------- 
     1      5.739350
     2      2.308390
     3      2.308390
     4      5.739350
     5      2.308390
     6      2.308390
     7      5.739350
     8      2.308390
     9      2.308390
    10      5.739350
    11      2.308390
    12      2.308390
    13      5.739350
    14      2.308390
    15      2.308390
    16      5.739350
    17      2.308390
    18      2.308390
    19      5.739350
    20      2.308390
    21      2.308390
    22      5.739350
    23      2.308390
    24      2.308390
    25      5.739350
    26      2.308390
    27      2.308390
    28      5.739350
    29      2.308390
    30      2.308390
    31      5.739350
    32      2.308390
    33      2.308390
    34      5.739350
    35      2.308390
    36      2.308390
    37      5.739350
    38      2.308390
    39      2.308390
    40      5.739350
    41      2.308390
    42      2.308390
    43      5.739350
    44      2.308390
    45      2.308390
    46      5.739350
    47      2.308390
    48      2.308390
    49      5.739350
    50      2.308390
    51      2.308390
    52      5.739350
    53      2.308390
    54      2.308390
    55      5.739350
    56      2.308390
    57      2.308390
    58      5.739350
    59      2.308390
    60      2.308390
    61      5.739350
    62      2.308390
    63      2.308390
    64      5.739350
    65      2.308390
    66      2.308390
    67      5.739350
    68      2.308390
    69      2.308390
    70      5.739350
    71      2.308390
    72      2.308390
    73      5.739350
    74      2.308390
    75      2.308390
    76      5.739350
    77      2.308390
    78      2.308390
    79      5.739350
    80      2.308390
    81      2.308390
    82      5.739350
    83      2.308390
    84      2.308390
    85      5.739350
    86      2.308390
    87      2.308390
    88      5.739350
    89      2.308390
    90      2.308390
    91      5.739350
    92      2.308390
    93      2.308390
    94      5.739350
    95      2.308390
    96      2.308390
    97      5.739350
    98      2.308390
    99      2.308390
   100      5.739350
   101      2.308390
   102      2.308390
   103      5.739350
   104      2.308390
   105      2.308390
   106      5.739350
   107      2.308390
   108      2.308390
   109      5.739350
   110      2.308390
   111      2.308390
   112      5.739350
   113      2.308390
   114      2.308390
   115      5.739350
   116      2.308390
   117      2.308390
   118      5.739350
   119      2.308390
   120      2.308390
   121      5.739350
   122      2.308390
   123      2.308390
   124      5.739350
   125      2.308390
   126      2.308390
   127      5.739350
   128      2.308390
   129      2.308390
   130      5.739350
   131      2.308390
   132      2.308390
   133      5.739350
   134      2.308390
   135      2.308390
   136      5.739350
   137      2.308390
   138      2.308390
   139      5.739350
   140      2.308390
   141      2.308390
   142      5.739350
   143      2.308390
   144      2.308390
   145      5.739350
   146      2.308390
   147      2.308390
   148      5.739350
   149      2.308390
   150      2.308390
   151      5.739350
   152      2.308390
   153      2.308390
   154      5.739350
   155      2.308390
   156      2.308390
   157      5.739350
   158      2.308390
   159      2.308390
   160      5.739350
   161      2.308390
   162      2.308390
   163      5.739350
   164      2.308390
   165      2.308390
   166      5.739350
   167      2.308390
   168      2.308390
   169      5.739350
   170      2.308390
   171      2.308390
   172      5.739350
   173      2.308390
   174      2.308390
   175      5.739350
   176      2.308390
   177      2.308390


     ************************************************************************
     ************************** Output from HERINT **************************
     ************************************************************************



                      Nuclear contribution to dipole moments
                      --------------------------------------

                 au               Debye          C m (/(10**-30)

      x    -18.20419097       -46.27043517      -154.34155842
      y     15.88674423        40.38007349       134.69342677
      z     16.99517443        43.19742185       144.09108933


  Time used in HUCKEL     is       0.92 seconds
  Time used in OVERLAP    is       0.14 seconds
  Time used in POPOVLP    is       0.66 seconds
  Time used in DIPLEN     is       0.51 seconds
  Time used in QUADRUP    is       1.34 seconds
  Time used in KINENE     is       0.20 seconds

 Threshold for neglecting two-electron integrals:  1.00D-12
 HERMIT - Number of two-electron integrals written:    37893334 ( 43.5% )
 HERMIT - Megabytes written:                            433.899

  Time used in TWOINT     is      16.59 seconds
  Total CPU  time used in HERMIT:  20.42 seconds
  Total wall time used in HERMIT:   7.62 seconds


                        .----------------------------------.
                        | End of Integral Section (HERMIT) |
                        `----------------------------------'



                   .--------------------------------------------.
                   | Starting in Wave Function Section (SIRIUS) |
                   `--------------------------------------------'

NCCEXCI for singlet:   15
 CCSD_INPUT: core-val requested
 Requested number of core orbs per sym
                     1
 Indices of requested core orbs
                     1

 *** Output from Huckel module :

     Using EWMO model:          T
     Using EHT  model:          F
     Number of Huckel orbitals each symmetry:   37

 EWMO - Energy Weighted Maximum Overlap - is a Huckel type method,
        which normally is better than Extended Huckel Theory.
 Reference: Linderberg and Ohrn, Propagators in Quantum Chemistry (Wiley, 1973)

 Huckel EWMO eigenvalues for symmetry :  1
          -20.685168     -20.684718     -20.684469     -20.684025     -15.675680
           -1.822226      -1.628000      -1.610907      -1.583704      -1.473872
           -0.825877      -0.808823      -0.792359      -0.778031      -0.764004
           -0.761528      -0.747981      -0.689304      -0.680451      -0.647669
           -0.634869      -0.613990      -0.583777      -0.572971      -0.541630
           -0.264895      -0.248401      -0.239663      -0.232957      -0.190788
           -0.178071      -0.176281      -0.176044      -0.165381      -0.154387
           -0.142062      -0.130836

 **********************************************************************
 *SIRIUS* a direct, restricted step, second order MCSCF program       *
 **********************************************************************

 
     Date and time (Linux)  : Sun Dec  2 13:29:49 2018
     Host name              : n-62-23-30                              

 Title lines from ".mol" input file:
                                                                             
                                                                             

 Print level on unit LUPRI =   2 is   0
 Print level on unit LUW4  =   2 is  11

@    (Integral direct) CC calculation.

@    This is a combination run starting with
@              a restricted, closed shell Hartree-Fock calculation


 Initial molecular orbitals are obtained according to
 ".MOSTART EWMO  " input option

@    QM part is embedded in an environment :

@         Model: QMMM

     Wave function specification
     ============================

     For the specification of the Coupled Cluster: see later.

@    Wave function type        --- CC ---
@    Number of closed shell electrons          50
@    Number of electrons in active shells       0
@    Total charge of the molecule               1

@    Spin multiplicity and 2 M_S                1         0
@    Total number of symmetries                 1 (point group: C1 )
@    Reference state symmetry                   1 (irrep name : A  )

     Orbital specifications
     ======================
@    Abelian symmetry species          All |    1
@                                          |  A  
                                       --- |  ---
@    Occupied SCF orbitals              25 |   25
@    Secondary orbitals                137 |  137
@    Total number of orbitals          162 |  162
@    Number of basis functions         162 |  162

     Optimization information
     ========================
@    Number of configurations                 1
@    Number of orbital rotations           3425
     ------------------------------------------
@    Total number of variables             3426

     Maximum number of Fock   iterations      0
     Maximum number of DIIS   iterations     60
     Maximum number of QC-SCF iterations     60
     Threshold for SCF convergence     1.00D-07


 Changes of defaults for CC:
 ---------------------------


 -Implicit frozen core calculation
 -Excitation energies calculated
 -One-photon absorption strengths will be calculated
 -Oscillator strengths calculated
  
* Read MO coefficients from SIRIUS.RST with label "NEWORB  " and header info:  2Dec18  REORTHO 


 ***********************************************
 ***** DIIS acceleration of SCF iterations *****
 ***********************************************

 C1-DIIS algorithm; max error vectors =    8
 -----------------------------------------------------------------------------

 *** DIIS iteration number    1
 RDSUPM called. NFMAT, ISYMDM(1:NFMAT)                     1
                     1

Calculating AOSUPINT
     (Precalculated two-electron integrals are transformed to P-supermatrix elements.
      Threshold for discarding integrals :  1.00D-12 )
  CPU  time used in FORMSUP    is   8.17 seconds
  WALL time used in FORMSUP    is  11.95 seconds

 ITDIIS, energy, error norm, change in energy, scr.thr., difden:
@ DIIS iter.   1    -360.193157688        4.01831D+00   -3.60D+02  -20    F

 (DIIS_RED) Control Parameters C2DIIS =         F NEVC =    1


 (DIIS_RED) B matrix:

               Column   1
       1      16.14677919
    ==== End of matrix output ====

 DIIS C vector; C2DIIS = F, LAMBDA = -1.61D+01
    1.000000
* Read MO coefficients from SIRIUS.RST with label "NEWORB  " and header info:  2Dec18  DIIS   1
      Virial theorem: -V/T =      2.002742
@      MULPOP N       0.11; H       0.16; H       0.17; H       0.17; H       0.17; O      -0.57; O      -0.60; O      -0.56; O      -0.62; H       0.31; 
@             H       0.30; H       0.34; H       0.33; H       0.32; H       0.31; H       0.33; H       0.33; 
   1  Level shift: doubly occupied orbital energies shifted by -2.00D-01

 DIIS Fock eigenvalues in symmetry 1
      -20.86639      -20.84032      -20.83529      -20.80443      -16.46881
       -1.74857       -1.68125       -1.66242       -1.65859       -1.60930
       -1.24726       -1.21170       -1.19017       -1.06210       -1.04301
       -1.02616       -0.97921       -0.92088       -0.90636       -0.90499
       -0.88137       -0.87799       -0.87430       -0.86373       -0.83327
       -0.01991        0.05534        0.05886        0.06470        0.09826
        0.12704        0.14891        0.15350        0.17255        0.18999
        0.20611        0.21462        0.25727        0.26316        0.27509
        0.41581        0.42556        0.43667        0.46199        0.47309
        0.48474        0.49724        0.51168        0.52448        0.62767
        0.67936        0.70367        0.82912        0.84242        0.85083
        0.89261        0.93137        0.94129        0.95994        0.96700
        0.97971        1.01111        1.02248        1.03372        1.04201
        1.07385        1.09906        1.21632        1.27417        1.28738
        1.32622        1.35153        1.36031        1.37126        1.39537
        1.39914        1.41057        1.42071        1.46983        1.47668
        1.51998        1.55625        1.57690        1.60114        1.61139
        1.70946        1.73758        1.78784        1.79464        1.80267
        1.85903        1.97133        1.98544        2.02330        2.07863
        2.09962        2.12233        2.13563        2.15164        2.18788
        2.19727        2.21371        2.24979        2.26698        2.40077
        2.45490        2.49007        2.49681        2.51999        2.53986
        2.57700        2.62366        2.65058        2.66841        2.67469
        2.73589        2.74517        2.78268        2.94141        3.01178
        3.11841        3.14420        3.29062        3.29456        3.35081
        3.35744        3.36801        3.37517        3.38086        3.40966
        3.49753        3.50366        3.54526        3.55136        3.84417
        3.86080        3.90061        3.90858        4.03786        4.09212
        4.10935        4.11383        4.63792        4.73265        4.90446
        5.19666        5.22294        5.29688        5.32066        5.62065
        5.68872        5.72817        5.78064        5.89980        5.95671
        5.98228        6.08515       36.37118       51.43262       51.45110
       51.45778       51.46328
 Time used in FCKEIG, thr_jaco:   4.77D-01  4.80D-02  1.72D-04
 CPU and wall times used in FCKEIG, THR_FCKEIG:   4.77D-01  4.80D-02  4.02D-02
 -----------------------------------------------------------------------------

 *** DIIS iteration number    2
 RDSUPM called. NFMAT, ISYMDM(1:NFMAT)                     1
                     1

 ITDIIS, energy, error norm, change in energy, scr.thr., difden:
@ DIIS iter.   2    -361.102813848        1.15155D+00   -9.10D-01  -20    F

 (DIIS_RED) Control Parameters C2DIIS =         F NEVC =    2


 (DIIS_RED) B matrix:

               Column   1     Column   2
       1      16.14677919
       2       0.82446016     1.32607365
    ==== End of matrix output ====

 DIIS C vector; C2DIIS = F, LAMBDA = -1.31D+00
    0.031700    0.968300
* Read MO coefficients from SIRIUS.RST with label "NEWORB  " and header info:  2Dec18  DIIS   2
      Virial theorem: -V/T =      2.001932
@      MULPOP N      -0.56; H       0.35; H       0.34; H       0.30; H       0.33; O      -0.60; O      -0.56; O      -0.59; O      -0.63; H       0.31; 
@             H       0.34; H       0.34; H       0.30; H       0.32; H       0.33; H       0.32; H       0.35; 
   2  Level shift: doubly occupied orbital energies shifted by -1.00D-01

 DIIS Fock eigenvalues in symmetry 1
      -20.79106      -20.78176      -20.77653      -20.75969      -15.64055
       -1.55486       -1.55076       -1.54896       -1.51153       -1.39641
       -0.92496       -0.92024       -0.91181       -0.89831       -0.88449
       -0.87037       -0.85870       -0.80017       -0.79693       -0.77880
       -0.76656       -0.74188       -0.72827       -0.71911       -0.70837
        0.04815        0.09246        0.10294        0.11119        0.15754
        0.16697        0.18255        0.21629        0.22309        0.22622
        0.27264        0.27325        0.35175        0.35691        0.37051
        0.45143        0.47050        0.47816        0.51339        0.52190
        0.52814        0.54013        0.56886        0.60447        0.75517
        0.81645        0.83566        0.87814        0.88273        0.90191
        0.95887        0.98011        0.99057        1.00224        1.00446
        1.01390        1.05661        1.06465        1.09656        1.14277
        1.16650        1.20813        1.27526        1.32376        1.34717
        1.38301        1.40818        1.42131        1.43663        1.44440
        1.45803        1.47655        1.48940        1.54467        1.57325
        1.60275        1.62728        1.64827        1.69282        1.70196
        1.76526        1.81861        1.85980        1.86509        1.87755
        1.97096        2.06222        2.08289        2.08762        2.13213
        2.14440        2.20567        2.23478        2.24372        2.25988
        2.28722        2.31057        2.36606        2.37610        2.50392
        2.54526        2.56053        2.57082        2.62779        2.64762
        2.67835        2.70290        2.73818        2.74629        2.78383
        2.85067        2.95185        2.98534        3.15210        3.21002
        3.29654        3.30349        3.37011        3.37751        3.38836
        3.39789        3.41415        3.44081        3.44798        3.47142
        3.52713        3.53492        3.57755        3.60348        3.85557
        3.89031        3.93444        3.94771        4.06136        4.12151
        4.13758        4.14409        5.02599        5.12356        5.21137
        5.23422        5.29049        5.30723        5.33422        5.62148
        5.67979        5.76047        5.78983        5.89844        5.97949
        5.99740        6.13535       37.08270       51.37706       51.38425
       51.41928       51.47071
 Time used in FCKEIG, thr_jaco:   3.44D-01  3.50D-02  4.92D-05
 CPU and wall times used in FCKEIG, THR_FCKEIG:   3.44D-01  3.50D-02  1.15D-02
 -----------------------------------------------------------------------------

 *** DIIS iteration number    3
 RDSUPM called. NFMAT, ISYMDM(1:NFMAT)                     1
                     1

 ITDIIS, energy, error norm, change in energy, scr.thr., difden:
@ DIIS iter.   3    -361.180607315        3.82116D-01   -7.78D-02  -20    F

 (DIIS_RED) Control Parameters C2DIIS =         F NEVC =    3


 (DIIS_RED) B matrix:

               Column   1     Column   2     Column   3
       1      16.14677919
       2       0.82446016     1.32607365
       3       0.84024011    -0.00201836     0.14601228
    ==== End of matrix output ====

 DIIS C vector; C2DIIS = F, LAMBDA = -9.69D-02
   -0.048457    0.104625    0.943832
* Read MO coefficients from SIRIUS.RST with label "NEWORB  " and header info:  2Dec18  DIIS   3
      Virial theorem: -V/T =      2.002945
@      MULPOP N      -0.37; H       0.32; H       0.32; H       0.25; H       0.29; O      -0.68; O      -0.63; O      -0.65; O      -0.70; H       0.34; 
@             H       0.38; H       0.37; H       0.32; H       0.34; H       0.36; H       0.35; H       0.39; 
   3  Level shift: doubly occupied orbital energies shifted by -5.00D-02

 DIIS Fock eigenvalues in symmetry 1
      -20.70123      -20.68806      -20.68358      -20.67820      -15.80290
       -1.49248       -1.48359       -1.47696       -1.44194       -1.39856
       -0.89589       -0.86833       -0.85828       -0.85083       -0.84537
       -0.82311       -0.79133       -0.72952       -0.72423       -0.71940
       -0.70200       -0.66797       -0.65934       -0.64243       -0.63789
        0.05264        0.09857        0.10882        0.11587        0.16080
        0.17128        0.18662        0.22162        0.22434        0.23030
        0.27380        0.27557        0.35153        0.35592        0.36885
        0.46361        0.48130        0.48584        0.52280        0.53067
        0.53701        0.55057        0.57766        0.60500        0.74931
        0.80779        0.82862        0.88457        0.89845        0.91137
        0.96408        0.99437        1.00086        1.01462        1.01626
        1.02706        1.06954        1.08029        1.10598        1.14330
        1.16431        1.20155        1.28525        1.33634        1.35607
        1.39334        1.42164        1.43482        1.45043        1.45747
        1.46966        1.48471        1.49891        1.55143        1.57908
        1.61072        1.63745        1.65586        1.69842        1.70767
        1.77705        1.82668        1.87120        1.87427        1.88547
        1.97038        2.07388        2.08655        2.09245        2.15060
        2.15905        2.21866        2.24360        2.25369        2.27548
        2.28931        2.31805        2.36384        2.37723        2.51096
        2.55722        2.56933        2.57691        2.63254        2.65224
        2.68680        2.71205        2.74958        2.75675        2.78465
        2.85646        2.92064        2.95413        3.14374        3.17689
        3.30804        3.32736        3.36833        3.38112        3.41601
        3.42430        3.42782        3.43549        3.45066        3.47807
        3.55094        3.55585        3.60697        3.62259        3.88221
        3.91872        3.95789        3.96755        4.08805        4.14918
        4.16554        4.16952        4.94425        5.04249        5.21737
        5.24601        5.25486        5.32779        5.36634        5.65047
        5.71453        5.78187        5.82500        5.93276        6.01573
        6.02781        6.15736       36.87676       51.41909       51.43046
       51.46743       51.49285
 Time used in FCKEIG, thr_jaco:   3.24D-01  3.20D-02  1.63D-05
 CPU and wall times used in FCKEIG, THR_FCKEIG:   3.24D-01  3.20D-02  3.82D-03
 -----------------------------------------------------------------------------

 *** DIIS iteration number    4
 RDSUPM called. NFMAT, ISYMDM(1:NFMAT)                     1
                     1

 ITDIIS, energy, error norm, change in energy, scr.thr., difden:
@ DIIS iter.   4    -361.191336311        9.58502D-02   -1.07D-02  -20    F

 (DIIS_RED) Control Parameters C2DIIS =         F NEVC =    4


 (DIIS_RED) B matrix:

               Column   1     Column   2     Column   3     Column   4
       1      16.14677919
       2       0.82446016     1.32607365
       3       0.84024011    -0.00201836     0.14601228
       4       0.05686251     0.08040778     0.00497544     0.00918725
    ==== End of matrix output ====

 DIIS C vector; C2DIIS = F, LAMBDA = -4.87D-03
   -0.000214   -0.060683   -0.002519    1.063416
* Read MO coefficients from SIRIUS.RST with label "NEWORB  " and header info:  2Dec18  DIIS   4
      Virial theorem: -V/T =      2.002870
@      MULPOP N      -0.44; H       0.34; H       0.33; H       0.27; H       0.30; O      -0.69; O      -0.64; O      -0.66; O      -0.72; H       0.34; 
@             H       0.39; H       0.38; H       0.32; H       0.35; H       0.37; H       0.36; H       0.40; 
   4  Level shift: doubly occupied orbital energies shifted by -2.50D-02

 DIIS Fock eigenvalues in symmetry 1
      -20.68770      -20.67671      -20.67272      -20.66904      -15.74401
       -1.47109       -1.46228       -1.45817       -1.42175       -1.36148
       -0.85987       -0.84082       -0.83270       -0.82446       -0.81270
       -0.80158       -0.77003       -0.70593       -0.70245       -0.69410
       -0.67936       -0.64257       -0.63347       -0.61830       -0.61381
        0.05383        0.09807        0.10792        0.11530        0.16221
        0.17165        0.18625        0.22192        0.22754        0.22986
        0.27750        0.27814        0.35676        0.36156        0.37511
        0.46336        0.48109        0.48620        0.52236        0.53088
        0.53595        0.54879        0.57703        0.60899        0.75467
        0.81405        0.83427        0.88613        0.89930        0.91301
        0.96682        0.99353        1.00075        1.01487        1.01638
        1.02611        1.06676        1.07784        1.10592        1.14749
        1.16843        1.20584        1.28626        1.33670        1.35714
        1.39306        1.42054        1.43253        1.44868        1.45555
        1.46965        1.48474        1.49914        1.55221        1.58260
        1.61242        1.63661        1.65737        1.70072        1.71161
        1.77593        1.82709        1.87029        1.87422        1.88685
        1.97561        2.07316        2.09012        2.09659        2.14688
        2.15696        2.21644        2.24481        2.25417        2.27237
        2.29249        2.31908        2.36787        2.37989        2.51263
        2.55512        2.57090        2.57994        2.63391        2.65789
        2.68846        2.71408        2.74914        2.75558        2.78682
        2.85844        2.93128        2.96517        3.15216        3.18777
        3.30997        3.32503        3.37346        3.38477        3.41157
        3.42077        3.42670        3.43607        3.45228        3.47718
        3.54856        3.55315        3.60213        3.62069        3.87794
        3.91347        3.95531        3.96479        4.08547        4.14534
        4.16245        4.16474        4.96223        5.06052        5.23340
        5.23985        5.25131        5.32292        5.35801        5.64572
        5.70694        5.77764        5.81629        5.92458        6.00622
        6.02209        6.15217       36.91022       51.40723       51.41571
       51.44974       51.48346
 Time used in FCKEIG, thr_jaco:   2.84D-01  2.80D-02  4.09D-06
 CPU and wall times used in FCKEIG, THR_FCKEIG:   2.84D-01  2.80D-02  9.59D-04
 -----------------------------------------------------------------------------

 *** DIIS iteration number    5
 RDSUPM called. NFMAT, ISYMDM(1:NFMAT)                     1
                     1

 ITDIIS, energy, error norm, change in energy, scr.thr., difden:
@ DIIS iter.   5    -361.192391845        3.07136D-02   -1.06D-03  -20    F

 (DIIS_RED) Control Parameters C2DIIS =         F NEVC =    5


 (DIIS_RED) B matrix:

               Column   1     Column   2     Column   3     Column   4     Column   5
       1      16.14677919
       2       0.82446016     1.32607365
       3       0.84024011    -0.00201836     0.14601228
       4       0.05686251     0.08040778     0.00497544     0.00918725
       5       0.02326506     0.00869538     0.00597644     0.00093192     0.00094332
    ==== End of matrix output ====

 DIIS C vector; C2DIIS = F, LAMBDA = -6.40D-04
    0.001370   -0.012904   -0.046275    0.102233    0.955577
* Read MO coefficients from SIRIUS.RST with label "NEWORB  " and header info:  2Dec18  DIIS   5
      Virial theorem: -V/T =      2.002518
@      MULPOP N      -0.43; H       0.34; H       0.33; H       0.26; H       0.30; O      -0.71; O      -0.65; O      -0.67; O      -0.73; H       0.35; 
@             H       0.40; H       0.39; H       0.33; H       0.36; H       0.37; H       0.37; H       0.40; 
   5  Level shift: doubly occupied orbital energies shifted by -1.25D-02

 DIIS Fock eigenvalues in symmetry 1
      -20.66912      -20.65463      -20.65446      -20.64877      -15.72792
       -1.45659       -1.44752       -1.44225       -1.40655       -1.34742
       -0.84600       -0.82702       -0.81877       -0.81051       -0.79828
       -0.78671       -0.75564       -0.69150       -0.68721       -0.67979
       -0.66495       -0.62695       -0.61821       -0.60211       -0.59771
        0.05437        0.09838        0.10825        0.11562        0.16283
        0.17204        0.18645        0.22250        0.22822        0.23019
        0.27819        0.27915        0.35768        0.36266        0.37622
        0.46413        0.48183        0.48688        0.52298        0.53149
        0.53650        0.54924        0.57783        0.60997        0.75613
        0.81552        0.83556        0.88779        0.90148        0.91476
        0.96844        0.99483        1.00181        1.01657        1.01794
        1.02786        1.06782        1.07954        1.10736        1.14887
        1.16969        1.20718        1.28768        1.33816        1.35852
        1.39436        1.42125        1.43291        1.44941        1.45608
        1.47074        1.48553        1.49981        1.55315        1.58338
        1.61317        1.63708        1.65818        1.70170        1.71247
        1.77611        1.82752        1.87060        1.87459        1.88760
        1.97663        2.07396        2.09111        2.09776        2.14819
        2.15761        2.21705        2.24601        2.25536        2.27329
        2.29336        2.31986        2.36896        2.38088        2.51337
        2.55513        2.57143        2.58077        2.63447        2.65882
        2.68877        2.71466        2.74951        2.75578        2.78728
        2.85930        2.93261        2.96658        3.15346        3.18943
        3.31228        3.32785        3.37578        3.38713        3.41487
        3.42358        3.42911        3.43861        3.45447        3.47918
        3.55089        3.55578        3.60558        3.62267        3.88068
        3.91697        3.95753        3.96675        4.08794        4.14816
        4.16512        4.16812        4.96445        5.06270        5.23607
        5.24405        5.25472        5.32668        5.36360        5.64916
        5.71127        5.78075        5.82152        5.92862        6.01124
        6.02527        6.15502       36.91373       51.41358       51.42305
       51.45919       51.48916
 Time used in FCKEIG, thr_jaco:   2.82D-01  2.90D-02  1.31D-06
 CPU and wall times used in FCKEIG, THR_FCKEIG:   2.83D-01  2.90D-02  3.07D-04
 -----------------------------------------------------------------------------

 *** DIIS iteration number    6
 RDSUPM called. NFMAT, ISYMDM(1:NFMAT)                     1
                     1

 ITDIIS, energy, error norm, change in energy, scr.thr., difden:
@ DIIS iter.   6    -361.192486887        1.09661D-02   -9.50D-05  -20    F

 (DIIS_RED) Control Parameters C2DIIS =         F NEVC =    6


 (DIIS_RED) B matrix:

               Column   1     Column   2     Column   3     Column   4     Column   5     Column   6
       1      16.14677919
       2       0.82446016     1.32607365
       3       0.84024011    -0.00201836     0.14601228
       4       0.05686251     0.08040778     0.00497544     0.00918725
       5       0.02326506     0.00869538     0.00597644     0.00093192     0.00094332
       6      -0.00503302     0.00000739     0.00080484     0.00059159     0.00003243     0.00012026
    ==== End of matrix output ====

 DIIS C vector; C2DIIS = F, LAMBDA = -3.61D-05
    0.000799    0.006755   -0.010114   -0.132008    0.115713    1.018854
* Read MO coefficients from SIRIUS.RST with label "NEWORB  " and header info:  2Dec18  DIIS   6
      Virial theorem: -V/T =      2.002772
@      MULPOP N      -0.43; H       0.34; H       0.33; H       0.26; H       0.30; O      -0.71; O      -0.65; O      -0.67; O      -0.73; H       0.35; 
@             H       0.40; H       0.39; H       0.33; H       0.36; H       0.37; H       0.37; H       0.40; 

 DIIS Fock eigenvalues in symmetry 1
      -20.65821      -20.64491      -20.64357      -20.63868      -15.71740
       -1.44453       -1.43542       -1.43049       -1.39476       -1.33544
       -0.83408       -0.81508       -0.80681       -0.79852       -0.78629
       -0.77490       -0.74386       -0.67962       -0.67566       -0.66796
       -0.65343       -0.61460       -0.60589       -0.59007       -0.58567
        0.05428        0.09824        0.10806        0.11549        0.16279
        0.17191        0.18630        0.22238        0.22808        0.23001
        0.27805        0.27902        0.35753        0.36245        0.37602
        0.46393        0.48160        0.48664        0.52273        0.53128
        0.53616        0.54899        0.57756        0.60977        0.75583
        0.81519        0.83516        0.88746        0.90121        0.91455
        0.96814        0.99447        1.00139        1.01613        1.01774
        1.02743        1.06741        1.07909        1.10691        1.14863
        1.16939        1.20680        1.28739        1.33781        1.35816
        1.39398        1.42092        1.43259        1.44903        1.45568
        1.47041        1.48513        1.49953        1.55282        1.58314
        1.61295        1.63673        1.65790        1.70143        1.71230
        1.77584        1.82722        1.87035        1.87431        1.88738
        1.97643        2.07346        2.09088        2.09752        2.14766
        2.15716        2.21660        2.24564        2.25497        2.27276
        2.29305        2.31953        2.36859        2.38056        2.51308
        2.55469        2.57114        2.58061        2.63415        2.65870
        2.68852        2.71449        2.74924        2.75550        2.78691
        2.85899        2.93211        2.96607        3.15323        3.18886
        3.31171        3.32700        3.37498        3.38645        3.41397
        3.42284        3.42840        3.43788        3.45378        3.47856
        3.55031        3.55496        3.60463        3.62209        3.87979
        3.91600        3.95695        3.96612        4.08736        4.14726
        4.16437        4.16714        4.96349        5.06175        5.23509
        5.24279        5.25385        5.32587        5.36212        5.64831
        5.70992        5.77984        5.82004        5.92723        6.00974
        6.02437        6.15410       36.91178       51.41185       51.42081
       51.45644       51.48756
 Time used in FCKEIG, thr_jaco:   2.75D-01  2.80D-02  4.68D-07
 CPU and wall times used in FCKEIG, THR_FCKEIG:   2.76D-01  2.80D-02  1.10D-04
 -----------------------------------------------------------------------------

 *** DIIS iteration number    7
 RDSUPM called. NFMAT, ISYMDM(1:NFMAT)                     1
                     1

 ITDIIS, energy, error norm, change in energy, scr.thr., difden:
@ DIIS iter.   7    -361.192500026        2.26832D-03   -1.31D-05  -20    F

 (DIIS_RED) Control Parameters C2DIIS =         F NEVC =    7


 (DIIS_RED) B matrix:

               Column   1     Column   2     Column   3     Column   4     Column   5     Column   6
       1      16.14677919
       2       0.82446016     1.32607365
       3       0.84024011    -0.00201836     0.14601228
       4       0.05686251     0.08040778     0.00497544     0.00918725
       5       0.02326506     0.00869538     0.00597644     0.00093192     0.00094332
       6      -0.00503302     0.00000739     0.00080484     0.00059159     0.00003243     0.00012026
       7       0.00031456     0.00020979    -0.00000741     0.00000725     0.00004783     0.00000053

               Column   7
       7       0.00000515
    ==== End of matrix output ====

 DIIS C vector; C2DIIS = F, LAMBDA = -1.28D-06
   -0.000239   -0.000680    0.005368    0.021302   -0.097828   -0.118856    1.190933
* Read MO coefficients from SIRIUS.RST with label "NEWORB  " and header info:  2Dec18  DIIS   7
      Virial theorem: -V/T =      2.002712
@      MULPOP N      -0.43; H       0.33; H       0.33; H       0.26; H       0.30; O      -0.71; O      -0.65; O      -0.68; O      -0.73; H       0.35; 
@             H       0.40; H       0.39; H       0.33; H       0.36; H       0.37; H       0.37; H       0.41; 

 DIIS Fock eigenvalues in symmetry 1
      -20.65804      -20.64453      -20.64346      -20.63825      -15.71697
       -1.44444       -1.43530       -1.43032       -1.39455       -1.33523
       -0.83391       -0.81502       -0.80674       -0.79840       -0.78613
       -0.77477       -0.74371       -0.67960       -0.67559       -0.66791
       -0.65336       -0.61443       -0.60577       -0.58985       -0.58543
        0.05435        0.09828        0.10810        0.11553        0.16283
        0.17195        0.18634        0.22243        0.22815        0.23006
        0.27812        0.27912        0.35764        0.36257        0.37615
        0.46399        0.48167        0.48670        0.52279        0.53133
        0.53621        0.54901        0.57761        0.60988        0.75595
        0.81532        0.83530        0.88756        0.90137        0.91466
        0.96824        0.99455        1.00148        1.01624        1.01783
        1.02754        1.06745        1.07917        1.10700        1.14875
        1.16951        1.20695        1.28750        1.33791        1.35827
        1.39408        1.42096        1.43260        1.44906        1.45571
        1.47049        1.48520        1.49958        1.55289        1.58324
        1.61301        1.63677        1.65797        1.70152        1.71240
        1.77586        1.82726        1.87038        1.87435        1.88745
        1.97655        2.07352        2.09098        2.09765        2.14772
        2.15719        2.21664        2.24573        2.25505        2.27282
        2.29315        2.31959        2.36871        2.38065        2.51315
        2.55469        2.57119        2.58070        2.63420        2.65881
        2.68856        2.71455        2.74927        2.75552        2.78696
        2.85906        2.93229        2.96626        3.15338        3.18905
        3.31184        3.32721        3.37519        3.38661        3.41414
        3.42297        3.42855        3.43804        3.45393        3.47867
        3.55043        3.55515        3.60480        3.62218        3.87998
        3.91616        3.95704        3.96620        4.08747        4.14747
        4.16450        4.16732        4.96376        5.06202        5.23535
        5.24309        5.25398        5.32601        5.36236        5.64843
        5.71019        5.77993        5.82026        5.92749        6.00996
        6.02449        6.15419       36.91220       51.41207       51.42119
       51.45682       51.48767
 Time used in FCKEIG, thr_jaco:   2.88D-01  2.90D-02  9.69D-08
 CPU and wall times used in FCKEIG, THR_FCKEIG:   2.88D-01  2.90D-02  2.27D-05
 -----------------------------------------------------------------------------

 *** DIIS iteration number    8
 RDSUPM called. NFMAT, ISYMDM(1:NFMAT)                     1
                     1

 ITDIIS, energy, error norm, change in energy, scr.thr., difden:
@ DIIS iter.   8    -361.192500565        3.95480D-04   -5.39D-07  -20    F

 (DIIS_RED) Control Parameters C2DIIS =         F NEVC =    8


 (DIIS_RED) B matrix:

               Column   1     Column   2     Column   3     Column   4     Column   5     Column   6
       1      16.14677919
       2       0.82446016     1.32607365
       3       0.84024011    -0.00201836     0.14601228
       4       0.05686251     0.08040778     0.00497544     0.00918725
       5       0.02326506     0.00869538     0.00597644     0.00093192     0.00094332
       6      -0.00503302     0.00000739     0.00080484     0.00059159     0.00003243     0.00012026
       7       0.00031456     0.00020979    -0.00000741     0.00000725     0.00004783     0.00000053
       8       0.00009571    -0.00004538     0.00000928     0.00000121     0.00000032     0.00000163

               Column   7     Column   8
       7       0.00000515
       8       0.00000032     0.00000016
    ==== End of matrix output ====

 DIIS C vector; C2DIIS = F, LAMBDA = -1.10D-07
   -0.000011   -0.000076   -0.000221    0.001539    0.006809   -0.022190   -0.107660    1.121809
* Read MO coefficients from SIRIUS.RST with label "NEWORB  " and header info:  2Dec18  DIIS   8
      Virial theorem: -V/T =      2.002728
@      MULPOP N      -0.43; H       0.33; H       0.33; H       0.26; H       0.30; O      -0.71; O      -0.65; O      -0.68; O      -0.73; H       0.35; 
@             H       0.40; H       0.39; H       0.33; H       0.36; H       0.37; H       0.37; H       0.41; 

 DIIS Fock eigenvalues in symmetry 1
      -20.65799      -20.64454      -20.64337      -20.63836      -15.71701
       -1.44440       -1.43528       -1.43032       -1.39459       -1.33525
       -0.83392       -0.81499       -0.80672       -0.79839       -0.78614
       -0.77477       -0.74372       -0.67961       -0.67561       -0.66791
       -0.65342       -0.61441       -0.60574       -0.58986       -0.58545
        0.05435        0.09828        0.10810        0.11553        0.16283
        0.17195        0.18634        0.22243        0.22814        0.23006
        0.27811        0.27911        0.35763        0.36257        0.37614
        0.46400        0.48167        0.48670        0.52279        0.53133
        0.53620        0.54902        0.57761        0.60988        0.75595
        0.81532        0.83529        0.88756        0.90135        0.91466
        0.96823        0.99456        1.00149        1.01624        1.01784
        1.02753        1.06746        1.07916        1.10699        1.14875
        1.16950        1.20694        1.28750        1.33791        1.35826
        1.39407        1.42096        1.43261        1.44905        1.45570
        1.47048        1.48519        1.49959        1.55289        1.58323
        1.61301        1.63676        1.65797        1.70151        1.71240
        1.77586        1.82726        1.87038        1.87435        1.88744
        1.97654        2.07350        2.09097        2.09764        2.14772
        2.15719        2.21665        2.24572        2.25504        2.27280
        2.29314        2.31960        2.36870        2.38065        2.51315
        2.55468        2.57120        2.58069        2.63420        2.65880
        2.68855        2.71454        2.74926        2.75552        2.78695
        2.85905        2.93227        2.96624        3.15336        3.18904
        3.31185        3.32717        3.37516        3.38661        3.41413
        3.42297        3.42854        3.43803        3.45393        3.47869
        3.55043        3.55512        3.60480        3.62221        3.87993
        3.91615        3.95706        3.96623        4.08749        4.14743
        4.16451        4.16731        4.96374        5.06200        5.23532
        5.24302        5.25402        5.32603        5.36235        5.64845
        5.71012        5.77998        5.82025        5.92743        6.00996
        6.02451        6.15424       36.91217       51.41208       51.42111
       51.45681       51.48776
 Time used in FCKEIG, thr_jaco:   2.50D-01  2.50D-02  1.69D-08
 CPU and wall times used in FCKEIG, THR_FCKEIG:   2.50D-01  2.50D-02  3.95D-06
 -----------------------------------------------------------------------------

 *** DIIS iteration number    9
 RDSUPM called. NFMAT, ISYMDM(1:NFMAT)                     1
                     1

 ITDIIS, energy, error norm, change in energy, scr.thr., difden:
@ DIIS iter.   9    -361.192500583        1.61951D-04   -1.82D-08  -20    F

 (DIIS_RED) Control Parameters C2DIIS =         F NEVC =    8


 (DIIS_RED) B matrix:

[...]
 ... selected element no.  9
 CCEQ_STR: freeze VALENCE OR VIRT
 could not find required file CCRE_1__10
 IOPTSV is    33 ... program continues nevertheless.
 Vector nr. 10 of type RE  and symmetry  1 was not found on file.
 Start vector guessed from diagonal
 ... selected element no. 10
 CCEQ_STR: freeze VALENCE OR VIRT
 could not find required file CCRE_1__11
 IOPTSV is    33 ... program continues nevertheless.
 Vector nr. 11 of type RE  and symmetry  1 was not found on file.
 Start vector guessed from diagonal
 ... selected element no. 11
 CCEQ_STR: freeze VALENCE OR VIRT
 could not find required file CCRE_1__12
 IOPTSV is    33 ... program continues nevertheless.
 Vector nr. 12 of type RE  and symmetry  1 was not found on file.
 Start vector guessed from diagonal
 ... selected element no. 12
 CCEQ_STR: freeze VALENCE OR VIRT
 could not find required file CCRE_1__13
 IOPTSV is    33 ... program continues nevertheless.
 Vector nr. 13 of type RE  and symmetry  1 was not found on file.
 Start vector guessed from diagonal
 ... selected element no. 13
 CCEQ_STR: freeze VALENCE OR VIRT
 could not find required file CCRE_1__14
 IOPTSV is    33 ... program continues nevertheless.
 Vector nr. 14 of type RE  and symmetry  1 was not found on file.
 Start vector guessed from diagonal
 ... selected element no. 14
 CCEQ_STR: freeze VALENCE OR VIRT
 could not find required file CCRE_1__15
 IOPTSV is    33 ... program continues nevertheless.
 Vector nr. 15 of type RE  and symmetry  1 was not found on file.
 Start vector guessed from diagonal
 ... selected element no. 15
 CCEQ_STR: freeze VALENCE OR VIRT
 CCEQ_SOL: CVSEPARA=     T
 CCEQ_SOL: LIONISAT=     F
 CCEQ_SOL: REMOVE_CORE =  F



 ----- COUPLED CLUSTER RESPONSE SOLVER -----

    Iter  #Vectors  time (min)   residual
    --------------------------------------
 CCRED CVS/IONIS sigma_                     1 
 project out valence occupied or virtual
 CCRED CVS/IONIS sigma_                     2 
 project out valence occupied or virtual
 CCRED CVS/IONIS sigma_                     3 
 project out valence occupied or virtual
 CCRED CVS/IONIS sigma_                     4 
 project out valence occupied or virtual
 CCRED CVS/IONIS sigma_                     5 
 project out valence occupied or virtual
 CCRED CVS/IONIS sigma_                     6 
 project out valence occupied or virtual
 CCRED CVS/IONIS sigma_                     7 
 project out valence occupied or virtual
 CCRED CVS/IONIS sigma_                     8 
 project out valence occupied or virtual
 CCRED CVS/IONIS sigma_                     9 
 project out valence occupied or virtual
 CCRED CVS/IONIS sigma_                    10 
 project out valence occupied or virtual
 CCRED CVS/IONIS sigma_                    11 
 project out valence occupied or virtual
 CCRED CVS/IONIS sigma_                    12 
 project out valence occupied or virtual
 CCRED CVS/IONIS sigma_                    13 
 project out valence occupied or virtual
 CCRED CVS/IONIS sigma_                    14 
 project out valence occupied or virtual
 CCRED CVS/IONIS sigma_                    15 
 project out valence occupied or virtual

 REDUCED EIGENVALUES real part:

               Column   1
       1      15.50099944
       2      15.55419510
       3      15.57393215
       4      15.59956033
       5      15.65115092
       6      15.66660342
       7      15.68696593
       8      15.73998072
       9      15.74370533
      10      15.75521929
      11      15.78092432
      12      15.80182662
      13      15.81054758
      14      15.82538561
      15      15.82791886
    ==== End of matrix output ====
      1      15        75.69     0.15E+01
 CCRED CVS/IONIS sigma_                    16 
 project out valence occupied or virtual
 CCRED CVS/IONIS sigma_                    17 
 project out valence occupied or virtual
 CCRED CVS/IONIS sigma_                    18 
 project out valence occupied or virtual
 CCRED CVS/IONIS sigma_                    19 
 project out valence occupied or virtual
 CCRED CVS/IONIS sigma_                    20 
 project out valence occupied or virtual
 CCRED CVS/IONIS sigma_                    21 
 project out valence occupied or virtual
 CCRED CVS/IONIS sigma_                    22 
 project out valence occupied or virtual
 CCRED CVS/IONIS sigma_                    23 
 project out valence occupied or virtual
 CCRED CVS/IONIS sigma_                    24 
 project out valence occupied or virtual
 CCRED CVS/IONIS sigma_                    25 
 project out valence occupied or virtual
 CCRED CVS/IONIS sigma_                    26 
 project out valence occupied or virtual
 CCRED CVS/IONIS sigma_                    27 
 project out valence occupied or virtual
 CCRED CVS/IONIS sigma_                    28 
 project out valence occupied or virtual
 CCRED CVS/IONIS sigma_                    29 
 project out valence occupied or virtual
 CCRED CVS/IONIS sigma_                    30 
 project out valence occupied or virtual

 REDUCED EIGENVALUES real part:

               Column   1
       1      15.22548044
       2      15.28195603
       3      15.29925901
       4      15.32312879
       5      15.36743539
       6      15.38629326
       7      15.40803711
       8      15.45237949
       9      15.45420681
      10      15.47006331
      11      15.49625312
      12      15.51387731
      13      15.52735719
      14      15.53697101
      15      15.53895153
    ==== End of matrix output ====
      2      15        78.02     0.13E+01
 CCRED CVS/IONIS sigma_                    31 
 project out valence occupied or virtual
 CCRED CVS/IONIS sigma_                    32 
 project out valence occupied or virtual
 CCRED CVS/IONIS sigma_                    33 
 project out valence occupied or virtual
 CCRED CVS/IONIS sigma_                    34 
 project out valence occupied or virtual
 CCRED CVS/IONIS sigma_                    35 
 project out valence occupied or virtual
 CCRED CVS/IONIS sigma_                    36 
 project out valence occupied or virtual
 CCRED CVS/IONIS sigma_                    37 
 project out valence occupied or virtual
 CCRED CVS/IONIS sigma_                    38 
 project out valence occupied or virtual
 CCRED CVS/IONIS sigma_                    39 
 project out valence occupied or virtual
 CCRED CVS/IONIS sigma_                    40 
 project out valence occupied or virtual
 CCRED CVS/IONIS sigma_                    41 
 project out valence occupied or virtual
 CCRED CVS/IONIS sigma_                    42 
 project out valence occupied or virtual
 CCRED CVS/IONIS sigma_                    43 
 project out valence occupied or virtual
 CCRED CVS/IONIS sigma_                    44 
 project out valence occupied or virtual
 CCRED CVS/IONIS sigma_                    45 
 project out valence occupied or virtual

 REDUCED EIGENVALUES real part:

               Column   1
       1      14.95626942
       2      15.02696138
       3      15.04131971
       4      15.05484482
       5      15.08254800
       6      15.10439244
       7      15.13048983
       8      15.16205984
       9      15.16991722
      10      15.18263688
      11      15.20982119
      12      15.22644277
      13      15.24133053
      14      15.24438207
      15      15.24860593
    ==== End of matrix output ====
      3      15        79.95     0.46E+00
 CCRED CVS/IONIS sigma_                    46 
 project out valence occupied or virtual
 CCRED CVS/IONIS sigma_                    47 
 project out valence occupied or virtual
 CCRED CVS/IONIS sigma_                    48 
 project out valence occupied or virtual
 CCRED CVS/IONIS sigma_                    49 
 project out valence occupied or virtual
 CCRED CVS/IONIS sigma_                    50 
 project out valence occupied or virtual
 CCRED CVS/IONIS sigma_                    51 
 project out valence occupied or virtual
 CCRED CVS/IONIS sigma_                    52 
 project out valence occupied or virtual
 CCRED CVS/IONIS sigma_                    53 
 project out valence occupied or virtual
 CCRED CVS/IONIS sigma_                    54 
 project out valence occupied or virtual
 CCRED CVS/IONIS sigma_                    55 
 project out valence occupied or virtual
 CCRED CVS/IONIS sigma_                    56 
 project out valence occupied or virtual
 CCRED CVS/IONIS sigma_                    57 
 project out valence occupied or virtual
 CCRED CVS/IONIS sigma_                    58 
 project out valence occupied or virtual
 CCRED CVS/IONIS sigma_                    59 
 project out valence occupied or virtual
 CCRED CVS/IONIS sigma_                    60 
 project out valence occupied or virtual

 REDUCED EIGENVALUES real part:

               Column   1
       1      14.92708970
       2      14.99617133
       3      15.01039599
       4      15.02485310
       5      15.05359301
       6      15.07515297
       7      15.10059651
       8      15.13176387
       9      15.13904501
      10      15.15253471
      11      15.17952100
      12      15.19586073
      13      15.21110846
      14      15.21415897
      15      15.21801548
    ==== End of matrix output ====
      4      15        75.60     0.27E+00
 CCRED CVS/IONIS sigma_                    61 
 project out valence occupied or virtual
 CCRED CVS/IONIS sigma_                    62 
 project out valence occupied or virtual
 CCRED CVS/IONIS sigma_                    63 
 project out valence occupied or virtual
 CCRED CVS/IONIS sigma_                    64 
 project out valence occupied or virtual
 CCRED CVS/IONIS sigma_                    65 
 project out valence occupied or virtual
 CCRED CVS/IONIS sigma_                    66 
 project out valence occupied or virtual
 CCRED CVS/IONIS sigma_                    67 
 project out valence occupied or virtual
 CCRED CVS/IONIS sigma_                    68 
 project out valence occupied or virtual
 CCRED CVS/IONIS sigma_                    69 
 project out valence occupied or virtual
 CCRED CVS/IONIS sigma_                    70 
 project out valence occupied or virtual
 CCRED CVS/IONIS sigma_                    71 
 project out valence occupied or virtual
 CCRED CVS/IONIS sigma_                    72 
 project out valence occupied or virtual
 CCRED CVS/IONIS sigma_                    73 
 project out valence occupied or virtual
 CCRED CVS/IONIS sigma_                    74 
 project out valence occupied or virtual
 CCRED CVS/IONIS sigma_                    75 
 project out valence occupied or virtual

 REDUCED EIGENVALUES real part:

               Column   1
       1      14.91754833
       2      14.98369109
       3      14.99830658
       4      15.01346550
       5      15.04392483
       6      15.06478515
       7      15.08972327
       8      15.12142034
       9      15.12780342
      10      15.14200290
      11      15.16886938
      12      15.18542584
      13      15.20056135
      14      15.20412647
      15      15.20772083
    ==== End of matrix output ====
      5      15        76.80     0.14E+00
 CCRED CVS/IONIS sigma_                    76 
 project out valence occupied or virtual
 CCRED CVS/IONIS sigma_                    77 
 project out valence occupied or virtual
 CCRED CVS/IONIS sigma_                    78 
 project out valence occupied or virtual
 CCRED CVS/IONIS sigma_                    79 
 project out valence occupied or virtual
 CCRED CVS/IONIS sigma_                    80 
 project out valence occupied or virtual
 CCRED CVS/IONIS sigma_                    81 
 project out valence occupied or virtual
 CCRED CVS/IONIS sigma_                    82 
 project out valence occupied or virtual
 CCRED CVS/IONIS sigma_                    83 
 project out valence occupied or virtual
 CCRED CVS/IONIS sigma_                    84 
 project out valence occupied or virtual
 CCRED CVS/IONIS sigma_                    85 
 project out valence occupied or virtual
 CCRED CVS/IONIS sigma_                    86 
 project out valence occupied or virtual
 CCRED CVS/IONIS sigma_                    87 
 project out valence occupied or virtual
 CCRED CVS/IONIS sigma_                    88 
 project out valence occupied or virtual
 CCRED CVS/IONIS sigma_                    89 
 project out valence occupied or virtual
 CCRED CVS/IONIS sigma_                    90 
 project out valence occupied or virtual

 REDUCED EIGENVALUES real part:

               Column   1
       1      14.91792016
       2      14.98358485
       3      14.99817141
       4      15.01345897
       5      15.04442046
       6      15.06517965
       7      15.08992741
       8      15.12144894
       9      15.12757298
      10      15.14208514
      11      15.16890108
      12      15.18558666
      13      15.20060501
      14      15.20434137
      15      15.20793193
    ==== End of matrix output ====
      6      15        79.90     0.20E+00
 CCRED CVS/IONIS sigma_                    91 
 project out valence occupied or virtual
 CCRED CVS/IONIS sigma_                    92 
 project out valence occupied or virtual
 CCRED CVS/IONIS sigma_                    93 
 project out valence occupied or virtual
 CCRED CVS/IONIS sigma_                    94 
 project out valence occupied or virtual
 CCRED CVS/IONIS sigma_                    95 
 project out valence occupied or virtual
 CCRED CVS/IONIS sigma_                    96 
 project out valence occupied or virtual
 CCRED CVS/IONIS sigma_                    97 
 project out valence occupied or virtual
 CCRED CVS/IONIS sigma_                    98 
 project out valence occupied or virtual
 CCRED CVS/IONIS sigma_                    99 
 project out valence occupied or virtual
 CCRED CVS/IONIS sigma_                   100 
 project out valence occupied or virtual
 CCRED CVS/IONIS sigma_                   101 
 project out valence occupied or virtual
 CCRED CVS/IONIS sigma_                   102 
 project out valence occupied or virtual
 CCRED CVS/IONIS sigma_                   103 
 project out valence occupied or virtual
 CCRED CVS/IONIS sigma_                   104 
 project out valence occupied or virtual
 CCRED CVS/IONIS sigma_                   105 
 project out valence occupied or virtual

 REDUCED EIGENVALUES real part:

               Column   1
       1      14.91960114
       2      14.98469082
       3      14.99914754
       4      15.01452498
       5      15.04555354
       6      15.06622132
       7      15.09094386
       8      15.12239321
       9      15.12830820
      10      15.14305829
      11      15.16983976
      12      15.18653136
      13      15.20152271
      14      15.20537500
      15      15.20894814
    ==== End of matrix output ====
      7      15        77.16     0.14E+00
 CCRED CVS/IONIS sigma_                   106 
 project out valence occupied or virtual
 CCRED CVS/IONIS sigma_                   107 
 project out valence occupied or virtual
 CCRED CVS/IONIS sigma_                   108 
 project out valence occupied or virtual
 CCRED CVS/IONIS sigma_                   109 
 project out valence occupied or virtual
 CCRED CVS/IONIS sigma_                   110 
 project out valence occupied or virtual
 CCRED CVS/IONIS sigma_                   111 
 project out valence occupied or virtual
 CCRED CVS/IONIS sigma_                   112 
 project out valence occupied or virtual
 CCRED CVS/IONIS sigma_                   113 
 project out valence occupied or virtual
 CCRED CVS/IONIS sigma_                   114 
 project out valence occupied or virtual
 CCRED CVS/IONIS sigma_                   115 
 project out valence occupied or virtual
 CCRED CVS/IONIS sigma_                   116 
 project out valence occupied or virtual
 CCRED CVS/IONIS sigma_                   117 
 project out valence occupied or virtual
 CCRED CVS/IONIS sigma_                   118 
 project out valence occupied or virtual
 CCRED CVS/IONIS sigma_                   119 
 project out valence occupied or virtual
 CCRED CVS/IONIS sigma_                   120 
 project out valence occupied or virtual

 REDUCED EIGENVALUES real part:

               Column   1
       1      14.92056146
       2      14.98577388
       3      15.00020355
       4      15.01548502
       5      15.04662636
       6      15.06736467
       7      15.09215387
       8      15.12330107
       9      15.12912142
      10      15.14407762
      11      15.17080906
      12      15.18753412
      13      15.20250126
      14      15.20636633
      15      15.21005109
    ==== End of matrix output ====
      8      15        77.84     0.15E+00
 CCRED CVS/IONIS sigma_                   121 
 project out valence occupied or virtual
 CCRED CVS/IONIS sigma_                   122 
 project out valence occupied or virtual
 CCRED CVS/IONIS sigma_                   123 
 project out valence occupied or virtual
 CCRED CVS/IONIS sigma_                   124 
 project out valence occupied or virtual
 CCRED CVS/IONIS sigma_                   125 
 project out valence occupied or virtual
 CCRED CVS/IONIS sigma_                   126 
 project out valence occupied or virtual
 CCRED CVS/IONIS sigma_                   127 
 project out valence occupied or virtual
 CCRED CVS/IONIS sigma_                   128 
 project out valence occupied or virtual
 CCRED CVS/IONIS sigma_                   129 
 project out valence occupied or virtual
 CCRED CVS/IONIS sigma_                   130 
 project out valence occupied or virtual
 CCRED CVS/IONIS sigma_                   131 
 project out valence occupied or virtual
 CCRED CVS/IONIS sigma_                   132 
 project out valence occupied or virtual
 CCRED CVS/IONIS sigma_                   133 
 project out valence occupied or virtual
 CCRED CVS/IONIS sigma_                   134 
 project out valence occupied or virtual
 CCRED CVS/IONIS sigma_                   135 
 project out valence occupied or virtual

 REDUCED EIGENVALUES real part:

               Column   1
       1      14.92125292
       2      14.98637942
       3      15.00097046
       4      15.01624680
       5      15.04719241
       6      15.06748889
       7      15.09237689
       8      15.12372631
       9      15.12921571
      10      15.14432145
      11      15.17116805
      12      15.18790719
      13      15.20282304
      14      15.20684940
      15      15.21046858
    ==== End of matrix output ====
      9      15        77.64     0.95E-01


--> ERROR (GPOPEN) TRYING TO OPEN A NON-EXISTING OLD FILE
--> A FILE HAS BEEN SPECIFIED TO BE OLD,
--> BUT THE FILE DOES NOT EXIST

--> Offending UNIT number:    13
--> Name of offending file (if any): SIRIFC

### Please report the problem on http://daltonforum.org


 QTRACE dump of internal trace stack

 ========================
      level    module
 ========================
         11    GPOPEN      
         10    LAMMAT      
          9    CCMM_D1AO   
          8    CCMM_TRANSFO
          7    CC_TRDRV    
          6    CCEQ_SOL    
          5    CC_EXCI     
          4    CC_DRV      
          3    CC          
          2    DALTON      
          1    DALTON main 
 ========================


  --- SEVERE ERROR, PROGRAM WILL BE ABORTED ---
     Date and time (Linux)  : Sun Dec  2 15:48:30 2018
     Host name              : n-62-23-30                              

 Reason: ERROR (GPOPEN) TRYING TO OPEN A NON-EXISTING FILE AS OLD

  Total CPU  time used in DALTON:  20 hours  1 minute  24 seconds
  Total wall time used in DALTON:   2 hours 18 minutes 50 seconds


 QTRACE dump of internal trace stack

 ========================
      level    module
 ========================
         11    GPOPEN      
         10    LAMMAT      
          9    CCMM_D1AO   
          8    CCMM_TRANSFO
          7    CC_TRDRV    
          6    CCEQ_SOL    
          5    CC_EXCI     
          4    CC_DRV      
          3    CC          
          2    DALTON      
          1    DALTON main 
 ========================

