

     ************************************************************************
     *************** Dalton - An Electronic Structure Program ***************
     ************************************************************************

    This is output from DALTON release Dalton2017.alpha (2016)
         ( Web site: http://daltonprogram.org )

   ----------------------------------------------------------------------------

    NOTE:
     
    Dalton is an experimental code for the evaluation of molecular
    properties using (MC)SCF, DFT, CI, and CC wave functions.
    The authors accept no responsibility for the performance of
    the code or for the correctness of the results.
     
    The code (in whole or part) is provided under a licence and
    is not to be reproduced for further distribution without
    the written permission of the authors or their representatives.
     
    See the home page "http://daltonprogram.org" for further information.
     
    If results obtained with this code are published,
    the appropriate citations would be both of:
     
       K. Aidas, C. Angeli, K. L. Bak, V. Bakken, R. Bast,
       L. Boman, O. Christiansen, R. Cimiraglia, S. Coriani,
       P. Dahle, E. K. Dalskov, U. Ekstroem,
       T. Enevoldsen, J. J. Eriksen, P. Ettenhuber, B. Fernandez,
       L. Ferrighi, H. Fliegl, L. Frediani, K. Hald, A. Halkier,
       C. Haettig, H. Heiberg, T. Helgaker, A. C. Hennum,
       H. Hettema, E. Hjertenaes, S. Hoest, I.-M. Hoeyvik,
       M. F. Iozzi, B. Jansik, H. J. Aa. Jensen, D. Jonsson,
       P. Joergensen, J. Kauczor, S. Kirpekar,
       T. Kjaergaard, W. Klopper, S. Knecht, R. Kobayashi, H. Koch,
       J. Kongsted, A. Krapp, K. Kristensen, A. Ligabue,
       O. B. Lutnaes, J. I. Melo, K. V. Mikkelsen, R. H. Myhre,
       C. Neiss, C. B. Nielsen, P. Norman, J. Olsen,
       J. M. H. Olsen, A. Osted, M. J. Packer, F. Pawlowski,
       T. B. Pedersen, P. F. Provasi, S. Reine, Z. Rinkevicius,
       T. A. Ruden, K. Ruud, V. Rybkin, P. Salek, C. C. M. Samson,
       A. Sanchez de Meras, T. Saue, S. P. A. Sauer,
       B. Schimmelpfennig, K. Sneskov, A. H. Steindal,
       K. O. Sylvester-Hvid, P. R. Taylor, A. M. Teale,
       E. I. Tellgren, D. P. Tew, A. J. Thorvaldsen, L. Thoegersen,
       O. Vahtras, M. A. Watson, D. J. D. Wilson, M. Ziolkowski
       and H. Agren,
       "The Dalton quantum chemistry program system",
       WIREs Comput. Mol. Sci. 2014, 4:269–284 (doi: 10.1002/wcms.1172)
     
    and
     
       Dalton, a Molecular Electronic Structure Program,
       Release Dalton2017.alpha (2016), see http://daltonprogram.org
   ----------------------------------------------------------------------------

    Authors in alphabetical order (major contribution(s) in parenthesis):

  Kestutis Aidas,           Vilnius University,           Lithuania   (QM/MM)
  Celestino Angeli,         University of Ferrara,        Italy       (NEVPT2)
  Keld L. Bak,              UNI-C,                        Denmark     (AOSOPPA, non-adiabatic coupling, magnetic properties)
  Vebjoern Bakken,          University of Oslo,           Norway      (DALTON; geometry optimizer, symmetry detection)
  Radovan Bast,             UiT The Arctic U. of Norway,  Norway      (DALTON installation and execution frameworks)
  Pablo Baudin,             University of Valencia,       Spain       (Cholesky excitation energies)
  Linus Boman,              NTNU,                         Norway      (Cholesky decomposition and subsystems)
  Ove Christiansen,         Aarhus University,            Denmark     (CC module)
  Renzo Cimiraglia,         University of Ferrara,        Italy       (NEVPT2)
  Sonia Coriani,            University of Trieste,        Italy       (CC module, MCD in RESPONS)
  Janusz Cukras,            University of Trieste,        Italy       (MChD in RESPONS)
  Paal Dahle,               University of Oslo,           Norway      (Parallelization)
  Erik K. Dalskov,          UNI-C,                        Denmark     (SOPPA)
  Thomas Enevoldsen,        Univ. of Southern Denmark,    Denmark     (SOPPA)
  Janus J. Eriksen,         Aarhus University,            Denmark     (Polarizable embedding model, TDA)
  Rasmus Faber,             University of Copenhagen,     Denmark     (Vib.avg. NMR with SOPPA, parallel AO-SOPPA)
  Berta Fernandez,          U. of Santiago de Compostela, Spain       (doublet spin, ESR in RESPONS)
  Lara Ferrighi,            Aarhus University,            Denmark     (PCM Cubic response)
  Heike Fliegl,             University of Oslo,           Norway      (CCSD(R12))
  Luca Frediani,            UiT The Arctic U. of Norway,  Norway      (PCM)
  Bin Gao,                  UiT The Arctic U. of Norway,  Norway      (Gen1Int library)
  Christof Haettig,         Ruhr-University Bochum,       Germany     (CC module)
  Kasper Hald,              Aarhus University,            Denmark     (CC module)
  Asger Halkier,            Aarhus University,            Denmark     (CC module)
  Frederik Beyer Hansen,    University of Copenhagen,     Denmark     (Parallel AO-SOPPA)
  Erik D. Hedegaard,        Univ. of Southern Denmark,    Denmark     (Polarizable embedding model, QM/MM)
  Hanne Heiberg,            University of Oslo,           Norway      (geometry analysis, selected one-electron integrals)
  Trygve Helgaker,          University of Oslo,           Norway      (DALTON; ABACUS, ERI, DFT modules, London, and much more)
  Alf Christian Hennum,     University of Oslo,           Norway      (Parity violation)
  Hinne Hettema,            University of Auckland,       New Zealand (quadratic response in RESPONS; SIRIUS supersymmetry)
  Eirik Hjertenaes,         NTNU,                         Norway      (Cholesky decomposition)
  Pi A. B. Haase,           University of Copenhagen,     Denmark     (Triplet AO-SOPPA)
  Maria Francesca Iozzi,    University of Oslo,           Norway      (RPA)
  Brano Jansik              Technical Univ. of Ostrava    Czech Rep.  (DFT cubic response)
  Hans Joergen Aa. Jensen,  Univ. of Southern Denmark,    Denmark     (DALTON; SIRIUS, RESPONS, ABACUS modules, London, and much more)
  Dan Jonsson,              UiT The Arctic U. of Norway,  Norway      (cubic response in RESPONS module)
  Poul Joergensen,          Aarhus University,            Denmark     (RESPONS, ABACUS, and CC modules)
  Maciej Kaminski,          University of Warsaw,         Poland      (CPPh in RESPONS)
  Joanna Kauczor,           Linkoeping University,        Sweden      (Complex polarization propagator (CPP) module)
  Sheela Kirpekar,          Univ. of Southern Denmark,    Denmark     (Mass-velocity & Darwin integrals)
  Wim Klopper,              KIT Karlsruhe,                Germany     (R12 code in CC, SIRIUS, and ABACUS modules)
  Stefan Knecht,            ETH Zurich,                   Switzerland (Parallel CI and MCSCF)
  Rika Kobayashi,           Australian National Univ.,    Australia   (DIIS in CC, London in MCSCF)
  Henrik Koch,              NTNU,                         Norway      (CC module, Cholesky decomposition)
  Jacob Kongsted,           Univ. of Southern Denmark,    Denmark     (Polarizable embedding model, QM/MM)
  Andrea Ligabue,           University of Modena,         Italy       (CTOCD, AOSOPPA)
  Nanna H. List             Univ. of Southern Denmark,    Denmark     (Polarizable embedding model)
  Ola B. Lutnaes,           University of Oslo,           Norway      (DFT Hessian)
  Juan I. Melo,             University of Buenos Aires,   Argentina   (LRESC, Relativistic Effects on NMR Shieldings)
  Kurt V. Mikkelsen,        University of Copenhagen,     Denmark     (MC-SCRF and QM/MM)
  Rolf H. Myhre,            NTNU,                         Norway      (Cholesky, subsystems and ECC2)
  Christian Neiss,          Univ. Erlangen-Nuernberg,     Germany     (CCSD(R12))
  Christian B. Nielsen,     University of Copenhagen,     Denmark     (QM/MM)
  Patrick Norman,           Linkoeping University,        Sweden      (Cubic response and complex frequency response in RESPONS)
  Jeppe Olsen,              Aarhus University,            Denmark     (SIRIUS CI/density modules)
  Jogvan Magnus H. Olsen,   Univ. of Southern Denmark,    Denmark     (Polarizable embedding model, QM/MM)
  Anders Osted,             Copenhagen University,        Denmark     (QM/MM)
  Martin J. Packer,         University of Sheffield,      UK          (SOPPA)
  Filip Pawlowski,          Kazimierz Wielki University,  Poland      (CC3)
  Morten N. Pedersen,       Univ. of Southern Denmark,    Denmark     (Polarizable embedding model)
  Thomas B. Pedersen,       University of Oslo,           Norway      (Cholesky decomposition)
  Patricio F. Provasi,      University of Northeastern,   Argentina   (Analysis of coupling constants in localized orbitals)
  Zilvinas Rinkevicius,     KTH Stockholm,                Sweden      (open-shell DFT, ESR)
  Elias Rudberg,            KTH Stockholm,                Sweden      (DFT grid and basis info)
  Torgeir A. Ruden,         University of Oslo,           Norway      (Numerical derivatives in ABACUS)
  Kenneth Ruud,             UiT The Arctic U. of Norway,  Norway      (DALTON; ABACUS magnetic properties and much more)
  Pawel Salek,              KTH Stockholm,                Sweden      (DALTON; DFT code)
  Claire C. M. Samson       University of Karlsruhe       Germany     (Boys localization, r12 integrals in ERI)
  Alfredo Sanchez de Meras, University of Valencia,       Spain       (CC module, Cholesky decomposition)
  Trond Saue,               Paul Sabatier University,     France      (direct Fock matrix construction)
  Stephan P. A. Sauer,      University of Copenhagen,     Denmark     (SOPPA(CCSD), SOPPA prop., AOSOPPA, vibrational g-factors)
  Bernd Schimmelpfennig,    Forschungszentrum Karlsruhe,  Germany     (AMFI module)
  Kristian Sneskov,         Aarhus University,            Denmark     (Polarizable embedding model, QM/MM)
  Arnfinn H. Steindal,      UiT The Arctic U. of Norway,  Norway      (parallel QM/MM, Polarizable embedding model)
  Casper Steinmann,         Univ. of Southern Denmark,    Denmark     (QFIT, Polarizable embedding model)
  K. O. Sylvester-Hvid,     University of Copenhagen,     Denmark     (MC-SCRF)
  Peter R. Taylor,          VLSCI/Univ. of Melbourne,     Australia   (Symmetry handling ABACUS, integral transformation)
  Andrew M. Teale,          University of Nottingham,     England     (DFT-AC, DFT-D)
  David P. Tew,             University of Bristol,        England     (CCSD(R12))
  Olav Vahtras,             KTH Stockholm,                Sweden      (triplet response, spin-orbit, ESR, TDDFT, open-shell DFT)
  David J. Wilson,          La Trobe University,          Australia   (DFT Hessian and DFT magnetizabilities)
  Hans Agren,               KTH Stockholm,                Sweden      (SIRIUS module, RESPONS, MC-SCRF solvation model)
 --------------------------------------------------------------------------------

     Date and time (Linux)  : Sun Dec 16 02:51:50 2018
     Host name              : n-62-23-10                              

 * Work memory size             :  1280000000 =  9.537 gigabytes.

 * Directories for basis set searches:
   1) /zhome/37/3/129401/NH3NH4/CCSD/AIMD_SAMPLING/nh4_4h2o_nd
   2) /zhome/9a/4/124800/source/dalton/build-mlcc/basis


Compilation information
-----------------------

 Who compiled             | rfaber
 Host                     | hpclogin1
 System                   | Linux-2.6.32-696.1.1.el6.x86_64
 CMake generator          | Unix Makefiles
 Processor                | x86_64
 64-bit integers          | ON
 MPI                      | OFF
 Fortran compiler         | /opt/intel/2016update2/compilers_and_libraries_201
                          | 6.2.181/linux/bin/intel64/ifort
 Fortran compiler version | ifort (IFORT) 16.0.2 20160204
 C compiler               | /opt/intel/2016update2/compilers_and_libraries_201
                          | 6.2.181/linux/bin/intel64/icc
 C compiler version       | icc (ICC) 16.0.2 20160204
 C++ compiler             | /opt/intel/2016update2/compilers_and_libraries_201
                          | 6.2.181/linux/bin/intel64/icpc
 C++ compiler version     | icpc (ICC) 16.0.2 20160204
 Static linking           | OFF
 Last Git revision        | bb4d1599ca5680a9f3980451fc8bbefdba436d59
 Git branch               | mlcc
 Configuration time       | 2017-06-13 16:11:03.928841


   Content of the .dal input file
 ----------------------------------

**DALTON
.RUN WAVE FUNCTIONS
*QMMM
.QMMM
**INTEGRALS
.DIPLEN
**WAVE FUNCTIONS
.CC
*PRINT
!To check the origin of excit
.PRINTL
   0 11
*SCF INP
.THRESH
1.0D-7
*CC INP
.CCSD
.THRLEQ
 1.0D-9
.THRENR
 1.0D-10
.FROIMP
4
0
.PRINT
 1
.MAX IT
 1200
.MAXRED
 1200
.MXLRV
1199
*CCSLV
.CCMM
.MXSLIT
200
.MXINIT
4 5
*CCEXCI
.NCCEXC
 15
.CVSEPARA
1
1
*CCLRSD
.DIPOLE
**END OF DALTON INPUT


   Content of the .mol file
 ----------------------------

ATOMBASIS


Atomtypes=4 Charge=1 Nosymm Angstrom
   7.00000    1    Basis=6-311G**
N          0.000000        0.000000        0.000000
   1.00000    4    Basis=6-311G**
H          0.562401        0.625602        0.675605
H          0.716254       -0.664503       -0.308453
H         -0.333277        0.519695       -0.825004
H         -0.649365       -0.533474        0.540901
   8.00000    4    Basis=6-311G**
O         -0.471273        1.070345       -2.372923
O          1.751150       -2.167218       -1.136512
O         -1.041535       -1.947882        1.803378
O          2.433284        1.545658        1.450011
   1.00000    8    Basis=6-311G**
H          0.059424        0.870205       -3.182872
H         -1.375177        1.414755       -2.697103
H          1.324140       -2.434778       -1.985230
H          2.020282       -3.006613       -0.691225
H         -0.222446       -1.863017        2.410448
H         -1.753247       -1.514701        2.387530
H          1.866520        1.851820        2.206883
H          3.354639        1.881356        1.736040


       *******************************************************************
       *********** Output from DALTON general input processing ***********
       *******************************************************************

 --------------------------------------------------------------------------------
   Overall default print level:    0
   Print level for DALTON.STAT:    1

    HERMIT 1- and 2-electron integral sections will be executed
    "Old" integral transformation used (limited to max 255 basis functions)
    Wave function sections will be executed (SIRIUS module)
 --------------------------------------------------------------------------------


 Changes of defaults for *QMMM  :
 --------------------------------

 +------------------+
 |  WORD: | CHANGE: |
 +------------------+
 |   QMMM |       T |
 +------------------+
 


   ****************************************************************************
   *************** Output of molecule and basis set information ***************
   ****************************************************************************


    The two title cards from your ".mol" input:
    ------------------------------------------------------------------------
 1:                                                                         
 2:                                                                         
    ------------------------------------------------------------------------

  Coordinates are entered in Angstrom and converted to atomic units.
          - Conversion factor : 1 bohr = 0.52917721 A

  Atomic type no.    1
  --------------------
  Nuclear charge:   7.00000
  Number of symmetry independent centers:    1
  Number of basis sets to read;    2
  The basis set is "6-311G**" from the basis set library.
  Basis set file used for this atomic type with Z =   7 :
     "/zhome/9a/4/124800/source/dalton/build-mlcc/basis/6-311G**"

  Info about the basis set file: your basis has no documentation.
  Basis set: 6-311G**                                                                        

  Atomic type no.    2
  --------------------
  Nuclear charge:   1.00000
  Number of symmetry independent centers:    4
  Number of basis sets to read;    2
  The basis set is "6-311G**" from the basis set library.
  Basis set file used for this atomic type with Z =   1 :
     "/zhome/9a/4/124800/source/dalton/build-mlcc/basis/6-311G**"

  Info about the basis set file: your basis has no documentation.
  Basis set: 6-311G**                                                                        

  Atomic type no.    3
  --------------------
  Nuclear charge:   8.00000
  Number of symmetry independent centers:    4
  Number of basis sets to read;    2
  The basis set is "6-311G**" from the basis set library.
  Basis set file used for this atomic type with Z =   8 :
     "/zhome/9a/4/124800/source/dalton/build-mlcc/basis/6-311G**"

  Info about the basis set file: your basis has no documentation.
  Basis set: 6-311G**                                                                        

  Atomic type no.    4
  --------------------
  Nuclear charge:   1.00000
  Number of symmetry independent centers:    8
  Number of basis sets to read;    2
  The basis set is "6-311G**" from the basis set library.
  Basis set file used for this atomic type with Z =   1 :
     "/zhome/9a/4/124800/source/dalton/build-mlcc/basis/6-311G**"

  Info about the basis set file: your basis has no documentation.
  Basis set: 6-311G**                                                                        


                         SYMGRP: Point group information
                         -------------------------------

@    Point group: C1 


                                 Isotopic Masses
                                 ---------------

                           N          14.003074
                           H           1.007825
                           H           1.007825
                           H           1.007825
                           H           1.007825
                           O          15.994915
                           O          15.994915
                           O          15.994915
                           O          15.994915
                           H           1.007825
                           H           1.007825
                           H           1.007825
                           H           1.007825
                           H           1.007825
                           H           1.007825
                           H           1.007825
                           H           1.007825

                       Total mass:    90.076634 amu
                       Natural abundance:  98.500 %

 Center-of-mass coordinates (a.u.):    1.014259   -0.563371   -0.080262


  Atoms and basis sets
  --------------------

  Number of atom types :    4
  Total number of atoms:   17

  label    atoms   charge   prim   cont     basis
  ----------------------------------------------------------------------
  N           1    7.0000    31    18      [11s5p1d|4s3p1d]                                   
  H           4    1.0000     8     6      [5s1p|3s1p]                                        
  O           4    8.0000    31    18      [11s5p1d|4s3p1d]                                   
  H           8    1.0000     8     6      [5s1p|3s1p]                                        
  ----------------------------------------------------------------------
  total:     17   51.0000   251   162
  ----------------------------------------------------------------------
  Spherical harmonic basis used.

  Threshold for neglecting AO integrals:  1.00D-12


  Cartesian Coordinates (a.u.)
  ----------------------------

  Total number of coordinates:   51
  N       :     1  x   0.0000000000    2  y   0.0000000000    3  z   0.0000000000
  H       :     4  x   1.0627838624    5  y   1.1822164432    6  z   1.2767084187
  H       :     7  x   1.3535238959    8  y  -1.2557286792    9  z  -0.5828916924
  H       :    10  x  -0.6298022538   11  y   0.9820812185   12  z  -1.5590316120
  H       :    13  x  -1.2271220052   14  y  -1.0081197548   15  z   1.0221547507
  O       :    16  x  -0.8905769001   17  y   2.0226589093   18  z  -4.4841745857
  O       :    19  x   3.3091939038   20  y  -4.0954484732   21  z  -2.1476964178
  O       :    22  x  -1.9682158996   23  y  -3.6809635038   24  z   3.4078905198
  O       :    25  x   4.5982403443   26  y   2.9208703029   27  z   2.7401236682
  H       :    28  x   0.1122950853   29  y   1.6444491226   30  z  -6.0147563709
  H       :    31  x  -2.5987079034   32  y   2.6734994840   33  z  -5.0967860009
  H       :    34  x   2.5022619511   35  y  -4.6010635952   36  z  -3.7515409951
  H       :    37  x   3.8177796753   38  y  -5.6816751338   39  z  -1.3062259407
  H       :    40  x  -0.4203620176   41  y  -3.5205918962   42  z   4.5550865585
  H       :    43  x  -3.3131566595   44  y  -2.8623700513   45  z   4.5117778152
  H       :    46  x   3.5272116068   47  y   3.4994326328   48  z   4.1704044599
  H       :    49  x   6.3393489582   50  y   3.5552475836   51  z   3.2806401420

  Max    interatomic separation is    6.4994 Angstrom (   12.2820 Bohr)
  between atoms   17 and   11, "H     " and "H     ".

  Min HX interatomic separation is    0.9870 Angstrom (    1.8652 Bohr)

  Min YX interatomic separation is    2.6455 Angstrom (    4.9992 Bohr)


  Bond distances (Angstrom):
  --------------------------

                  atom 1     atom 2       distance
                  ------     ------       --------
  bond distance:  H          N            1.078942
  bond distance:  H          N            1.024562
  bond distance:  H          N            1.030431
  bond distance:  H          N            0.999421
  bond distance:  H          O            0.988794
  bond distance:  H          O            1.020173
  bond distance:  H          O            0.987040
  bond distance:  H          O            0.987571
  bond distance:  H          O            1.023056
  bond distance:  H          O            1.017553
  bond distance:  H          O            0.993887
  bond distance:  H          O            1.021470


  Bond angles (degrees):
  ----------------------

                  atom 1     atom 2     atom 3         angle
                  ------     ------     ------         -----
  bond angle:     H          N          H            101.547
  bond angle:     H          N          H            112.179
  bond angle:     H          N          H            108.016
  bond angle:     H          N          H            108.190
  bond angle:     H          N          H            105.722
  bond angle:     H          N          H            119.497
  bond angle:     H          O          H            106.474
  bond angle:     H          O          H            105.974
  bond angle:     H          O          H            100.604
  bond angle:     H          O          H            101.530




 Principal moments of inertia (u*A**2) and principal axes
 --------------------------------------------------------

   IA     367.416846         -0.091631   -0.590503    0.801817
   IB     390.290600          0.549753    0.641376    0.535171
   IC     485.494762          0.830286   -0.489840   -0.265861


 Rotational constants
 --------------------

               A                   B                   C

           1375.4922           1294.8788           1040.9567 MHz
            0.045881            0.043193            0.034723 cm-1


@  Nuclear repulsion energy :  196.500129820921 Hartree


                     .---------------------------------------.
                     | Starting in Integral Section (HERMIT) |
                     `---------------------------------------'



 ***************************************************************************************
 ****************** Output from **INTEGRALS input processing (HERMIT) ******************
 ***************************************************************************************



    *************************************************************************
    ****************** Output from HERMIT input processing ******************
    *************************************************************************


 Default print level:        1

 * Nuclear model: Point charge

 Calculation of one- and two-electron Hamiltonian integrals.

 The following one-electron property integrals are calculated as requested:
          - overlap integrals
          - dipole length integrals

 Center of mass  (bohr):      1.014258718888     -0.563370728593     -0.080262249305
 Operator center (bohr):      0.000000000000      0.000000000000      0.000000000000
 Gauge origin    (bohr):      0.000000000000      0.000000000000      0.000000000000
 Dipole origin   (bohr):      0.000000000000      0.000000000000      0.000000000000
 
  *********************************** 
  QMMM electrostatic potential: 
  Multipole order                                    0
  Isotropic polarization  
  *********************************** 
 
  ---------------- 
  QMMM information 
  ---------------- 
 
  MM coordinates in au 
  -------------------- 
     1     -0.786209      8.497987     -4.840573
     2     -0.518811      6.948733     -3.685346
     3     -1.984991      9.683085     -4.159091
     4      8.462076     -9.675260     11.206777
     5      8.938526     -9.795471     12.980054
     6      8.695112    -11.488010     10.749117
     7      1.561127     10.174348      0.492512
     8      2.631803     11.666973      0.164782
     9      2.056551      8.688999     -0.593591
    10     -5.855095      4.520036     -4.066443
    11     -6.395952      5.127432     -2.312654
    12     -6.752214      5.923832     -4.889158
    13      4.550848     -9.047723      0.005716
    14      5.840868     -8.969564      1.436029
    15      5.582308     -9.759084     -1.300426
    16     -6.390625     -3.567860     -9.129630
    17     -7.213258     -2.130507     -8.215558
    18     -7.554127     -4.464973    -10.463208
    19     -1.147062     -8.664115      1.729814
    20     -1.829945     -6.886313      2.089601
    21      0.666809     -8.648371      1.166513
    22      7.391813    -11.349722     -4.067207
    23      8.049903    -12.811075     -3.054054
    24      5.762015    -11.848152     -4.848399
    25     -6.267071      0.454593      1.427098
    26     -7.829232      1.231453      1.024653
    27     -6.611107     -0.161957      3.165603
    28      2.048569      1.424298     -8.273845
    29      3.044853     -0.082349     -7.962983
    30      3.229550      2.861805     -7.755400
    31      2.475428     -4.175378      6.279781
    32      3.816687     -3.831883      5.026964
    33      2.858664     -5.970493      6.888675
    34     -6.875007      7.928771     10.575958
    35     -7.820686      9.294437     11.571349
    36     -5.310353      7.736036     11.444164
    37    -11.368398     10.132738     -1.745597
    38    -11.370461      9.074268     -0.128736
    39    -10.602101     11.830481     -1.278318
    40     10.216948     -9.874989     -7.717422
    41     11.301571     -8.657039     -6.841141
    42      9.258740    -10.777067     -6.433913
    43     -8.709935      8.759922     -5.748728
    44     -9.994574      8.526097     -7.033487
    45     -9.448912      9.457990     -4.265915
    46    -11.322413      1.956449      0.031126
    47    -11.929299      2.937681     -1.491251
    48    -12.013616      2.929281      1.423676
    49      8.881444     -9.283446      3.043680
    50      9.185853     -8.306941      4.717236
    51      9.674211    -10.959726      3.336451
    52      4.472764     -0.574713      9.643376
    53      3.261182     -1.735233      8.726665
    54      4.283040     -1.269664     11.386549
    55    -10.225718     -9.030240      0.045850
    56    -11.828903     -8.608672      0.909053
    57     -9.997432     -7.654313     -0.990243
    58     11.697628      9.835684      3.997330
    59     10.849273      9.091359      5.685525
    60     13.525250     10.006553      4.720379
    61      1.757982     -6.660538     -6.644256
    62      1.441865     -6.710382     -8.471270
    63      2.226421     -8.426030     -6.138830
    64     -9.032672      3.479460    -11.664656
    65     -8.111402      4.799311    -12.402214
    66    -10.082687      2.809492    -13.156982
    67     -1.558319      4.844579      1.914585
    68     -2.525524      6.062325      0.970267
    69     -2.962737      3.652015      2.308482
    70      1.198648      4.475429      6.468861
    71      0.561661      3.952691      8.227046
    72     -0.197102      4.745322      5.253102
    73      9.922888     -3.289820     -1.270026
    74     11.027795     -2.279110     -0.230127
    75      8.662168     -2.095175     -1.972050
    76     -5.338429    -11.626971     -7.563090
    77     -4.819903    -10.110176     -6.678215
    78     -6.537428    -12.535271     -6.529372
    79    -10.299077      1.709777      7.146770
    80     -8.677910      0.760182      7.058310
    81    -11.776388      0.564920      7.596372
    82     -2.855633     -1.908773     11.027370
    83     -4.337109     -2.152190     12.372250
    84     -1.768753     -3.388651     10.971967
    85     -6.440748     -4.824446      0.411819
    86     -5.899848     -5.299837     -1.308849
    87     -6.019783     -2.952470      0.624789
    88     -8.554979      0.926631     -6.663116
    89     -9.055229      2.067580     -7.966057
    90     -7.521218      1.946488     -5.454058
    91      5.872277      4.881820     10.170279
    92      4.968891      3.328694      9.491773
    93      4.641472      6.185127     10.701421
    94      5.278470     -2.472975     -8.068078
    95      7.071109     -2.215577     -7.314021
    96      4.639482     -4.159223     -7.587997
    97     -0.474333      2.947997     11.197037
    98     -1.417801      1.284549     10.952788
    99      0.688318      2.464369     12.579138
   100      2.111189      8.454321     11.442326
   101      1.621591      9.596362     10.018655
   102      0.369666      8.047826     12.065642
   103     -7.703387     -6.273794      5.166855
   104     -9.578156     -6.548997      5.256339
   105     -7.495599     -6.207860      3.315802
   106     10.158746      4.030960      4.093289
   107     11.107761      3.101906      5.365928
   108     10.836570      5.808007      4.217986
   109     -8.445479     -6.348386     10.898750
   110     -9.624795     -6.237003      9.480229
   111     -8.527476     -8.160767     11.182127
   112      9.220267     -1.587355      7.718462
   113      7.603188     -1.002880      8.460882
   114      8.744579     -1.727079      5.984508
   115     10.826967     -6.521218      7.421863
   116     10.191981     -7.707337      8.744298
   117     10.089030     -4.889130      7.888624
   118     -5.570308      7.460197      0.248539
   119     -5.960914      7.856446      2.024515
   120     -5.701803      9.130187     -0.532878
   121      6.397927      4.198146     -6.655222
   122      5.908871      5.015991     -5.039629
   123      7.634562      5.286246     -7.542239
   124      8.029511      9.068722      7.876781
   125      7.761725      7.300766      8.494534
   126      6.622806      9.239377      6.728122
   127     -4.115788     -9.853990      5.592284
   128     -2.796900     -9.464901      4.315369
   129     -5.266810     -8.293964      5.525554
   130      3.307229      9.026413      5.738365
   131      2.542630      9.162390      4.092062
   132      2.539234      7.678184      6.764894
   133     -7.029186      9.484282      4.838716
   134     -5.904196     11.031992      4.891360
   135     -6.707146      8.683995      6.448830
   136     10.744835      6.956129     -9.805124
   137      9.962054      7.632131    -11.377306
   138     12.247064      5.826356    -10.307326
   139      3.740981      5.405673     -2.256554
   140      2.602737      4.330665     -3.112540
   141      4.540670      4.327979     -0.982597
   142     -3.889869     11.650364     -1.853481
   143     -4.503939     13.335992     -2.318584
   144     -2.362636     11.913642     -0.686369
   145     -2.589972      7.046985    -10.060171
   146     -2.237946      5.322187    -10.709692
   147     -2.665083      7.062606     -8.104073
   148      0.241310     -6.484060     11.660139
   149      1.681091     -7.148280     10.716977
   150     -0.939899     -8.031266     11.558213
   151     -2.520054    -10.899734     10.751910
   152     -3.527898    -10.601724      9.090093
   153     -3.649713    -11.828272     11.935399
   154      9.304467     -0.406987     -6.212323
   155     11.110002     -0.623300     -6.555991
   156      8.554613      1.341258     -6.635535
   157      3.034585     10.961251     -6.568849
   158      3.131601     10.279154     -8.326636
   159      1.849530      9.690419     -5.734476
   160      3.993394     -8.791134      8.294416
   161      3.742312    -10.084338      7.020512
   162      5.636832     -9.062450      9.238351
   163      7.067449     -2.073812      3.246701
   164      6.303762     -0.396782      2.943375
   165      7.738733     -2.527822      1.708779
   166     -9.035372    -10.969346    -10.630051
   167    -10.558055    -10.774447     -9.577542
   168     -7.542613    -11.254018     -9.524480
   169     -6.075116     -1.452050      7.107549
   170     -6.862508     -3.133461      6.599007
   171     -4.593641     -1.677268      8.371698
   172    -10.686475     -5.598950     -5.341360
   173     -9.408251     -4.672049     -6.294583
   174    -11.858557     -4.479327     -4.122902
   175     -3.775401     -5.564835     -4.956043
   176     -1.991819     -5.710603     -5.599799
   177     -4.539268     -5.116088     -6.636556
 
  MM charges 
  ---------- 
     1     -0.674440
     2      0.337220
     3      0.337220
     4     -0.674440
     5      0.337220
     6      0.337220
     7     -0.674440
     8      0.337220
     9      0.337220
    10     -0.674440
    11      0.337220
    12      0.337220
    13     -0.674440
    14      0.337220
    15      0.337220
    16     -0.674440
    17      0.337220
    18      0.337220
    19     -0.674440
    20      0.337220
    21      0.337220
    22     -0.674440
    23      0.337220
    24      0.337220
    25     -0.674440
    26      0.337220
    27      0.337220
    28     -0.674440
    29      0.337220
    30      0.337220
    31     -0.674440
    32      0.337220
    33      0.337220
    34     -0.674440
    35      0.337220
    36      0.337220
    37     -0.674440
    38      0.337220
    39      0.337220
    40     -0.674440
    41      0.337220
    42      0.337220
    43     -0.674440
    44      0.337220
    45      0.337220
    46     -0.674440
    47      0.337220
    48      0.337220
    49     -0.674440
    50      0.337220
    51      0.337220
    52     -0.674440
    53      0.337220
    54      0.337220
    55     -0.674440
    56      0.337220
    57      0.337220
    58     -0.674440
    59      0.337220
    60      0.337220
    61     -0.674440
    62      0.337220
    63      0.337220
    64     -0.674440
    65      0.337220
    66      0.337220
    67     -0.674440
    68      0.337220
    69      0.337220
    70     -0.674440
    71      0.337220
    72      0.337220
    73     -0.674440
    74      0.337220
    75      0.337220
    76     -0.674440
    77      0.337220
    78      0.337220
    79     -0.674440
    80      0.337220
    81      0.337220
    82     -0.674440
    83      0.337220
    84      0.337220
    85     -0.674440
    86      0.337220
    87      0.337220
    88     -0.674440
    89      0.337220
    90      0.337220
    91     -0.674440
    92      0.337220
    93      0.337220
    94     -0.674440
    95      0.337220
    96      0.337220
    97     -0.674440
    98      0.337220
    99      0.337220
   100     -0.674440
   101      0.337220
   102      0.337220
   103     -0.674440
   104      0.337220
   105      0.337220
   106     -0.674440
   107      0.337220
   108      0.337220
   109     -0.674440
   110      0.337220
   111      0.337220
   112     -0.674440
   113      0.337220
   114      0.337220
   115     -0.674440
   116      0.337220
   117      0.337220
   118     -0.674440
   119      0.337220
   120      0.337220
   121     -0.674440
   122      0.337220
   123      0.337220
   124     -0.674440
   125      0.337220
   126      0.337220
   127     -0.674440
   128      0.337220
   129      0.337220
   130     -0.674440
   131      0.337220
   132      0.337220
   133     -0.674440
   134      0.337220
   135      0.337220
   136     -0.674440
   137      0.337220
   138      0.337220
   139     -0.674440
   140      0.337220
   141      0.337220
   142     -0.674440
   143      0.337220
   144      0.337220
   145     -0.674440
   146      0.337220
   147      0.337220
   148     -0.674440
   149      0.337220
   150      0.337220
   151     -0.674440
   152      0.337220
   153      0.337220
   154     -0.674440
   155      0.337220
   156      0.337220
   157     -0.674440
   158      0.337220
   159      0.337220
   160     -0.674440
   161      0.337220
   162      0.337220
   163     -0.674440
   164      0.337220
   165      0.337220
   166     -0.674440
   167      0.337220
   168      0.337220
   169     -0.674440
   170      0.337220
   171      0.337220
   172     -0.674440
   173      0.337220
   174      0.337220
   175     -0.674440
   176      0.337220
   177      0.337220
 
  MM isotropic polarizabilities in au 
  ----------------------------------- 
     1      5.739350
     2      2.308390
     3      2.308390
     4      5.739350
     5      2.308390
     6      2.308390
     7      5.739350
     8      2.308390
     9      2.308390
    10      5.739350
    11      2.308390
    12      2.308390
    13      5.739350
    14      2.308390
    15      2.308390
    16      5.739350
    17      2.308390
    18      2.308390
    19      5.739350
    20      2.308390
    21      2.308390
    22      5.739350
    23      2.308390
    24      2.308390
    25      5.739350
    26      2.308390
    27      2.308390
    28      5.739350
    29      2.308390
    30      2.308390
    31      5.739350
    32      2.308390
    33      2.308390
    34      5.739350
    35      2.308390
    36      2.308390
    37      5.739350
    38      2.308390
    39      2.308390
    40      5.739350
    41      2.308390
    42      2.308390
    43      5.739350
    44      2.308390
    45      2.308390
    46      5.739350
    47      2.308390
    48      2.308390
    49      5.739350
    50      2.308390
    51      2.308390
    52      5.739350
    53      2.308390
    54      2.308390
    55      5.739350
    56      2.308390
    57      2.308390
    58      5.739350
    59      2.308390
    60      2.308390
    61      5.739350
    62      2.308390
    63      2.308390
    64      5.739350
    65      2.308390
    66      2.308390
    67      5.739350
    68      2.308390
    69      2.308390
    70      5.739350
    71      2.308390
    72      2.308390
    73      5.739350
    74      2.308390
    75      2.308390
    76      5.739350
    77      2.308390
    78      2.308390
    79      5.739350
    80      2.308390
    81      2.308390
    82      5.739350
    83      2.308390
    84      2.308390
    85      5.739350
    86      2.308390
    87      2.308390
    88      5.739350
    89      2.308390
    90      2.308390
    91      5.739350
    92      2.308390
    93      2.308390
    94      5.739350
    95      2.308390
    96      2.308390
    97      5.739350
    98      2.308390
    99      2.308390
   100      5.739350
   101      2.308390
   102      2.308390
   103      5.739350
   104      2.308390
   105      2.308390
   106      5.739350
   107      2.308390
   108      2.308390
   109      5.739350
   110      2.308390
   111      2.308390
   112      5.739350
   113      2.308390
   114      2.308390
   115      5.739350
   116      2.308390
   117      2.308390
   118      5.739350
   119      2.308390
   120      2.308390
   121      5.739350
   122      2.308390
   123      2.308390
   124      5.739350
   125      2.308390
   126      2.308390
   127      5.739350
   128      2.308390
   129      2.308390
   130      5.739350
   131      2.308390
   132      2.308390
   133      5.739350
   134      2.308390
   135      2.308390
   136      5.739350
   137      2.308390
   138      2.308390
   139      5.739350
   140      2.308390
   141      2.308390
   142      5.739350
   143      2.308390
   144      2.308390
   145      5.739350
   146      2.308390
   147      2.308390
   148      5.739350
   149      2.308390
   150      2.308390
   151      5.739350
   152      2.308390
   153      2.308390
   154      5.739350
   155      2.308390
   156      2.308390
   157      5.739350
   158      2.308390
   159      2.308390
   160      5.739350
   161      2.308390
   162      2.308390
   163      5.739350
   164      2.308390
   165      2.308390
   166      5.739350
   167      2.308390
   168      2.308390
   169      5.739350
   170      2.308390
   171      2.308390
   172      5.739350
   173      2.308390
   174      2.308390
   175      5.739350
   176      2.308390
   177      2.308390


     ************************************************************************
     ************************** Output from HERINT **************************
     ************************************************************************



                      Nuclear contribution to dipole moments
                      --------------------------------------

                 au               Debye          C m (/(10**-30)

      x     50.91518578       129.41348547       431.67692187
      y    -28.05568474       -71.31043311      -237.86600098
      z     -3.36531499        -8.55377695       -28.53232869


  Time used in HUCKEL     is       0.34 seconds
  Time used in OVERLAP    is       0.16 seconds
  Time used in POPOVLP    is       0.22 seconds
  Time used in DIPLEN     is       0.67 seconds
  Time used in QUADRUP    is       0.56 seconds
  Time used in KINENE     is       0.21 seconds

 Threshold for neglecting two-electron integrals:  1.00D-12
 HERMIT - Number of two-electron integrals written:    35421212 ( 40.6% )
 HERMIT - Megabytes written:                            405.593

  Time used in TWOINT     is      18.00 seconds
  Total CPU  time used in HERMIT:  20.21 seconds
  Total wall time used in HERMIT:   7.67 seconds


                        .----------------------------------.
                        | End of Integral Section (HERMIT) |
                        `----------------------------------'



                   .--------------------------------------------.
                   | Starting in Wave Function Section (SIRIUS) |
                   `--------------------------------------------'

NCCEXCI for singlet:   15
 CCSD_INPUT: core-val requested
 Requested number of core orbs per sym
                     1
 Indices of requested core orbs
                     1

 *** Output from Huckel module :

     Using EWMO model:          T
     Using EHT  model:          F
     Number of Huckel orbitals each symmetry:   37

 EWMO - Energy Weighted Maximum Overlap - is a Huckel type method,
        which normally is better than Extended Huckel Theory.
 Reference: Linderberg and Ohrn, Propagators in Quantum Chemistry (Wiley, 1973)

 Huckel EWMO eigenvalues for symmetry :  1
          -20.684572     -20.684424     -20.684255     -20.684122     -15.675881
           -1.796578      -1.604900      -1.594119      -1.585371      -1.493457
           -0.829720      -0.801806      -0.797587      -0.775775      -0.768356
           -0.745868      -0.727032      -0.696304      -0.667476      -0.654048
           -0.630073      -0.616276      -0.594167      -0.584879      -0.560776
           -0.263751      -0.247790      -0.246540      -0.240439      -0.188854
           -0.184439      -0.183284      -0.179149      -0.177461      -0.153180
           -0.142064      -0.131028

 **********************************************************************
 *SIRIUS* a direct, restricted step, second order MCSCF program       *
 **********************************************************************

 
     Date and time (Linux)  : Sun Dec 16 02:51:58 2018
     Host name              : n-62-23-10                              

 Title lines from ".mol" input file:
                                                                             
                                                                             

 Print level on unit LUPRI =   2 is   0
 Print level on unit LUW4  =   2 is  11

@    (Integral direct) CC calculation.

@    This is a combination run starting with
@              a restricted, closed shell Hartree-Fock calculation


 Initial molecular orbitals are obtained according to
 ".MOSTART EWMO  " input option

@    QM part is embedded in an environment :

@         Model: QMMM

     Wave function specification
     ============================

     For the specification of the Coupled Cluster: see later.

@    Wave function type        --- CC ---
@    Number of closed shell electrons          50
@    Number of electrons in active shells       0
@    Total charge of the molecule               1

@    Spin multiplicity and 2 M_S                1         0
@    Total number of symmetries                 1 (point group: C1 )
@    Reference state symmetry                   1 (irrep name : A  )

     Orbital specifications
     ======================
@    Abelian symmetry species          All |    1
@                                          |  A  
                                       --- |  ---
@    Occupied SCF orbitals              25 |   25
@    Secondary orbitals                137 |  137
@    Total number of orbitals          162 |  162
@    Number of basis functions         162 |  162

     Optimization information
     ========================
@    Number of configurations                 1
@    Number of orbital rotations           3425
     ------------------------------------------
@    Total number of variables             3426

     Maximum number of Fock   iterations      0
     Maximum number of DIIS   iterations     60
     Maximum number of QC-SCF iterations     60
     Threshold for SCF convergence     1.00D-07


 Changes of defaults for CC:
 ---------------------------


 -Implicit frozen core calculation
 -Excitation energies calculated
 -One-photon absorption strengths will be calculated
 -Oscillator strengths calculated
  
* Read MO coefficients from SIRIUS.RST with label "NEWORB  " and header info: 16Dec18  REORTHO 


 ***********************************************
 ***** DIIS acceleration of SCF iterations *****
 ***********************************************

 C1-DIIS algorithm; max error vectors =    8
 -----------------------------------------------------------------------------

 *** DIIS iteration number    1
 RDSUPM called. NFMAT, ISYMDM(1:NFMAT)                     1
                     1

Calculating AOSUPINT
     (Precalculated two-electron integrals are transformed to P-supermatrix elements.
      Threshold for discarding integrals :  1.00D-12 )
  CPU  time used in FORMSUP    is   5.12 seconds
  WALL time used in FORMSUP    is   6.36 seconds

 ITDIIS, energy, error norm, change in energy, scr.thr., difden:
@ DIIS iter.   1    -360.201750370        4.01060D+00   -3.60D+02  -20    F

 (DIIS_RED) Control Parameters C2DIIS =         F NEVC =    1


 (DIIS_RED) B matrix:

               Column   1
       1      16.08494523
    ==== End of matrix output ====

 DIIS C vector; C2DIIS = F, LAMBDA = -1.61D+01
    1.000000
* Read MO coefficients from SIRIUS.RST with label "NEWORB  " and header info: 16Dec18  DIIS   1
      Virial theorem: -V/T =      2.003266
@      MULPOP N       0.16; H       0.15; H       0.16; H       0.18; H       0.17; O      -0.54; O      -0.59; O      -0.61; O      -0.60; H       0.30; 
@             H       0.31; H       0.32; H       0.32; H       0.33; H       0.33; H       0.33; H       0.30; 
   1  Level shift: doubly occupied orbital energies shifted by -2.00D-01

 DIIS Fock eigenvalues in symmetry 1
      -20.81819      -20.81273      -20.80194      -20.80093      -16.50531
       -1.75566       -1.63256       -1.62131       -1.62052       -1.61859
       -1.24864       -1.22142       -1.19912       -1.00415       -1.00066
       -0.99301       -0.99011       -0.89138       -0.88342       -0.87796
       -0.86834       -0.84709       -0.83757       -0.83330       -0.82499
       -0.01692        0.05019        0.05707        0.07925        0.12127
        0.13864        0.14243        0.16329        0.18042        0.19895
        0.20663        0.21947        0.25384        0.26967        0.28235
        0.42063        0.44834        0.45415        0.47625        0.48759
        0.50073        0.50464        0.51583        0.54873        0.65233
        0.69419        0.70889        0.83609        0.86134        0.86838
        0.90128        0.91201        0.95265        0.96129        0.97514
        0.99066        1.01360        1.01959        1.04145        1.05377
        1.07169        1.14208        1.21752        1.24110        1.30712
        1.33327        1.35692        1.37213        1.37708        1.39514
        1.39859        1.40210        1.43157        1.46474        1.50854
        1.53149        1.56208        1.57308        1.62336        1.63125
        1.66007        1.72555        1.76698        1.77066        1.82143
        1.85092        1.91010        1.98742        2.02298        2.06175
        2.08104        2.09718        2.11275        2.14358        2.19594
        2.21239        2.22889        2.23367        2.27821        2.37845
        2.45372        2.47244        2.50249        2.51392        2.52314
        2.53920        2.58141        2.64290        2.67705        2.67961
        2.71825        2.74037        2.77866        2.99052        2.99437
        3.04590        3.11181        3.32671        3.33198        3.33844
        3.34363        3.35858        3.37289        3.39805        3.40872
        3.49953        3.53673        3.56015        3.57927        3.84582
        3.85855        3.88359        3.89256        4.08116        4.09934
        4.11030        4.13744        4.61399        4.76190        4.87562
        5.21480        5.22538        5.26125        5.31486        5.68070
        5.70089        5.73686        5.75754        5.86826        5.92409
        5.96539        6.00421       36.33949       51.43647       51.44998
       51.46905       51.48051
 Time used in FCKEIG, thr_jaco:   4.82D-01  4.80D-02  1.71D-04
 CPU and wall times used in FCKEIG, THR_FCKEIG:   4.82D-01  4.80D-02  4.01D-02
 -----------------------------------------------------------------------------

 *** DIIS iteration number    2
 RDSUPM called. NFMAT, ISYMDM(1:NFMAT)                     1
                     1

 ITDIIS, energy, error norm, change in energy, scr.thr., difden:
@ DIIS iter.   2    -361.103163642        1.17758D+00   -9.01D-01  -20    F

 (DIIS_RED) Control Parameters C2DIIS =         F NEVC =    2


 (DIIS_RED) B matrix:

               Column   1     Column   2
       1      16.08494523
       2       0.53592034     1.38669566
    ==== End of matrix output ====

 DIIS C vector; C2DIIS = F, LAMBDA = -1.34D+00
    0.051877    0.948123
* Read MO coefficients from SIRIUS.RST with label "NEWORB  " and header info: 16Dec18  DIIS   2
      Virial theorem: -V/T =      2.002635
@      MULPOP N      -0.54; H       0.34; H       0.32; H       0.36; H       0.32; O      -0.61; O      -0.55; O      -0.55; O      -0.60; H       0.36; 
@             H       0.32; H       0.30; H       0.30; H       0.32; H       0.29; H       0.32; H       0.31; 
   2  Level shift: doubly occupied orbital energies shifted by -1.00D-01

 DIIS Fock eigenvalues in symmetry 1
      -20.79966      -20.76398      -20.75561      -20.75110      -15.64511
       -1.53483       -1.51687       -1.51609       -1.51107       -1.40011
       -0.91600       -0.88485       -0.88314       -0.88131       -0.87329
       -0.86574       -0.85069       -0.79612       -0.77742       -0.76181
       -0.74911       -0.72438       -0.71674       -0.70588       -0.70374
        0.05199        0.09479        0.10248        0.11921        0.16283
        0.17338        0.19367        0.21194        0.22652        0.25079
        0.25563        0.28489        0.34503        0.35164        0.37561
        0.46792        0.48854        0.49533        0.51414        0.52381
        0.53829        0.54907        0.55813        0.63126        0.79857
        0.83716        0.84621        0.88249        0.89777        0.92432
        0.93383        0.96530        0.99198        1.00561        1.01432
        1.02579        1.05544        1.06261        1.09381        1.15115
        1.16792        1.22040        1.26444        1.28790        1.36663
        1.37651        1.40043        1.42273        1.43200        1.44404
        1.44755        1.44949        1.48647        1.53982        1.59658
        1.60403        1.62516        1.64576        1.72410        1.73656
        1.74135        1.80238        1.82606        1.83197        1.89086
        1.95168        2.01420        2.06164        2.09158        2.10566
        2.13921        2.15933        2.21514        2.23269        2.28098
        2.28382        2.29549        2.33002        2.40782        2.48636
        2.52375        2.56068        2.57016        2.61136        2.62337
        2.63929        2.69993        2.72669        2.75088        2.79338
        2.82498        2.92741        2.95374        3.14529        3.25697
        3.31748        3.33710        3.34783        3.34812        3.37333
        3.38761        3.38891        3.41904        3.43308        3.44543
        3.51256        3.55792        3.58202        3.66186        3.85594
        3.87374        3.91010        3.91171        4.08805        4.12690
        4.12908        4.15752        5.02304        5.15535        5.20643
        5.21630        5.25688        5.27931        5.30666        5.67483
        5.68723        5.74406        5.77039        5.86246        5.93102
        5.98717        6.01645       37.08178       51.35274       51.39025
       51.42819       51.43801
 Time used in FCKEIG, thr_jaco:   3.39D-01  3.40D-02  5.03D-05
 CPU and wall times used in FCKEIG, THR_FCKEIG:   3.39D-01  3.40D-02  1.18D-02
 -----------------------------------------------------------------------------

 *** DIIS iteration number    3
 RDSUPM called. NFMAT, ISYMDM(1:NFMAT)                     1
                     1

 ITDIIS, energy, error norm, change in energy, scr.thr., difden:
@ DIIS iter.   3    -361.181486460        3.76479D-01   -7.83D-02  -20    F

 (DIIS_RED) Control Parameters C2DIIS =         F NEVC =    3


 (DIIS_RED) B matrix:

               Column   1     Column   2     Column   3
       1      16.08494523
       2       0.53592034     1.38669566
       3       0.83985196    -0.01324472     0.14173663
    ==== End of matrix output ====

 DIIS C vector; C2DIIS = F, LAMBDA = -9.42D-02
   -0.047016    0.095168    0.951848
* Read MO coefficients from SIRIUS.RST with label "NEWORB  " and header info: 16Dec18  DIIS   3
      Virial theorem: -V/T =      2.003440
@      MULPOP N      -0.34; H       0.28; H       0.27; H       0.34; H       0.28; O      -0.69; O      -0.60; O      -0.62; O      -0.67; H       0.40; 
@             H       0.34; H       0.32; H       0.32; H       0.35; H       0.31; H       0.35; H       0.34; 
   3  Level shift: doubly occupied orbital energies shifted by -5.00D-02

 DIIS Fock eigenvalues in symmetry 1
      -20.69280      -20.67605      -20.66487      -20.66107      -15.79957
       -1.46126       -1.44842       -1.44745       -1.44255       -1.39719
       -0.89474       -0.85859       -0.83818       -0.81153       -0.80836
       -0.79845       -0.79829       -0.72175       -0.70854       -0.69280
       -0.68599       -0.64761       -0.63893       -0.62779       -0.62592
        0.05848        0.10223        0.10909        0.12574        0.16952
        0.17578        0.19951        0.21731        0.23116        0.25407
        0.25957        0.28711        0.34731        0.35484        0.37824
        0.47812        0.49936        0.50585        0.52510        0.53602
        0.55030        0.56011        0.56889        0.63334        0.78943
        0.83171        0.84106        0.89763        0.90841        0.93373
        0.94799        0.97659        1.00664        1.01934        1.03036
        1.04152        1.06980        1.07634        1.10781        1.15209
        1.16667        1.22841        1.27230        1.30016        1.38064
        1.38918        1.41428        1.43773        1.44825        1.45896
        1.46226        1.46496        1.49760        1.55013        1.60682
        1.61452        1.63749        1.65638        1.73143        1.74507
        1.74825        1.81302        1.84002        1.84396        1.90095
        1.95426        2.01841        2.07887        2.09961        2.12132
        2.15621        2.17734        2.22858        2.23282        2.29813
        2.30046        2.31197        2.33097        2.40702        2.49559
        2.53630        2.57222        2.58408        2.61672        2.63173
        2.65154        2.70503        2.73871        2.76457        2.80534
        2.83574        2.89628        2.92689        3.14208        3.23409
        3.28142        3.35273        3.37411        3.37894        3.38152
        3.40898        3.41459        3.42005        3.45657        3.45835
        3.54503        3.58403        3.61022        3.67437        3.88606
        3.89849        3.93671        3.93807        4.12119        4.15605
        4.15785        4.18356        4.94346        5.08552        5.18410
        5.23754        5.27548        5.29185        5.33591        5.70476
        5.72524        5.77542        5.79851        5.90274        5.96124
        6.01905        6.04921       36.88363       51.40937       51.42855
       51.46910       51.47818
 Time used in FCKEIG, thr_jaco:   2.92D-01  2.90D-02  1.61D-05
 CPU and wall times used in FCKEIG, THR_FCKEIG:   2.92D-01  2.90D-02  3.76D-03
 -----------------------------------------------------------------------------

 *** DIIS iteration number    4
 RDSUPM called. NFMAT, ISYMDM(1:NFMAT)                     1
                     1

 ITDIIS, energy, error norm, change in energy, scr.thr., difden:
@ DIIS iter.   4    -361.191895545        9.17440D-02   -1.04D-02  -20    F

 (DIIS_RED) Control Parameters C2DIIS =         F NEVC =    4


 (DIIS_RED) B matrix:

               Column   1     Column   2     Column   3     Column   4
       1      16.08494523
       2       0.53592034     1.38669566
       3       0.83985196    -0.01324472     0.14173663
       4       0.05466725     0.07558125     0.00652406     0.00841695
    ==== End of matrix output ====

 DIIS C vector; C2DIIS = F, LAMBDA = -4.73D-03
   -0.000599   -0.055026   -0.017644    1.073270
* Read MO coefficients from SIRIUS.RST with label "NEWORB  " and header info: 16Dec18  DIIS   4
      Virial theorem: -V/T =      2.003474
@      MULPOP N      -0.40; H       0.30; H       0.28; H       0.36; H       0.30; O      -0.71; O      -0.61; O      -0.62; O      -0.68; H       0.42; 
@             H       0.35; H       0.32; H       0.33; H       0.35; H       0.31; H       0.36; H       0.35; 
   4  Level shift: doubly occupied orbital energies shifted by -1.25D-02

 DIIS Fock eigenvalues in symmetry 1
      -20.67386      -20.64917      -20.63931      -20.63849      -15.73234
       -1.42994       -1.41466       -1.41378       -1.40885       -1.34884
       -0.84728       -0.81050       -0.79113       -0.77680       -0.77518
       -0.76443       -0.76259       -0.68827       -0.67252       -0.65629
       -0.64930       -0.61219       -0.60113       -0.59057       -0.58832
        0.05945        0.10153        0.10891        0.12554        0.16922
        0.17685        0.19943        0.21826        0.23257        0.25642
        0.26241        0.29037        0.35214        0.36023        0.38399
        0.47850        0.50001        0.50614        0.52484        0.53422
        0.54866        0.55894        0.56845        0.63765        0.79548
        0.83825        0.84754        0.89893        0.91014        0.93644
        0.94942        0.97765        1.00610        1.01918        1.02984
        1.04124        1.06912        1.07575        1.10624        1.15678
        1.17118        1.22840        1.27462        1.30082        1.38016
        1.39053        1.41289        1.43700        1.44619        1.45817
        1.45992        1.46312        1.49829        1.55134        1.60837
        1.61554        1.63715        1.65847        1.73581        1.74872
        1.75151        1.81312        1.83913        1.84346        1.90218
        1.95882        2.02373        2.07704        2.10252        2.11867
        2.15392        2.17521        2.23085        2.23640        2.29504
        2.29884        2.31040        2.33587        2.41301        2.49849
        2.53546        2.57316        2.58307        2.62187        2.63612
        2.65729        2.70915        2.73791        2.76362        2.80391
        2.83578        2.90758        2.93669        3.14992        3.24356
        3.29290        3.35504        3.37177        3.37437        3.38215
        3.40726        3.41208        3.42181        3.45437        3.45621
        3.54000        3.58182        3.60783        3.67451        3.88092
        3.89586        3.93336        3.93500        4.11595        4.15288
        4.15502        4.18151        4.96033        5.10130        5.19598
        5.23268        5.27179        5.28697        5.32724        5.70011
        5.71672        5.77002        5.79320        5.89309        5.95573
        6.01173        6.04331       36.91306       51.39129       51.41815
       51.45749       51.46366
 Time used in FCKEIG, thr_jaco:   2.76D-01  2.80D-02  3.92D-06
 CPU and wall times used in FCKEIG, THR_FCKEIG:   2.76D-01  2.80D-02  9.17D-04
 -----------------------------------------------------------------------------

 *** DIIS iteration number    5
 RDSUPM called. NFMAT, ISYMDM(1:NFMAT)                     1
                     1

 ITDIIS, energy, error norm, change in energy, scr.thr., difden:
@ DIIS iter.   5    -361.192902107        3.10394D-02   -1.01D-03  -20    F

 (DIIS_RED) Control Parameters C2DIIS =         F NEVC =    5


 (DIIS_RED) B matrix:

               Column   1     Column   2     Column   3     Column   4     Column   5
       1      16.08494523
       2       0.53592034     1.38669566
       3       0.83985196    -0.01324472     0.14173663
       4       0.05466725     0.07558125     0.00652406     0.00841695
       5       0.02373269     0.00745248     0.00598789     0.00078577     0.00096344
    ==== End of matrix output ====

 DIIS C vector; C2DIIS = F, LAMBDA = -6.37D-04
    0.001210   -0.012768   -0.049190    0.134110    0.926638
* Read MO coefficients from SIRIUS.RST with label "NEWORB  " and header info: 16Dec18  DIIS   5
      Virial theorem: -V/T =      2.003080
@      MULPOP N      -0.39; H       0.29; H       0.28; H       0.36; H       0.29; O      -0.72; O      -0.62; O      -0.64; O      -0.69; H       0.42; 
@             H       0.35; H       0.33; H       0.33; H       0.36; H       0.32; H       0.37; H       0.35; 

 DIIS Fock eigenvalues in symmetry 1
      -20.65202      -20.63122      -20.62021      -20.61747      -15.71559
       -1.41410       -1.40007       -1.39884       -1.39337       -1.33446
       -0.83313       -0.79616       -0.77672       -0.76239       -0.76029
       -0.74979       -0.74857       -0.67313       -0.65842       -0.64173
       -0.63452       -0.59576       -0.58574       -0.57424       -0.57261
        0.06013        0.10199        0.10931        0.12598        0.16970
        0.17738        0.19986        0.21881        0.23325        0.25719
        0.26334        0.29123        0.35322        0.36140        0.38536
        0.47947        0.50084        0.50689        0.52559        0.53494
        0.54916        0.55954        0.56921        0.63877        0.79698
        0.83997        0.84919        0.90093        0.91215        0.93854
        0.95161        0.97926        1.00758        1.02082        1.03164
        1.04301        1.07067        1.07723        1.10764        1.15840
        1.17269        1.22961        1.27627        1.30245        1.38148
        1.39239        1.41361        1.43802        1.44689        1.45915
        1.46025        1.46371        1.49934        1.55234        1.60928
        1.61639        1.63778        1.65945        1.73689        1.74976
        1.75256        1.81360        1.83950        1.84389        1.90284
        1.95994        2.02501        2.07825        2.10377        2.11930
        2.15493        2.17620        2.23223        2.23779        2.29575
        2.29989        2.31147        2.33710        2.41440        2.49933
        2.53585        2.57381        2.58356        2.62293        2.63725
        2.65859        2.71010        2.73820        2.76387        2.80398
        2.83607        2.90934        2.93831        3.15143        3.24577
        3.29505        3.35816        3.37403        3.37790        3.38487
        3.41023        3.41424        3.42435        3.45706        3.45909
        3.54349        3.58393        3.61035        3.67746        3.88440
        3.89797        3.93624        3.93766        4.11968        4.15600
        4.15791        4.18381        4.96289        5.10389        5.19907
        5.23617        5.27629        5.29122        5.33275        5.70336
        5.72185        5.77409        5.79756        5.89810        5.95865
        6.01617        6.04683       36.91723       51.40048       51.42357
       51.46402       51.47206
 Time used in FCKEIG, thr_jaco:   2.57D-01  2.60D-02  1.33D-06
 CPU and wall times used in FCKEIG, THR_FCKEIG:   2.58D-01  2.60D-02  3.10D-04
 -----------------------------------------------------------------------------

 *** DIIS iteration number    6
 RDSUPM called. NFMAT, ISYMDM(1:NFMAT)                     1
                     1

 ITDIIS, energy, error norm, change in energy, scr.thr., difden:
@ DIIS iter.   6    -361.192993027        1.09896D-02   -9.09D-05  -20    F

 (DIIS_RED) Control Parameters C2DIIS =         F NEVC =    6


 (DIIS_RED) B matrix:

               Column   1     Column   2     Column   3     Column   4     Column   5     Column   6
       1      16.08494523
       2       0.53592034     1.38669566
       3       0.83985196    -0.01324472     0.14173663
       4       0.05466725     0.07558125     0.00652406     0.00841695
       5       0.02373269     0.00745248     0.00598789     0.00078577     0.00096344
       6      -0.00475249    -0.00017355     0.00080070     0.00058606     0.00001984     0.00012077
    ==== End of matrix output ====

 DIIS C vector; C2DIIS = F, LAMBDA = -3.58D-05
    0.000807    0.006602   -0.007924   -0.135742    0.104883    1.031373
* Read MO coefficients from SIRIUS.RST with label "NEWORB  " and header info: 16Dec18  DIIS   6
      Virial theorem: -V/T =      2.003344
@      MULPOP N      -0.39; H       0.29; H       0.28; H       0.35; H       0.29; O      -0.72; O      -0.62; O      -0.64; O      -0.70; H       0.42; 
@             H       0.35; H       0.33; H       0.33; H       0.36; H       0.32; H       0.37; H       0.35; 

 DIIS Fock eigenvalues in symmetry 1
      -20.65464      -20.63246      -20.62186      -20.61984      -15.71765
       -1.41480       -1.40029       -1.39926       -1.39406       -1.33500
       -0.83379       -0.79666       -0.77707       -0.76289       -0.76092
       -0.75053       -0.74891       -0.67414       -0.65898       -0.64246
       -0.63544       -0.59625       -0.58567       -0.57461       -0.57280
        0.06005        0.10183        0.10922        0.12583        0.16959
        0.17726        0.19974        0.21872        0.23316        0.25708
        0.26324        0.29109        0.35314        0.36128        0.38511
        0.47923        0.50065        0.50673        0.52534        0.53468
        0.54896        0.55932        0.56891        0.63856        0.79656
        0.83966        0.84893        0.90068        0.91207        0.93831
        0.95142        0.97891        1.00727        1.02045        1.03126
        1.04268        1.07029        1.07687        1.10717        1.15815
        1.17241        1.22939        1.27603        1.30214        1.38112
        1.39201        1.41342        1.43770        1.44657        1.45884
        1.46004        1.46331        1.49907        1.55201        1.60903
        1.61612        1.63757        1.65926        1.73672        1.74957
        1.75231        1.81338        1.83923        1.84368        1.90256
        1.95978        2.02483        2.07781        2.10355        2.11900
        2.15439        2.17576        2.23178        2.23757        2.29547
        2.29945        2.31107        2.33683        2.41414        2.49912
        2.53563        2.57353        2.58319        2.62269        2.63712
        2.65869        2.70985        2.73788        2.76358        2.80375
        2.83571        2.90879        2.93776        3.15127        3.24508
        3.29437        3.35734        3.37367        3.37698        3.38415
        3.40944        3.41384        3.42372        3.45638        3.45828
        3.54259        3.58356        3.60978        3.67658        3.88350
        3.89758        3.93543        3.93695        4.11874        4.15517
        4.15718        4.18340        4.96196        5.10291        5.19799
        5.23557        5.27516        5.29026        5.33137        5.70268
        5.72048        5.77305        5.79635        5.89667        5.95797
        6.01482        6.04590       36.91520       51.39791       51.42233
       51.46238       51.46972
 Time used in FCKEIG, thr_jaco:   2.56D-01  2.60D-02  4.69D-07
 CPU and wall times used in FCKEIG, THR_FCKEIG:   2.57D-01  2.60D-02  1.10D-04
 -----------------------------------------------------------------------------

 *** DIIS iteration number    7
 RDSUPM called. NFMAT, ISYMDM(1:NFMAT)                     1
                     1

 ITDIIS, energy, error norm, change in energy, scr.thr., difden:
@ DIIS iter.   7    -361.193006363        2.27278D-03   -1.33D-05  -20    F

 (DIIS_RED) Control Parameters C2DIIS =         F NEVC =    7


 (DIIS_RED) B matrix:

               Column   1     Column   2     Column   3     Column   4     Column   5     Column   6
       1      16.08494523
       2       0.53592034     1.38669566
       3       0.83985196    -0.01324472     0.14173663
       4       0.05466725     0.07558125     0.00652406     0.00841695
       5       0.02373269     0.00745248     0.00598789     0.00078577     0.00096344
       6      -0.00475249    -0.00017355     0.00080070     0.00058606     0.00001984     0.00012077
       7       0.00030431     0.00019300    -0.00000913     0.00000352     0.00004851     0.00000088

               Column   7
       7       0.00000517
    ==== End of matrix output ====

 DIIS C vector; C2DIIS = F, LAMBDA = -1.29D-06
   -0.000247   -0.000713    0.005265    0.021803   -0.095400   -0.133853    1.203146
* Read MO coefficients from SIRIUS.RST with label "NEWORB  " and header info: 16Dec18  DIIS   7
      Virial theorem: -V/T =      2.003284
@      MULPOP N      -0.39; H       0.29; H       0.28; H       0.35; H       0.29; O      -0.72; O      -0.62; O      -0.64; O      -0.70; H       0.42; 
@             H       0.35; H       0.33; H       0.33; H       0.36; H       0.32; H       0.37; H       0.35; 

 DIIS Fock eigenvalues in symmetry 1
      -20.65419      -20.63232      -20.62169      -20.61955      -15.71722
       -1.41461       -1.40018       -1.39915       -1.39390       -1.33479
       -0.83361       -0.79649       -0.77691       -0.76281       -0.76079
       -0.75043       -0.74882       -0.67408       -0.65898       -0.64243
       -0.63538       -0.59602       -0.58552       -0.57441       -0.57266
        0.06012        0.10187        0.10926        0.12587        0.16963
        0.17730        0.19977        0.21876        0.23322        0.25714
        0.26331        0.29117        0.35325        0.36140        0.38524
        0.47931        0.50072        0.50679        0.52538        0.53472
        0.54898        0.55935        0.56896        0.63868        0.79671
        0.83982        0.84906        0.90080        0.91219        0.93844
        0.95154        0.97901        1.00736        1.02055        1.03136
        1.04278        1.07035        1.07694        1.10723        1.15828
        1.17254        1.22948        1.27616        1.30226        1.38120
        1.39214        1.41346        1.43774        1.44658        1.45889
        1.46005        1.46331        1.49913        1.55208        1.60909
        1.61618        1.63762        1.65933        1.73682        1.74966
        1.75241        1.81342        1.83925        1.84371        1.90262
        1.95989        2.02496        2.07787        2.10365        2.11904
        2.15443        2.17579        2.23185        2.23772        2.29550
        2.29949        2.31111        2.33695        2.41426        2.49919
        2.53566        2.57357        2.58321        2.62281        2.63722
        2.65879        2.70995        2.73789        2.76359        2.80376
        2.83572        2.90900        2.93795        3.15142        3.24529
        3.29459        3.35754        3.37377        3.37717        3.38433
        3.40959        3.41393        3.42387        3.45649        3.45842
        3.54279        3.58367        3.60988        3.67676        3.88367
        3.89767        3.93556        3.93706        4.11894        4.15532
        4.15731        4.18351        4.96223        5.10318        5.19826
        5.23570        5.27536        5.29042        5.33165        5.70279
        5.72074        5.77320        5.79653        5.89693        5.95808
        6.01500        6.04601       36.91562       51.39835       51.42247
       51.46255       51.47001
 Time used in FCKEIG, thr_jaco:   2.53D-01  2.60D-02  9.71D-08
 CPU and wall times used in FCKEIG, THR_FCKEIG:   2.53D-01  2.60D-02  2.27D-05
 -----------------------------------------------------------------------------

 *** DIIS iteration number    8
 RDSUPM called. NFMAT, ISYMDM(1:NFMAT)                     1
                     1

 ITDIIS, energy, error norm, change in energy, scr.thr., difden:
@ DIIS iter.   8    -361.193006915        3.81003D-04   -5.53D-07  -20    F

 (DIIS_RED) Control Parameters C2DIIS =         F NEVC =    8


 (DIIS_RED) B matrix:

               Column   1     Column   2     Column   3     Column   4     Column   5     Column   6
       1      16.08494523
       2       0.53592034     1.38669566
       3       0.83985196    -0.01324472     0.14173663
       4       0.05466725     0.07558125     0.00652406     0.00841695
       5       0.02373269     0.00745248     0.00598789     0.00078577     0.00096344
       6      -0.00475249    -0.00017355     0.00080070     0.00058606     0.00001984     0.00012077
       7       0.00030431     0.00019300    -0.00000913     0.00000352     0.00004851     0.00000088
       8       0.00012378    -0.00005363     0.00001138     0.00000140     0.00000037     0.00000165

               Column   7     Column   8
       7       0.00000517
       8       0.00000035     0.00000015
    ==== End of matrix output ====

 DIIS C vector; C2DIIS = F, LAMBDA = -8.57D-08
    0.000000   -0.000029   -0.000544    0.000514    0.011779   -0.015007   -0.171812    1.175100
* Read MO coefficients from SIRIUS.RST with label "NEWORB  " and header info: 16Dec18  DIIS   8
      Virial theorem: -V/T =      2.003300
@      MULPOP N      -0.39; H       0.29; H       0.28; H       0.35; H       0.29; O      -0.72; O      -0.62; O      -0.64; O      -0.70; H       0.43; 
@             H       0.35; H       0.33; H       0.33; H       0.36; H       0.32; H       0.37; H       0.35; 

 DIIS Fock eigenvalues in symmetry 1
      -20.65429      -20.63228      -20.62164      -20.61953      -15.71726
       -1.41463       -1.40017       -1.39913       -1.39389       -1.33480
       -0.83363       -0.79650       -0.77692       -0.76279       -0.76080
       -0.75041       -0.74880       -0.67413       -0.65899       -0.64244
       -0.63539       -0.59604       -0.58550       -0.57440       -0.57265
        0.06011        0.10186        0.10926        0.12587        0.16963
        0.17730        0.19977        0.21876        0.23322        0.25714
        0.26331        0.29116        0.35325        0.36139        0.38523
        0.47931        0.50072        0.50680        0.52539        0.53471
        0.54898        0.55935        0.56896        0.63867        0.79670
        0.83981        0.84906        0.90079        0.91219        0.93844
        0.95154        0.97900        1.00736        1.02055        1.03136
        1.04278        1.07035        1.07694        1.10723        1.15827
        1.17253        1.22948        1.27615        1.30225        1.38119
        1.39214        1.41346        1.43774        1.44658        1.45889
        1.46005        1.46331        1.49913        1.55208        1.60909
        1.61618        1.63762        1.65933        1.73682        1.74965
        1.75240        1.81342        1.83925        1.84370        1.90262
        1.95988        2.02495        2.07786        2.10364        2.11904
        2.15444        2.17580        2.23184        2.23770        2.29551
        2.29949        2.31111        2.33694        2.41425        2.49918
        2.53566        2.57357        2.58321        2.62280        2.63721
        2.65878        2.70994        2.73788        2.76359        2.80376
        2.83572        2.90898        2.93793        3.15141        3.24527
        3.29457        3.35751        3.37378        3.37713        3.38431
        3.40959        3.41395        3.42387        3.45650        3.45842
        3.54276        3.58368        3.60990        3.67676        3.88364
        3.89768        3.93556        3.93707        4.11891        4.15532
        4.15732        4.18353        4.96221        5.10315        5.19824
        5.23572        5.27537        5.29043        5.33160        5.70281
        5.72069        5.77322        5.79654        5.89688        5.95810
        6.01501        6.04604       36.91559       51.39825       51.42251
       51.46260       51.47003
 Time used in FCKEIG, thr_jaco:   2.60D-01  2.60D-02  1.63D-08
 CPU and wall times used in FCKEIG, THR_FCKEIG:   2.60D-01  2.60D-02  3.81D-06
 -----------------------------------------------------------------------------

 *** DIIS iteration number    9
 RDSUPM called. NFMAT, ISYMDM(1:NFMAT)                     1
                     1

 ITDIIS, energy, error norm, change in energy, scr.thr., difden:
@ DIIS iter.   9    -361.193006934        1.32933D-04   -1.86D-08  -20    F

 (DIIS_RED) Control Parameters C2DIIS =         F NEVC =    8


 (DIIS_RED) B matrix:

[...]

 Principal values of diagonalized transition strength matrix:

             a.u.               
 1      -0.00000000
 2      -0.00000000
 3       0.00012158

 Principal axis of diagonalized transition strength matrix:


               Column   1     Column   2     Column   3
       1       0.98519059    -0.01064482    -0.17113209
       2      -0.09877639     0.78058145    -0.61719999
       3       0.14015251     0.62496343     0.76797004
    ==== End of matrix output ====


 CCSD   oscillator strength matrix for state nr. 13 of symmetry 1
 CCSD  excitation energy:15.20324413


               Column   1     Column   2     Column   3
       1     3.608371D-05   1.301548D-04  -1.619492D-04
       2     1.301548D-04   4.694109D-04  -5.840789D-04
       3    -1.619492D-04  -5.840789D-04   7.267581D-04
    ==== End of matrix output ====

 Principal values of diagonalized oscillator strength matrix:

             a.u.               
 1      -0.00000000
 2      -0.00000000
 3       0.00123226

 Principal axis of diagonalized oscillator strength matrix:


               Column   1     Column   2     Column   3
       1       0.98519059    -0.01064482    -0.17113209
       2      -0.09877639     0.78058145    -0.61719999
       3       0.14015251     0.62496343     0.76797004
    ==== End of matrix output ====


 CCSD  Transition strength matrix for state nr. 14 of symmetry 1
 CCSD  excitation energy:15.22075704

 Gauge: length

               Column   1     Column   2     Column   3
       1     5.878915D-06   1.273207D-05   3.547058D-05
       2     1.273207D-05   2.757382D-05   7.681796D-05
       3     3.547058D-05   7.681796D-05   2.140056D-04
    ==== End of matrix output ====

 Principal values of diagonalized transition strength matrix:

             a.u.               
 1      -0.00000000
 2       0.00000000
 3       0.00024746

 Principal axis of diagonalized transition strength matrix:


               Column   1     Column   2     Column   3
       1       0.67419378     0.72229145     0.15413572
       2       0.65251117    -0.68029449     0.33380919
       3      -0.34596520     0.12447680     0.92995355
    ==== End of matrix output ====


 CCSD   oscillator strength matrix for state nr. 14 of symmetry 1
 CCSD  excitation energy:15.22075704


               Column   1     Column   2     Column   3
       1       0.00005965     0.00012919     0.00035993
       2       0.00012919     0.00027980     0.00077948
       3       0.00035993     0.00077948     0.00217155
    ==== End of matrix output ====

 Principal values of diagonalized oscillator strength matrix:

             a.u.               
 1      -0.00000000
 2      -0.00000000
 3       0.00251101

 Principal axis of diagonalized oscillator strength matrix:


               Column   1     Column   2     Column   3
       1       0.67419377     0.72229145     0.15413572
       2       0.65251117    -0.68029449     0.33380919
       3      -0.34596520     0.12447680     0.92995355
    ==== End of matrix output ====


 CCSD  Transition strength matrix for state nr. 15 of symmetry 1
 CCSD  excitation energy:15.23420766

 Gauge: length

               Column   1     Column   2     Column   3
       1     2.167633D-06   3.734681D-06  -1.585235D-05
       2     3.734681D-06   6.430700D-06  -2.730302D-05
       3    -1.585235D-05  -2.730302D-05   1.159085D-04
    ==== End of matrix output ====

 Principal values of diagonalized transition strength matrix:

             a.u.               
 1      -0.00000000
 2      -0.00000000
 3       0.00012451

 Principal axis of diagonalized transition strength matrix:


               Column   1     Column   2     Column   3
       1      -0.63149857     0.76406567    -0.13195914
       2       0.76954720     0.59677703    -0.22727580
       3       0.09490345     0.24507312     0.96484843
    ==== End of matrix output ====


 CCSD   oscillator strength matrix for state nr. 15 of symmetry 1
 CCSD  excitation energy:15.23420766


               Column   1     Column   2     Column   3
       1       0.00002201     0.00003793    -0.00016100
       2       0.00003793     0.00006531    -0.00027729
       3      -0.00016100    -0.00027729     0.00117718
    ==== End of matrix output ====

 Principal values of diagonalized oscillator strength matrix:

             a.u.               
 1      -0.00000001
 2      -0.00000000
 3       0.00126452

 Principal axis of diagonalized oscillator strength matrix:


               Column   1     Column   2     Column   3
       1      -0.63149857     0.76406567    -0.13195914
       2       0.76954720     0.59677703    -0.22727580
       3       0.09490345     0.24507312     0.96484843
    ==== End of matrix output ====

  Total time for    135 linear response residues:     143.44 seconds.
  

 *******************************************************************************
 *******************************************************************************
 *                                                                             *
 *                                                                             *
 *                   SUMMARY OF COUPLED CLUSTER CALCULATION                    *
 *                                                                             *
 *                                                                             *
 *******************************************************************************
 *******************************************************************************

                                                                                
                                                                                
            Total SCF   energy:                  -361.1930069354                
            Total MP2   energy:                  -362.3005825658                
            Total CCSD  energy:                  -362.3416353301                
                                                                                
                                                                                
            Total SCF   energy:                  -361.1930069354                
            Total RSTAR energy:                  -362.3416353301                
            Total CCSD  energy:                  -362.3417777956                
                                                                                
                                                                                
            Total SCF   energy:                  -361.1930069354                
            Total RSTAR energy:                  -362.3417777956                
            Total CCSD  energy:                  -362.3417782100                
                                                                                
                                                                                
            Total SCF   energy:                  -361.1930069354                
            Total RSTAR energy:                  -362.3417782100                
            Total CCSD  energy:                  -362.3417782781                
                                                                                
                                                                                
            Total SCF   energy:                  -361.1930069354                
            Total RSTAR energy:                  -362.3417782781                
            Total CCSD  energy:                  -362.3417782786                
                                                                                
                                                                                
            Total SCF   energy:                  -361.1930069354                
            Total RSTAR energy:                  -362.3417782786                
            Total CCSD  energy:                  -362.3417782786                
            CCSD Total  energy:                  -362.7507564485                
            CCSD E(QM/MM)     :                    -0.4048246012                
                                                                                
                                                                                
                                                                                
 +=============================================================================+
 |  sym. | Exci.  |        CCSD       Excitation energies            | ||T1||  |
 |(spin, |        +------------------------------------------------------------+
 | spat) |        |     Hartree    |       eV.      |     cm-1       |    %    |
 +=============================================================================+
 | ^1A   |    1   |    14.9134178  |     405.81474  |   3273116.840  |  88.60  |
 | ^1A   |    2   |    14.9766490  |     407.53535  |   3286994.499  |  88.77  |
 | ^1A   |    3   |    15.0081880  |     408.39357  |   3293916.499  |  89.12  |
 | ^1A   |    4   |    15.0385061  |     409.21857  |   3300570.555  |  88.83  |
 | ^1A   |    5   |    15.0784616  |     410.30581  |   3309339.766  |  88.27  |
 | ^1A   |    6   |    15.1010963  |     410.92173  |   3314307.521  |  87.99  |
 | ^1A   |    7   |    15.1114443  |     411.20332  |   3316578.626  |  88.16  |
 | ^1A   |    8   |    15.1286944  |     411.67271  |   3320364.587  |  88.11  |
 | ^1A   |    9   |    15.1360380  |     411.87255  |   3321976.337  |  88.19  |
 | ^1A   |   10   |    15.1561446  |     412.41967  |   3326389.220  |  88.22  |
 | ^1A   |   11   |    15.1733272  |     412.88724  |   3330160.369  |  88.32  |
 | ^1A   |   12   |    15.1796547  |     413.05942  |   3331549.087  |  87.91  |
 | ^1A   |   13   |    15.2032441  |     413.70132  |   3336726.371  |  88.09  |
 | ^1A   |   14   |    15.2207570  |     414.17787  |   3340570.011  |  88.08  |
 | ^1A   |   15   |    15.2342077  |     414.54388  |   3343522.080  |  87.89  |
 +=============================================================================+
                                                                                
                                                                                
     Total energies in Hartree:                                                 
             1 ^1A       -347.4325140650                                        
             2 ^1A       -347.3692827986                                        
             3 ^1A       -347.3377438454                                        
             4 ^1A       -347.3074257343                                        
             5 ^1A       -347.2674702682                                        
             6 ^1A       -347.2448355120                                        
             7 ^1A       -347.2344875953                                        
             8 ^1A       -347.2172374863                                        
             9 ^1A       -347.2098938124                                        
            10 ^1A       -347.1897872396                                        
            11 ^1A       -347.1726046199                                        
            12 ^1A       -347.1662771544                                        
            13 ^1A       -347.1426877140                                        
            14 ^1A       -347.1251748034                                        
            15 ^1A       -347.1117241856                                        
                                                                                
                                                                                
 +=============================================================================+
 |  sym. | Exci.  |        CCSD       Length   Gauge Oscillator Strength       |
 |(spin, |        +------------------------------------------------------------+
 | spat) |        | Dipole Strength(a.u.) | Oscillator strength  | Direction   |
 +=============================================================================+
 | ^1A   |    1   |        0.0015092      |      0.0150053       |  (Y,Z)      |
 | ^1A   |    2   |        0.0031645      |      0.0315955       |  (Y,Z)      |
 | ^1A   |    3   |        0.0036923      |      0.0369433       |  (Y,Z)      |
 | ^1A   |    4   |        0.0023101      |      0.0231601       |  (Y,Z)      |
 | ^1A   |    5   |        0.0008477      |      0.0085209       |  (Y,Z)      |
 | ^1A   |    6   |        0.0001495      |      0.0015049       |  (Y,Z)      |
 | ^1A   |    7   |        0.0003214      |      0.0032381       |  (Y,Z)      |
 | ^1A   |    8   |        0.0003387      |      0.0034160       |  (Y,Z)      |
 | ^1A   |    9   |        0.0004353      |      0.0043921       |  (Y,Z)      |
 | ^1A   |   10   |        0.0008405      |      0.0084928       |  (Y,Z)      |
 | ^1A   |   11   |        0.0004835      |      0.0048904       |  (Y,Z)      |
 | ^1A   |   12   |        0.0000339      |      0.0003435       |  (Y,Z)      |
 | ^1A   |   13   |        0.0001216      |      0.0012323       |  (Y,Z)      |
 | ^1A   |   14   |        0.0002475      |      0.0025110       |  (Y,Z)      |
 | ^1A   |   15   |        0.0001245      |      0.0012645       |  (Y,Z)      |
 +=============================================================================+

  1 a.u. =        27.21138 eV.  
  1 a.u. =    219474.62934 cm-1.
  

 *******************************************************************************
 *******************************************************************************
 *                                                                             *
 *                                                                             *
 *                      END OF COUPLED CLUSTER CALCULATION                     *
 *                                                                             *
 *                                                                             *
 *******************************************************************************
 *******************************************************************************


 CPU and wall time for CC :  532602.998   55910.320

 
     Date and time (Linux)  : Sun Dec 16 18:26:07 2018
     Host name              : n-62-23-10                              


                      .-------------------------------------.
                      | End of Coupled Cluster Section (CC) |
                      `-------------------------------------'

  Total CPU  time used in DALTON: 148 hours 11 minutes 36 seconds
  Total wall time used in DALTON:  15 hours 34 minutes 17 seconds

 
     Date and time (Linux)  : Sun Dec 16 18:26:07 2018
     Host name              : n-62-23-10                              
  

 +---------------------------------------------------------+ 
 | List of selected calculated molecular properties (a.u.) | 
 +---------------------------------------------------------+ 

  Properties are read from unit number                      4

 CCSD       properties :
 #  1 1 CCSD/MM  Ground state Energy =    -362.7507564485
 #  2 1 E_QM/MM  Ground state Energy =      -0.4048246012
 #  3 1 Sy: 1 Sp: 1 Exc:  1 E_tot:   -347.4325140650 w:     14.9134177823 E_grs:   -362.3459318473
 #  4 1 Exctot   Excited state Energy =    -347.4325140650
 #  5 1 Sy: 1 Sp: 1 Exc:  2 E_tot:   -347.3692827986 w:     14.9766490487 E_grs:   -362.3459318473
 #  6 1 Exctot   Excited state Energy =    -347.3692827986
 #  7 1 Sy: 1 Sp: 1 Exc:  3 E_tot:   -347.3377438454 w:     15.0081880019 E_grs:   -362.3459318473
 #  8 1 Exctot   Excited state Energy =    -347.3377438454
 #  9 1 Sy: 1 Sp: 1 Exc:  4 E_tot:   -347.3074257343 w:     15.0385061130 E_grs:   -362.3459318473
 # 10 1 Exctot   Excited state Energy =    -347.3074257343
 # 11 1 Sy: 1 Sp: 1 Exc:  5 E_tot:   -347.2674702682 w:     15.0784615790 E_grs:   -362.3459318473
 # 12 1 Exctot   Excited state Energy =    -347.2674702682
 # 13 1 Sy: 1 Sp: 1 Exc:  6 E_tot:   -347.2448355120 w:     15.1010963353 E_grs:   -362.3459318473
 # 14 1 Exctot   Excited state Energy =    -347.2448355120
 # 15 1 Sy: 1 Sp: 1 Exc:  7 E_tot:   -347.2344875953 w:     15.1114442520 E_grs:   -362.3459318473
 # 16 1 Exctot   Excited state Energy =    -347.2344875953
 # 17 1 Sy: 1 Sp: 1 Exc:  8 E_tot:   -347.2172374863 w:     15.1286943610 E_grs:   -362.3459318473
 # 18 1 Exctot   Excited state Energy =    -347.2172374863
 # 19 1 Sy: 1 Sp: 1 Exc:  9 E_tot:   -347.2098938124 w:     15.1360380349 E_grs:   -362.3459318473
 # 20 1 Exctot   Excited state Energy =    -347.2098938124
 # 21 1 Sy: 1 Sp: 1 Exc: 10 E_tot:   -347.1897872396 w:     15.1561446077 E_grs:   -362.3459318473
 # 22 1 Exctot   Excited state Energy =    -347.1897872396
 # 23 1 Sy: 1 Sp: 1 Exc: 11 E_tot:   -347.1726046199 w:     15.1733272274 E_grs:   -362.3459318473
 # 24 1 Exctot   Excited state Energy =    -347.1726046199
 # 25 1 Sy: 1 Sp: 1 Exc: 12 E_tot:   -347.1662771544 w:     15.1796546929 E_grs:   -362.3459318473
 # 26 1 Exctot   Excited state Energy =    -347.1662771544
 # 27 1 Sy: 1 Sp: 1 Exc: 13 E_tot:   -347.1426877140 w:     15.2032441333 E_grs:   -362.3459318473
 # 28 1 Exctot   Excited state Energy =    -347.1426877140
 # 29 1 Sy: 1 Sp: 1 Exc: 14 E_tot:   -347.1251748034 w:     15.2207570439 E_grs:   -362.3459318473
 # 30 1 Exctot   Excited state Energy =    -347.1251748034
 # 31 1 Sy: 1 Sp: 1 Exc: 15 E_tot:   -347.1117241856 w:     15.2342076617 E_grs:   -362.3459318473
 # 32 1 Exctot   Excited state Energy =    -347.1117241856
 # 33 1 |<O|XDIPLEN |i(14.913418)>| =     0.02084479
 # 35 1 |<O|XDIPLEN |i(14.976649)>| =     0.00696048
 # 37 1 |<O|XDIPLEN |i(15.008188)>| =     0.05688152
 # 39 1 |<O|XDIPLEN |i(15.038506)>| =     0.01865691
 # 41 1 |<O|XDIPLEN |i(15.078462)>| =     0.00346185
 # 43 1 |<O|XDIPLEN |i(15.101096)>| =     0.00664588
 # 45 1 |<O|XDIPLEN |i(15.111444)>| =     0.01265555
 # 47 1 |<O|XDIPLEN |i(15.128694)>| =     0.01782562
 # 49 1 |<O|XDIPLEN |i(15.136038)>| =     0.01838415
 # 51 1 |<O|XDIPLEN |i(15.156145)>| =     0.00492966
 # 53 1 |<O|XDIPLEN |i(15.173327)>| =     0.00339974
 # 55 1 |<O|XDIPLEN |i(15.179655)>| =     0.00002450
 # 57 1 |<O|XDIPLEN |i(15.203244)>| =     0.00188683
 # 59 1 |<O|XDIPLEN |i(15.220757)>| =     0.00242465
 # 61 1 |<O|XDIPLEN |i(15.234208)>| =     0.00147229
 # 63 1 |<O|YDIPLEN |i(14.913418)>| =     0.01914136
 # 65 1 |<O|YDIPLEN |i(14.976649)>| =     0.04724324
 # 67 1 |<O|YDIPLEN |i(15.008188)>| =     0.00240530
 # 69 1 |<O|YDIPLEN |i(15.038506)>| =     0.03021383
 # 71 1 |<O|YDIPLEN |i(15.078462)>| =     0.02011276
 # 73 1 |<O|YDIPLEN |i(15.101096)>| =     0.00639430
 # 75 1 |<O|YDIPLEN |i(15.111444)>| =     0.01056031
 # 77 1 |<O|YDIPLEN |i(15.128694)>| =     0.00139045
 # 79 1 |<O|YDIPLEN |i(15.136038)>| =     0.00397535
 # 81 1 |<O|YDIPLEN |i(15.156145)>| =     0.02408999
 # 83 1 |<O|YDIPLEN |i(15.173327)>| =     0.00910504
 # 85 1 |<O|YDIPLEN |i(15.179655)>| =     0.00431136
 # 87 1 |<O|YDIPLEN |i(15.203244)>| =     0.00680541
 # 89 1 |<O|YDIPLEN |i(15.220757)>| =     0.00525108
 # 91 1 |<O|YDIPLEN |i(15.234208)>| =     0.00253588
 # 93 1 |<O|ZDIPLEN |i(14.913418)>| =     0.02661471
 # 95 1 |<O|ZDIPLEN |i(14.976649)>| =     0.02973382
 # 97 1 |<O|ZDIPLEN |i(15.008188)>| =     0.02123726
 # 99 1 |<O|ZDIPLEN |i(15.038506)>| =     0.03239021
 #101 1 |<O|ZDIPLEN |i(15.078462)>| =     0.02076401
 #103 1 |<O|ZDIPLEN |i(15.101096)>| =     0.00802695
 #105 1 |<O|ZDIPLEN |i(15.111444)>| =     0.00705280
 #107 1 |<O|ZDIPLEN |i(15.128694)>| =     0.00435983
 #109 1 |<O|ZDIPLEN |i(15.136038)>| =     0.00902702
 #111 1 |<O|ZDIPLEN |i(15.156145)>| =     0.01535905
 #113 1 |<O|ZDIPLEN |i(15.173327)>| =     0.01972284
 #115 1 |<O|ZDIPLEN |i(15.179655)>| =     0.00391905
 #117 1 |<O|ZDIPLEN |i(15.203244)>| =     0.00846784
 #119 1 |<O|ZDIPLEN |i(15.220757)>| =     0.01462893
 #121 1 |<O|ZDIPLEN |i(15.234208)>| =     0.01076608

 THE_END   
