

     ************************************************************************
     *************** Dalton - An Electronic Structure Program ***************
     ************************************************************************

    This is output from DALTON release Dalton2017.alpha (2016)
         ( Web site: http://daltonprogram.org )

   ----------------------------------------------------------------------------

    NOTE:
     
    Dalton is an experimental code for the evaluation of molecular
    properties using (MC)SCF, DFT, CI, and CC wave functions.
    The authors accept no responsibility for the performance of
    the code or for the correctness of the results.
     
    The code (in whole or part) is provided under a licence and
    is not to be reproduced for further distribution without
    the written permission of the authors or their representatives.
     
    See the home page "http://daltonprogram.org" for further information.
     
    If results obtained with this code are published,
    the appropriate citations would be both of:
     
       K. Aidas, C. Angeli, K. L. Bak, V. Bakken, R. Bast,
       L. Boman, O. Christiansen, R. Cimiraglia, S. Coriani,
       P. Dahle, E. K. Dalskov, U. Ekstroem,
       T. Enevoldsen, J. J. Eriksen, P. Ettenhuber, B. Fernandez,
       L. Ferrighi, H. Fliegl, L. Frediani, K. Hald, A. Halkier,
       C. Haettig, H. Heiberg, T. Helgaker, A. C. Hennum,
       H. Hettema, E. Hjertenaes, S. Hoest, I.-M. Hoeyvik,
       M. F. Iozzi, B. Jansik, H. J. Aa. Jensen, D. Jonsson,
       P. Joergensen, J. Kauczor, S. Kirpekar,
       T. Kjaergaard, W. Klopper, S. Knecht, R. Kobayashi, H. Koch,
       J. Kongsted, A. Krapp, K. Kristensen, A. Ligabue,
       O. B. Lutnaes, J. I. Melo, K. V. Mikkelsen, R. H. Myhre,
       C. Neiss, C. B. Nielsen, P. Norman, J. Olsen,
       J. M. H. Olsen, A. Osted, M. J. Packer, F. Pawlowski,
       T. B. Pedersen, P. F. Provasi, S. Reine, Z. Rinkevicius,
       T. A. Ruden, K. Ruud, V. Rybkin, P. Salek, C. C. M. Samson,
       A. Sanchez de Meras, T. Saue, S. P. A. Sauer,
       B. Schimmelpfennig, K. Sneskov, A. H. Steindal,
       K. O. Sylvester-Hvid, P. R. Taylor, A. M. Teale,
       E. I. Tellgren, D. P. Tew, A. J. Thorvaldsen, L. Thoegersen,
       O. Vahtras, M. A. Watson, D. J. D. Wilson, M. Ziolkowski
       and H. Agren,
       "The Dalton quantum chemistry program system",
       WIREs Comput. Mol. Sci. 2014, 4:269–284 (doi: 10.1002/wcms.1172)
     
    and
     
       Dalton, a Molecular Electronic Structure Program,
       Release Dalton2017.alpha (2016), see http://daltonprogram.org
   ----------------------------------------------------------------------------

    Authors in alphabetical order (major contribution(s) in parenthesis):

  Kestutis Aidas,           Vilnius University,           Lithuania   (QM/MM)
  Celestino Angeli,         University of Ferrara,        Italy       (NEVPT2)
  Keld L. Bak,              UNI-C,                        Denmark     (AOSOPPA, non-adiabatic coupling, magnetic properties)
  Vebjoern Bakken,          University of Oslo,           Norway      (DALTON; geometry optimizer, symmetry detection)
  Radovan Bast,             UiT The Arctic U. of Norway,  Norway      (DALTON installation and execution frameworks)
  Pablo Baudin,             University of Valencia,       Spain       (Cholesky excitation energies)
  Linus Boman,              NTNU,                         Norway      (Cholesky decomposition and subsystems)
  Ove Christiansen,         Aarhus University,            Denmark     (CC module)
  Renzo Cimiraglia,         University of Ferrara,        Italy       (NEVPT2)
  Sonia Coriani,            University of Trieste,        Italy       (CC module, MCD in RESPONS)
  Janusz Cukras,            University of Trieste,        Italy       (MChD in RESPONS)
  Paal Dahle,               University of Oslo,           Norway      (Parallelization)
  Erik K. Dalskov,          UNI-C,                        Denmark     (SOPPA)
  Thomas Enevoldsen,        Univ. of Southern Denmark,    Denmark     (SOPPA)
  Janus J. Eriksen,         Aarhus University,            Denmark     (Polarizable embedding model, TDA)
  Rasmus Faber,             University of Copenhagen,     Denmark     (Vib.avg. NMR with SOPPA, parallel AO-SOPPA)
  Berta Fernandez,          U. of Santiago de Compostela, Spain       (doublet spin, ESR in RESPONS)
  Lara Ferrighi,            Aarhus University,            Denmark     (PCM Cubic response)
  Heike Fliegl,             University of Oslo,           Norway      (CCSD(R12))
  Luca Frediani,            UiT The Arctic U. of Norway,  Norway      (PCM)
  Bin Gao,                  UiT The Arctic U. of Norway,  Norway      (Gen1Int library)
  Christof Haettig,         Ruhr-University Bochum,       Germany     (CC module)
  Kasper Hald,              Aarhus University,            Denmark     (CC module)
  Asger Halkier,            Aarhus University,            Denmark     (CC module)
  Frederik Beyer Hansen,    University of Copenhagen,     Denmark     (Parallel AO-SOPPA)
  Erik D. Hedegaard,        Univ. of Southern Denmark,    Denmark     (Polarizable embedding model, QM/MM)
  Hanne Heiberg,            University of Oslo,           Norway      (geometry analysis, selected one-electron integrals)
  Trygve Helgaker,          University of Oslo,           Norway      (DALTON; ABACUS, ERI, DFT modules, London, and much more)
  Alf Christian Hennum,     University of Oslo,           Norway      (Parity violation)
  Hinne Hettema,            University of Auckland,       New Zealand (quadratic response in RESPONS; SIRIUS supersymmetry)
  Eirik Hjertenaes,         NTNU,                         Norway      (Cholesky decomposition)
  Pi A. B. Haase,           University of Copenhagen,     Denmark     (Triplet AO-SOPPA)
  Maria Francesca Iozzi,    University of Oslo,           Norway      (RPA)
  Brano Jansik              Technical Univ. of Ostrava    Czech Rep.  (DFT cubic response)
  Hans Joergen Aa. Jensen,  Univ. of Southern Denmark,    Denmark     (DALTON; SIRIUS, RESPONS, ABACUS modules, London, and much more)
  Dan Jonsson,              UiT The Arctic U. of Norway,  Norway      (cubic response in RESPONS module)
  Poul Joergensen,          Aarhus University,            Denmark     (RESPONS, ABACUS, and CC modules)
  Maciej Kaminski,          University of Warsaw,         Poland      (CPPh in RESPONS)
  Joanna Kauczor,           Linkoeping University,        Sweden      (Complex polarization propagator (CPP) module)
  Sheela Kirpekar,          Univ. of Southern Denmark,    Denmark     (Mass-velocity & Darwin integrals)
  Wim Klopper,              KIT Karlsruhe,                Germany     (R12 code in CC, SIRIUS, and ABACUS modules)
  Stefan Knecht,            ETH Zurich,                   Switzerland (Parallel CI and MCSCF)
  Rika Kobayashi,           Australian National Univ.,    Australia   (DIIS in CC, London in MCSCF)
  Henrik Koch,              NTNU,                         Norway      (CC module, Cholesky decomposition)
  Jacob Kongsted,           Univ. of Southern Denmark,    Denmark     (Polarizable embedding model, QM/MM)
  Andrea Ligabue,           University of Modena,         Italy       (CTOCD, AOSOPPA)
  Nanna H. List             Univ. of Southern Denmark,    Denmark     (Polarizable embedding model)
  Ola B. Lutnaes,           University of Oslo,           Norway      (DFT Hessian)
  Juan I. Melo,             University of Buenos Aires,   Argentina   (LRESC, Relativistic Effects on NMR Shieldings)
  Kurt V. Mikkelsen,        University of Copenhagen,     Denmark     (MC-SCRF and QM/MM)
  Rolf H. Myhre,            NTNU,                         Norway      (Cholesky, subsystems and ECC2)
  Christian Neiss,          Univ. Erlangen-Nuernberg,     Germany     (CCSD(R12))
  Christian B. Nielsen,     University of Copenhagen,     Denmark     (QM/MM)
  Patrick Norman,           Linkoeping University,        Sweden      (Cubic response and complex frequency response in RESPONS)
  Jeppe Olsen,              Aarhus University,            Denmark     (SIRIUS CI/density modules)
  Jogvan Magnus H. Olsen,   Univ. of Southern Denmark,    Denmark     (Polarizable embedding model, QM/MM)
  Anders Osted,             Copenhagen University,        Denmark     (QM/MM)
  Martin J. Packer,         University of Sheffield,      UK          (SOPPA)
  Filip Pawlowski,          Kazimierz Wielki University,  Poland      (CC3)
  Morten N. Pedersen,       Univ. of Southern Denmark,    Denmark     (Polarizable embedding model)
  Thomas B. Pedersen,       University of Oslo,           Norway      (Cholesky decomposition)
  Patricio F. Provasi,      University of Northeastern,   Argentina   (Analysis of coupling constants in localized orbitals)
  Zilvinas Rinkevicius,     KTH Stockholm,                Sweden      (open-shell DFT, ESR)
  Elias Rudberg,            KTH Stockholm,                Sweden      (DFT grid and basis info)
  Torgeir A. Ruden,         University of Oslo,           Norway      (Numerical derivatives in ABACUS)
  Kenneth Ruud,             UiT The Arctic U. of Norway,  Norway      (DALTON; ABACUS magnetic properties and much more)
  Pawel Salek,              KTH Stockholm,                Sweden      (DALTON; DFT code)
  Claire C. M. Samson       University of Karlsruhe       Germany     (Boys localization, r12 integrals in ERI)
  Alfredo Sanchez de Meras, University of Valencia,       Spain       (CC module, Cholesky decomposition)
  Trond Saue,               Paul Sabatier University,     France      (direct Fock matrix construction)
  Stephan P. A. Sauer,      University of Copenhagen,     Denmark     (SOPPA(CCSD), SOPPA prop., AOSOPPA, vibrational g-factors)
  Bernd Schimmelpfennig,    Forschungszentrum Karlsruhe,  Germany     (AMFI module)
  Kristian Sneskov,         Aarhus University,            Denmark     (Polarizable embedding model, QM/MM)
  Arnfinn H. Steindal,      UiT The Arctic U. of Norway,  Norway      (parallel QM/MM, Polarizable embedding model)
  Casper Steinmann,         Univ. of Southern Denmark,    Denmark     (QFIT, Polarizable embedding model)
  K. O. Sylvester-Hvid,     University of Copenhagen,     Denmark     (MC-SCRF)
  Peter R. Taylor,          VLSCI/Univ. of Melbourne,     Australia   (Symmetry handling ABACUS, integral transformation)
  Andrew M. Teale,          University of Nottingham,     England     (DFT-AC, DFT-D)
  David P. Tew,             University of Bristol,        England     (CCSD(R12))
  Olav Vahtras,             KTH Stockholm,                Sweden      (triplet response, spin-orbit, ESR, TDDFT, open-shell DFT)
  David J. Wilson,          La Trobe University,          Australia   (DFT Hessian and DFT magnetizabilities)
  Hans Agren,               KTH Stockholm,                Sweden      (SIRIUS module, RESPONS, MC-SCRF solvation model)
 --------------------------------------------------------------------------------

     Date and time (Linux)  : Mon Dec 17 20:30:12 2018
     Host name              : n-62-23-5                               

 * Work memory size             :  1280000000 =  9.537 gigabytes.

 * Directories for basis set searches:
   1) /zhome/37/3/129401/NH3NH4/CCSD/AIMD_SAMPLING/nh4_4h2o_nd
   2) /zhome/9a/4/124800/source/dalton/build-mlcc/basis


Compilation information
-----------------------

 Who compiled             | rfaber
 Host                     | hpclogin1
 System                   | Linux-2.6.32-696.1.1.el6.x86_64
 CMake generator          | Unix Makefiles
 Processor                | x86_64
 64-bit integers          | ON
 MPI                      | OFF
 Fortran compiler         | /opt/intel/2016update2/compilers_and_libraries_201
                          | 6.2.181/linux/bin/intel64/ifort
 Fortran compiler version | ifort (IFORT) 16.0.2 20160204
 C compiler               | /opt/intel/2016update2/compilers_and_libraries_201
                          | 6.2.181/linux/bin/intel64/icc
 C compiler version       | icc (ICC) 16.0.2 20160204
 C++ compiler             | /opt/intel/2016update2/compilers_and_libraries_201
                          | 6.2.181/linux/bin/intel64/icpc
 C++ compiler version     | icpc (ICC) 16.0.2 20160204
 Static linking           | OFF
 Last Git revision        | bb4d1599ca5680a9f3980451fc8bbefdba436d59
 Git branch               | mlcc
 Configuration time       | 2017-06-13 16:11:03.928841


   Content of the .dal input file
 ----------------------------------

**DALTON
.RUN WAVE FUNCTIONS
*QMMM
.QMMM
**INTEGRALS
.DIPLEN
**WAVE FUNCTIONS
.CC
*PRINT
!To check the origin of excit
.PRINTL
   0 11
*SCF INP
.THRESH
1.0D-7
*CC INP
.CCSD
.THRLEQ
 1.0D-9
.THRENR
 1.0D-10
.FROIMP
4
0
.PRINT
 1
.MAX IT
 1200
.MAXRED
 1200
.MXLRV
1199
*CCSLV
.CCMM
.MXSLIT
200
.MXINIT
4 5
*CCEXCI
.NCCEXC
 15
.CVSEPARA
1
1
*CCLRSD
.DIPOLE
**END OF DALTON INPUT


   Content of the .mol file
 ----------------------------

ATOMBASIS


Atomtypes=4 Charge=1 Nosymm Angstrom
   7.00000    1    Basis=6-311G**
N          0.000000        0.000000        0.000000
   1.00000    4    Basis=6-311G**
H          0.558008        0.848579       -0.001510
H          0.683276       -0.781796       -0.007672
H         -0.656406       -0.248265       -0.710624
H         -0.354124       -0.126264        1.008834
   8.00000    4    Basis=6-311G**
O         -2.338775       -0.910321       -1.598667
O          2.194836        2.175187        0.325228
O         -0.894920        0.488322        2.838324
O          2.224756       -2.077973       -0.637243
   1.00000    8    Basis=6-311G**
H         -2.452472       -1.865198       -1.215599
H         -3.144187       -0.291620       -1.469549
H          2.460926        3.106726        0.236330
H          2.889224        1.603091       -0.046199
H         -0.083651        0.314238        3.409446
H         -0.797508        1.382831        2.622646
H          2.277863       -2.739310        0.100201
H          2.922312       -1.394121       -0.646640


       *******************************************************************
       *********** Output from DALTON general input processing ***********
       *******************************************************************

 --------------------------------------------------------------------------------
   Overall default print level:    0
   Print level for DALTON.STAT:    1

    HERMIT 1- and 2-electron integral sections will be executed
    "Old" integral transformation used (limited to max 255 basis functions)
    Wave function sections will be executed (SIRIUS module)
 --------------------------------------------------------------------------------


 Changes of defaults for *QMMM  :
 --------------------------------

 +------------------+
 |  WORD: | CHANGE: |
 +------------------+
 |   QMMM |       T |
 +------------------+
 


   ****************************************************************************
   *************** Output of molecule and basis set information ***************
   ****************************************************************************


    The two title cards from your ".mol" input:
    ------------------------------------------------------------------------
 1:                                                                         
 2:                                                                         
    ------------------------------------------------------------------------

  Coordinates are entered in Angstrom and converted to atomic units.
          - Conversion factor : 1 bohr = 0.52917721 A

  Atomic type no.    1
  --------------------
  Nuclear charge:   7.00000
  Number of symmetry independent centers:    1
  Number of basis sets to read;    2
  The basis set is "6-311G**" from the basis set library.
  Basis set file used for this atomic type with Z =   7 :
     "/zhome/9a/4/124800/source/dalton/build-mlcc/basis/6-311G**"

  Info about the basis set file: your basis has no documentation.
  Basis set: 6-311G**                                                                        

  Atomic type no.    2
  --------------------
  Nuclear charge:   1.00000
  Number of symmetry independent centers:    4
  Number of basis sets to read;    2
  The basis set is "6-311G**" from the basis set library.
  Basis set file used for this atomic type with Z =   1 :
     "/zhome/9a/4/124800/source/dalton/build-mlcc/basis/6-311G**"

  Info about the basis set file: your basis has no documentation.
  Basis set: 6-311G**                                                                        

  Atomic type no.    3
  --------------------
  Nuclear charge:   8.00000
  Number of symmetry independent centers:    4
  Number of basis sets to read;    2
  The basis set is "6-311G**" from the basis set library.
  Basis set file used for this atomic type with Z =   8 :
     "/zhome/9a/4/124800/source/dalton/build-mlcc/basis/6-311G**"

  Info about the basis set file: your basis has no documentation.
  Basis set: 6-311G**                                                                        

  Atomic type no.    4
  --------------------
  Nuclear charge:   1.00000
  Number of symmetry independent centers:    8
  Number of basis sets to read;    2
  The basis set is "6-311G**" from the basis set library.
  Basis set file used for this atomic type with Z =   1 :
     "/zhome/9a/4/124800/source/dalton/build-mlcc/basis/6-311G**"

  Info about the basis set file: your basis has no documentation.
  Basis set: 6-311G**                                                                        


                         SYMGRP: Point group information
                         -------------------------------

@    Point group: C1 


                                 Isotopic Masses
                                 ---------------

                           N          14.003074
                           H           1.007825
                           H           1.007825
                           H           1.007825
                           H           1.007825
                           O          15.994915
                           O          15.994915
                           O          15.994915
                           O          15.994915
                           H           1.007825
                           H           1.007825
                           H           1.007825
                           H           1.007825
                           H           1.007825
                           H           1.007825
                           H           1.007825
                           H           1.007825

                       Total mass:    90.076634 amu
                       Natural abundance:  98.500 %

 Center-of-mass coordinates (a.u.):    0.488923   -0.113025    0.380621


  Atoms and basis sets
  --------------------

  Number of atom types :    4
  Total number of atoms:   17

  label    atoms   charge   prim   cont     basis
  ----------------------------------------------------------------------
  N           1    7.0000    31    18      [11s5p1d|4s3p1d]                                   
  H           4    1.0000     8     6      [5s1p|3s1p]                                        
  O           4    8.0000    31    18      [11s5p1d|4s3p1d]                                   
  H           8    1.0000     8     6      [5s1p|3s1p]                                        
  ----------------------------------------------------------------------
  total:     17   51.0000   251   162
  ----------------------------------------------------------------------
  Spherical harmonic basis used.

  Threshold for neglecting AO integrals:  1.00D-12


  Cartesian Coordinates (a.u.)
  ----------------------------

  Total number of coordinates:   51
  N       :     1  x   0.0000000000    2  y   0.0000000000    3  z   0.0000000000
  H       :     4  x   1.0544822956    5  y   1.6035819054    6  z  -0.0028534864
  H       :     7  x   1.2912045078    8  y  -1.4773803256    9  z  -0.0144979788
  H       :    10  x  -1.2404275668   11  y  -0.4691528564   12  z  -1.3428847378
  H       :    13  x  -0.6691973743   14  y  -0.2386043794   15  z   1.9064199656
  O       :    16  x  -4.4196442180   17  y  -1.7202573758   18  z  -3.0210427951
  O       :    19  x   4.1476389293   20  y   4.1105077006   21  z   0.6145918482
  O       :    22  x  -1.6911537038   23  y   0.9227948408   24  z   5.3636550140
  O       :    25  x   4.2041795349   26  y  -3.9267998651   27  z  -1.2042147451
  H       :    28  x  -4.6345004092   29  y  -3.5247133889   30  z  -2.2971491878
  H       :    31  x  -5.9416523158   32  y  -0.5510819326   33  z  -2.7770451373
  H       :    34  x   4.6504761539   35  y   5.8708612854   36  z   0.4465989751
  H       :    37  x   5.4598420738   38  y   3.0294029434   39  z  -0.0873034572
  H       :    40  x  -0.1580774801   41  y   0.5938237581   42  z   6.4429191780
  H       :    43  x  -1.5070717025   44  y   2.6131718672   45  z   4.9560826628
  H       :    46  x   4.3045372203   47  y  -5.1765456715   48  z   0.1893524475
  H       :    49  x   5.5223693318   50  y  -2.6345068751   51  z  -1.2219725015

  Max    interatomic separation is    7.1393 Angstrom (   13.4913 Bohr)
  between atoms   12 and   10, "H     " and "H     ".

  Min HX interatomic separation is    0.9253 Angstrom (    1.7485 Bohr)

  Min YX interatomic separation is    2.9756 Angstrom (    5.6231 Bohr)


  Bond distances (Angstrom):
  --------------------------

                  atom 1     atom 2       distance
                  ------     ------       --------
  bond distance:  H          N            1.015609
  bond distance:  H          N            1.038330
  bond distance:  H          N            0.998745
  bond distance:  H          N            1.076612
  bond distance:  H          O            1.035113
  bond distance:  H          O            1.023792
  bond distance:  H          O            0.972868
  bond distance:  H          O            0.973358
  bond distance:  H          O            1.007295
  bond distance:  H          O            0.925285
  bond distance:  H          O            0.991973
  bond distance:  H          O            0.976896


  Bond angles (degrees):
  ----------------------

                  atom 1     atom 2     atom 3         angle
                  ------     ------     ------         -----
  bond angle:     H          N          H            105.518
  bond angle:     H          N          H            124.593
  bond angle:     H          N          H            106.267
  bond angle:     H          N          H            103.891
  bond angle:     H          N          H             97.763
  bond angle:     H          N          H            114.922
  bond angle:     H          O          H            115.112
  bond angle:     H          O          H            109.439
  bond angle:     H          O          H            102.383
  bond angle:     H          O          H            115.825




 Principal moments of inertia (u*A**2) and principal axes
 --------------------------------------------------------

   IA     362.835354          0.790719    0.477036    0.383666
   IB     426.984328         -0.601013    0.485768    0.634676
   IC     581.849608         -0.116390    0.732439   -0.670811


 Rotational constants
 --------------------

               A                   B                   C

           1392.8604           1183.6008            868.5733 MHz
            0.046461            0.039481            0.028972 cm-1


@  Nuclear repulsion energy :  191.470472376368 Hartree


                     .---------------------------------------.
                     | Starting in Integral Section (HERMIT) |
                     `---------------------------------------'



 ***************************************************************************************
 ****************** Output from **INTEGRALS input processing (HERMIT) ******************
 ***************************************************************************************



    *************************************************************************
    ****************** Output from HERMIT input processing ******************
    *************************************************************************


 Default print level:        1

 * Nuclear model: Point charge

 Calculation of one- and two-electron Hamiltonian integrals.

 The following one-electron property integrals are calculated as requested:
          - overlap integrals
          - dipole length integrals

 Center of mass  (bohr):      0.488923138543     -0.113025136671      0.380621223993
 Operator center (bohr):      0.000000000000      0.000000000000      0.000000000000
 Gauge origin    (bohr):      0.000000000000      0.000000000000      0.000000000000
 Dipole origin   (bohr):      0.000000000000      0.000000000000      0.000000000000
 
  *********************************** 
  QMMM electrostatic potential: 
  Multipole order                                    0
  Isotropic polarization  
  *********************************** 
 
  ---------------- 
  QMMM information 
  ---------------- 
 
  MM coordinates in au 
  -------------------- 
     1      1.727667      3.329951     -5.505972
     2      2.097964      1.519606     -5.127383
     3      3.169681      4.401805     -5.252613
     4     10.796952      8.669393    -11.666991
     5      9.185320      8.864427    -10.798377
     6     10.902439      6.850949    -12.174999
     7      6.677644      5.675430     -5.715161
     8      7.792210      6.931912     -4.977809
     9      7.764219      4.458308     -6.568898
    10      9.816585     10.042849     -3.610668
    11     10.673377      9.601844     -1.961377
    12     11.134440     10.151178     -4.790278
    13     -8.640922     -7.666492    -10.274740
    14     -7.733277     -8.786956    -11.433017
    15     -8.716547     -5.955638    -11.073430
    16     -9.383288     10.137290     -7.714758
    17    -10.752717     10.078208     -8.875575
    18     -9.558652     11.899381     -6.999965
    19     -0.808542     -9.771237     -0.580855
    20     -0.595455    -11.118837     -1.800070
    21     -1.853179    -10.552127      0.814442
    22      4.381132     -0.874635    -10.435661
    23      3.358506     -1.307386     -8.944032
    24      5.310246     -2.490026    -10.926310
    25      8.017639    -10.716382      2.548471
    26      9.674721    -10.238595      1.766248
    27      8.456660    -11.785164      3.974168
    28     -1.309238      4.569397     -9.803544
    29     -1.744397      2.926458    -10.253559
    30     -0.109185      4.340000     -8.356042
    31     -8.827585      1.578241     -3.016441
    32    -10.074262      1.611305     -1.486638
    33     -8.282689      3.340486     -3.274279
    34      9.300854     -9.891838     -9.428915
    35     10.802247     -8.940383     -9.364058
    36      8.396446     -9.483502     -7.803356
    37      2.006152     -1.454613     -5.385351
    38      0.588262     -2.177981     -6.294672
    39      2.736257     -2.513676     -4.040541
    40     11.723020     -1.401035     -6.274390
    41     12.436165     -1.490342     -8.061107
    42     12.893564     -0.309462     -5.294342
    43     10.714394     -5.545653     -2.989482
    44      9.271401     -5.936979     -4.131317
    45     11.445087     -3.993982     -3.854380
    46     10.636488      7.376886      1.780462
    47     12.280372      7.875375      2.377417
    48      9.465069      7.457560      3.189663
    49      6.161975    -10.799537      9.613687
    50      5.886232    -12.323584      8.526732
    51      6.734251    -11.282188     11.336828
    52     -2.293171      5.014674     -2.561242
    53     -1.071509      4.533882     -3.834099
    54     -3.894737      4.753449     -3.327607
    55     11.640388      2.284171      1.345935
    56     11.487626      1.481494      3.005505
    57     11.229448      4.100598      1.528972
    58      0.498039     11.094028     -8.492000
    59      1.865802     10.485325     -9.582038
    60     -0.828947     10.067117     -9.191180
    61     -7.449939      0.692964      9.030189
    62     -5.859204      0.703184     10.116575
    63     -7.244367     -0.913067      8.076364
    64     -5.641772     -2.957769      6.478013
    65     -4.652795     -1.624299      5.656338
    66     -4.658889     -4.321930      7.273048
    67     -8.708442     -8.600695     -5.046593
    68     -8.327896     -7.871405     -6.833420
    69    -10.317651     -7.813020     -4.507492
    70     -4.339295      9.135592    -10.100979
    71     -5.996974      9.082638     -9.097833
    72     -3.804480      7.244762    -10.200581
    73      8.667412     -3.396554     10.039796
    74      8.310384     -2.055351      8.698003
    75      9.485327     -4.799853      9.300858
    76     -3.397565     -6.938523      9.151078
    77     -4.272397     -8.631167      9.348466
    78     -2.216307     -6.668384     10.534288
    79      4.384412      9.135310      0.594096
    80      5.916417     10.271145      0.706748
    81      3.392574      9.469278     -0.981006
    82     -2.644617     -2.349988     -7.849123
    83     -2.438348     -4.216136     -8.084071
    84     -3.399920     -2.212803     -6.096963
    85      4.791032      3.674958      5.783131
    86      4.620892      3.873355      3.869912
    87      3.262750      4.449179      6.432998
    88      4.004628     -6.167425    -10.880047
    89      3.551661     -6.346840    -12.685990
    90      4.642031     -7.705190    -10.267062
    91      1.811941     -1.284706      8.479084
    92      1.567380     -3.108626      8.252852
    93      2.497986     -1.033264     10.260336
    94      2.086193      6.351708      9.610771
    95      1.450469      7.629546      8.352365
    96      0.759052      5.621998     10.619386
    97     -7.963238      9.023240      3.426816
    98     -8.795522      9.947925      4.763578
    99     -7.868625      7.255167      4.108675
   100     -6.755298     -7.615322      3.423441
   101     -5.881582     -7.162561      1.808016
   102     -6.727383     -6.166331      4.523543
   103     -6.433826    -10.803349      9.627161
   104     -8.152133    -11.365763      8.952736
   105     -5.524476    -12.344470     10.454740
   106      9.645801     -8.021337      7.595272
   107      8.118997     -9.081404      8.310273
   108      9.077333     -7.429980      5.910600
   109    -10.966990     11.544363      7.646565
   110    -12.001815     10.447706      8.784437
   111    -11.780598     13.403567      7.626751
   112     -5.096232     -6.816917     -1.339704
   113     -3.725639     -7.914188     -1.344030
   114     -6.290384     -7.709230     -2.527751
   115      8.653173      0.206785      6.406404
   116      9.545145      1.167643      7.645698
   117      7.152279      1.297660      6.229896
   118      8.606956     -4.118237      2.716485
   119      9.192104     -4.327034      1.039245
   120      8.671403     -2.260727      3.103304
   121      0.948852      9.319521      5.095809
   122      2.139633      9.652377      3.714130
   123     -0.184630     10.825370      5.062280
   124      7.403414      0.825625     -1.802445
   125      9.072428      1.192965     -1.137938
   126      7.532235      1.448696     -3.568778
   127     -7.134096      4.134445      4.867349
   128     -5.238627      4.578816      4.819361
   129     -7.409495      3.114151      6.484359
   130     11.293952      3.119108     10.193895
   131     10.473465      2.504210     11.671833
   132     12.802089      2.139710      9.863044
   133      8.567077      2.031968     -8.848306
   134      6.987449      1.383773     -9.697525
   135      9.432105      0.570162     -8.219912
   136     -2.243925      5.310694      2.833024
   137     -2.172034      5.292947      0.936253
   138     -0.855538      6.530619      3.485645
   139     -2.734318      0.042513     11.414135
   140     -1.639687     -0.500243     10.038756
   141     -3.301981     -1.454365     12.390203
   142      1.656371     -6.661772      7.400528
   143      2.421361     -7.120734      5.724381
   144     -0.162643     -7.319263      7.392032
   145     -0.851864     -6.894006     -9.384722
   146     -0.962487     -8.669636     -8.880076
   147      0.873154     -6.582481     -9.866721
   148    -10.166883     -2.349895    -10.891455
   149    -11.880438     -2.709172    -11.687956
   150     -9.115389     -1.250585    -12.046112
   151      5.258777      8.929782     -9.975210
   152      4.553254      7.619591    -11.315502
   153      5.678939      7.839028     -8.527574
   154      7.444480      8.353447      6.421344
   155      6.346133      6.764908      6.299646
   156      8.505463      8.225078      7.919058
   157      6.391681     -8.487824     -5.138398
   158      4.507454     -8.095362     -4.991974
   159      6.781057    -10.132704     -4.342046
   160      3.613459     -8.009177      2.229257
   161      4.987567     -9.153818      2.645358
   162      2.394404     -9.040677      1.255595
   163    -10.947038     -9.348044      0.666510
   164    -11.512612     -8.058389     -0.580395
   165    -10.023088     -8.530617      2.016136
   166     -7.275561      6.107901     -4.438867
   167     -8.446991      6.802638     -5.638888
   168     -6.771321      7.598411     -3.374987
   169     -3.379943     11.697320      3.932002
   170     -4.773966     10.390413      3.573463
   171     -4.325046     13.330032      4.263290
   172     -7.244726     10.415303     -1.305204
   173     -8.623444     11.654413     -1.349561
   174     -7.288674      9.734512      0.440270
   175      1.189231      9.745535     -3.622125
   176     -0.201611      8.606474     -3.458688
   177      1.364560     10.220833     -5.472152
 
  MM charges 
  ---------- 
     1     -0.674440
     2      0.337220
     3      0.337220
     4     -0.674440
     5      0.337220
     6      0.337220
     7     -0.674440
     8      0.337220
     9      0.337220
    10     -0.674440
    11      0.337220
    12      0.337220
    13     -0.674440
    14      0.337220
    15      0.337220
    16     -0.674440
    17      0.337220
    18      0.337220
    19     -0.674440
    20      0.337220
    21      0.337220
    22     -0.674440
    23      0.337220
    24      0.337220
    25     -0.674440
    26      0.337220
    27      0.337220
    28     -0.674440
    29      0.337220
    30      0.337220
    31     -0.674440
    32      0.337220
    33      0.337220
    34     -0.674440
    35      0.337220
    36      0.337220
    37     -0.674440
    38      0.337220
    39      0.337220
    40     -0.674440
    41      0.337220
    42      0.337220
    43     -0.674440
    44      0.337220
    45      0.337220
    46     -0.674440
    47      0.337220
    48      0.337220
    49     -0.674440
    50      0.337220
    51      0.337220
    52     -0.674440
    53      0.337220
    54      0.337220
    55     -0.674440
    56      0.337220
    57      0.337220
    58     -0.674440
    59      0.337220
    60      0.337220
    61     -0.674440
    62      0.337220
    63      0.337220
    64     -0.674440
    65      0.337220
    66      0.337220
    67     -0.674440
    68      0.337220
    69      0.337220
    70     -0.674440
    71      0.337220
    72      0.337220
    73     -0.674440
    74      0.337220
    75      0.337220
    76     -0.674440
    77      0.337220
    78      0.337220
    79     -0.674440
    80      0.337220
    81      0.337220
    82     -0.674440
    83      0.337220
    84      0.337220
    85     -0.674440
    86      0.337220
    87      0.337220
    88     -0.674440
    89      0.337220
    90      0.337220
    91     -0.674440
    92      0.337220
    93      0.337220
    94     -0.674440
    95      0.337220
    96      0.337220
    97     -0.674440
    98      0.337220
    99      0.337220
   100     -0.674440
   101      0.337220
   102      0.337220
   103     -0.674440
   104      0.337220
   105      0.337220
   106     -0.674440
   107      0.337220
   108      0.337220
   109     -0.674440
   110      0.337220
   111      0.337220
   112     -0.674440
   113      0.337220
   114      0.337220
   115     -0.674440
   116      0.337220
   117      0.337220
   118     -0.674440
   119      0.337220
   120      0.337220
   121     -0.674440
   122      0.337220
   123      0.337220
   124     -0.674440
   125      0.337220
   126      0.337220
   127     -0.674440
   128      0.337220
   129      0.337220
   130     -0.674440
   131      0.337220
   132      0.337220
   133     -0.674440
   134      0.337220
   135      0.337220
   136     -0.674440
   137      0.337220
   138      0.337220
   139     -0.674440
   140      0.337220
   141      0.337220
   142     -0.674440
   143      0.337220
   144      0.337220
   145     -0.674440
   146      0.337220
   147      0.337220
   148     -0.674440
   149      0.337220
   150      0.337220
   151     -0.674440
   152      0.337220
   153      0.337220
   154     -0.674440
   155      0.337220
   156      0.337220
   157     -0.674440
   158      0.337220
   159      0.337220
   160     -0.674440
   161      0.337220
   162      0.337220
   163     -0.674440
   164      0.337220
   165      0.337220
   166     -0.674440
   167      0.337220
   168      0.337220
   169     -0.674440
   170      0.337220
   171      0.337220
   172     -0.674440
   173      0.337220
   174      0.337220
   175     -0.674440
   176      0.337220
   177      0.337220
 
  MM isotropic polarizabilities in au 
  ----------------------------------- 
     1      5.739350
     2      2.308390
     3      2.308390
     4      5.739350
     5      2.308390
     6      2.308390
     7      5.739350
     8      2.308390
     9      2.308390
    10      5.739350
    11      2.308390
    12      2.308390
    13      5.739350
    14      2.308390
    15      2.308390
    16      5.739350
    17      2.308390
    18      2.308390
    19      5.739350
    20      2.308390
    21      2.308390
    22      5.739350
    23      2.308390
    24      2.308390
    25      5.739350
    26      2.308390
    27      2.308390
    28      5.739350
    29      2.308390
    30      2.308390
    31      5.739350
    32      2.308390
    33      2.308390
    34      5.739350
    35      2.308390
    36      2.308390
    37      5.739350
    38      2.308390
    39      2.308390
    40      5.739350
    41      2.308390
    42      2.308390
    43      5.739350
    44      2.308390
    45      2.308390
    46      5.739350
    47      2.308390
    48      2.308390
    49      5.739350
    50      2.308390
    51      2.308390
    52      5.739350
    53      2.308390
    54      2.308390
    55      5.739350
    56      2.308390
    57      2.308390
    58      5.739350
    59      2.308390
    60      2.308390
    61      5.739350
    62      2.308390
    63      2.308390
    64      5.739350
    65      2.308390
    66      2.308390
    67      5.739350
    68      2.308390
    69      2.308390
    70      5.739350
    71      2.308390
    72      2.308390
    73      5.739350
    74      2.308390
    75      2.308390
    76      5.739350
    77      2.308390
    78      2.308390
    79      5.739350
    80      2.308390
    81      2.308390
    82      5.739350
    83      2.308390
    84      2.308390
    85      5.739350
    86      2.308390
    87      2.308390
    88      5.739350
    89      2.308390
    90      2.308390
    91      5.739350
    92      2.308390
    93      2.308390
    94      5.739350
    95      2.308390
    96      2.308390
    97      5.739350
    98      2.308390
    99      2.308390
   100      5.739350
   101      2.308390
   102      2.308390
   103      5.739350
   104      2.308390
   105      2.308390
   106      5.739350
   107      2.308390
   108      2.308390
   109      5.739350
   110      2.308390
   111      2.308390
   112      5.739350
   113      2.308390
   114      2.308390
   115      5.739350
   116      2.308390
   117      2.308390
   118      5.739350
   119      2.308390
   120      2.308390
   121      5.739350
   122      2.308390
   123      2.308390
   124      5.739350
   125      2.308390
   126      2.308390
   127      5.739350
   128      2.308390
   129      2.308390
   130      5.739350
   131      2.308390
   132      2.308390
   133      5.739350
   134      2.308390
   135      2.308390
   136      5.739350
   137      2.308390
   138      2.308390
   139      5.739350
   140      2.308390
   141      2.308390
   142      5.739350
   143      2.308390
   144      2.308390
   145      5.739350
   146      2.308390
   147      2.308390
   148      5.739350
   149      2.308390
   150      2.308390
   151      5.739350
   152      2.308390
   153      2.308390
   154      5.739350
   155      2.308390
   156      2.308390
   157      5.739350
   158      2.308390
   159      2.308390
   160      5.739350
   161      2.308390
   162      2.308390
   163      5.739350
   164      2.308390
   165      2.308390
   166      5.739350
   167      2.308390
   168      2.308390
   169      5.739350
   170      2.308390
   171      2.308390
   172      5.739350
   173      2.308390
   174      2.308390
   175      5.739350
   176      2.308390
   177      2.308390


     ************************************************************************
     ************************** Output from HERINT **************************
     ************************************************************************



                      Nuclear contribution to dipole moments
                      --------------------------------------

                 au               Debye          C m (/(10**-30)

      x     26.06014907        66.23828769       220.94714500
      y     -5.27118127       -13.39800552       -44.69093589
      z     20.22158132        51.39812965       171.44570612


  Time used in HUCKEL     is       0.23 seconds
  Time used in OVERLAP    is       0.40 seconds
  Time used in POPOVLP    is       0.23 seconds
  Time used in DIPLEN     is       0.56 seconds
  Time used in QUADRUP    is       0.47 seconds
  Time used in KINENE     is       0.26 seconds

 Threshold for neglecting two-electron integrals:  1.00D-12
 HERMIT - Number of two-electron integrals written:    33328146 ( 38.2% )
 HERMIT - Megabytes written:                            381.623

  Time used in TWOINT     is      17.72 seconds
  Total CPU  time used in HERMIT:  19.95 seconds
  Total wall time used in HERMIT:   7.03 seconds


                        .----------------------------------.
                        | End of Integral Section (HERMIT) |
                        `----------------------------------'



                   .--------------------------------------------.
                   | Starting in Wave Function Section (SIRIUS) |
                   `--------------------------------------------'

NCCEXCI for singlet:   15
 CCSD_INPUT: core-val requested
 Requested number of core orbs per sym
                     1
 Indices of requested core orbs
                     1

 *** Output from Huckel module :

     Using EWMO model:          T
     Using EHT  model:          F
     Number of Huckel orbitals each symmetry:   37

 EWMO - Energy Weighted Maximum Overlap - is a Huckel type method,
        which normally is better than Extended Huckel Theory.
 Reference: Linderberg and Ohrn, Propagators in Quantum Chemistry (Wiley, 1973)

 Huckel EWMO eigenvalues for symmetry :  1
          -20.684928     -20.684748     -20.684571     -20.683993     -15.675907
           -1.778553      -1.613272      -1.595998      -1.581064      -1.508691
           -0.824461      -0.803794      -0.792565      -0.780725      -0.768018
           -0.745139      -0.722911      -0.686406      -0.670912      -0.666351
           -0.656124      -0.614065      -0.593288      -0.578204      -0.566964
           -0.265880      -0.252237      -0.239300      -0.234531      -0.188177
           -0.184264      -0.175398      -0.169963      -0.167483      -0.156845
           -0.149120      -0.130952

 **********************************************************************
 *SIRIUS* a direct, restricted step, second order MCSCF program       *
 **********************************************************************

 
     Date and time (Linux)  : Mon Dec 17 20:30:20 2018
     Host name              : n-62-23-5                               

 Title lines from ".mol" input file:
                                                                             
                                                                             

 Print level on unit LUPRI =   2 is   0
 Print level on unit LUW4  =   2 is  11

@    (Integral direct) CC calculation.

@    This is a combination run starting with
@              a restricted, closed shell Hartree-Fock calculation


 Initial molecular orbitals are obtained according to
 ".MOSTART EWMO  " input option

@    QM part is embedded in an environment :

@         Model: QMMM

     Wave function specification
     ============================

     For the specification of the Coupled Cluster: see later.

@    Wave function type        --- CC ---
@    Number of closed shell electrons          50
@    Number of electrons in active shells       0
@    Total charge of the molecule               1

@    Spin multiplicity and 2 M_S                1         0
@    Total number of symmetries                 1 (point group: C1 )
@    Reference state symmetry                   1 (irrep name : A  )

     Orbital specifications
     ======================
@    Abelian symmetry species          All |    1
@                                          |  A  
                                       --- |  ---
@    Occupied SCF orbitals              25 |   25
@    Secondary orbitals                137 |  137
@    Total number of orbitals          162 |  162
@    Number of basis functions         162 |  162

     Optimization information
     ========================
@    Number of configurations                 1
@    Number of orbital rotations           3425
     ------------------------------------------
@    Total number of variables             3426

     Maximum number of Fock   iterations      0
     Maximum number of DIIS   iterations     60
     Maximum number of QC-SCF iterations     60
     Threshold for SCF convergence     1.00D-07


 Changes of defaults for CC:
 ---------------------------


 -Implicit frozen core calculation
 -Excitation energies calculated
 -One-photon absorption strengths will be calculated
 -Oscillator strengths calculated
  
* Read MO coefficients from SIRIUS.RST with label "NEWORB  " and header info: 17Dec18  REORTHO 


 ***********************************************
 ***** DIIS acceleration of SCF iterations *****
 ***********************************************

 C1-DIIS algorithm; max error vectors =    8
 -----------------------------------------------------------------------------

 *** DIIS iteration number    1
 RDSUPM called. NFMAT, ISYMDM(1:NFMAT)                     1
                     1

Calculating AOSUPINT
     (Precalculated two-electron integrals are transformed to P-supermatrix elements.
      Threshold for discarding integrals :  1.00D-12 )
  CPU  time used in FORMSUP    is   7.02 seconds
  WALL time used in FORMSUP    is   9.13 seconds

 ITDIIS, energy, error norm, change in energy, scr.thr., difden:
@ DIIS iter.   1    -360.199092851        4.04620D+00   -3.60D+02  -20    F

 (DIIS_RED) Control Parameters C2DIIS =         F NEVC =    1


 (DIIS_RED) B matrix:

               Column   1
       1      16.37173757
    ==== End of matrix output ====

 DIIS C vector; C2DIIS = F, LAMBDA = -1.64D+01
    1.000000
* Read MO coefficients from SIRIUS.RST with label "NEWORB  " and header info: 17Dec18  DIIS   1
      Virial theorem: -V/T =      2.003681
@      MULPOP N       0.16; H       0.16; H       0.16; H       0.17; H       0.16; O      -0.60; O      -0.60; O      -0.62; O      -0.62; H       0.33; 
@             H       0.32; H       0.31; H       0.33; H       0.33; H       0.34; H       0.33; H       0.34; 
   1  Level shift: doubly occupied orbital energies shifted by -2.00D-01

 DIIS Fock eigenvalues in symmetry 1
      -20.82648      -20.81237      -20.81011      -20.78771      -16.53928
       -1.77392       -1.64374       -1.64147       -1.62961       -1.59031
       -1.26972       -1.23285       -1.21646       -1.04134       -1.01337
       -1.00971       -0.98370       -0.88804       -0.88379       -0.87387
       -0.85378       -0.84863       -0.83876       -0.83790       -0.82214
       -0.02701        0.05032        0.06665        0.07337        0.11405
        0.12684        0.14408        0.16159        0.17920        0.18423
        0.20714        0.23695        0.24451        0.26954        0.29095
        0.44782        0.45155        0.45996        0.46737        0.47736
        0.49151        0.49917        0.51279        0.53873        0.66943
        0.67952        0.70931        0.84168        0.86030        0.86557
        0.88029        0.89427        0.94043        0.95814        0.97521
        1.00725        1.01171        1.02882        1.03120        1.04803
        1.06128        1.08963        1.22119        1.25326        1.26469
        1.32988        1.33804        1.35278        1.37211        1.38390
        1.40118        1.46120        1.49074        1.51488        1.53794
        1.54597        1.55944        1.57962        1.58973        1.61197
        1.68446        1.69775        1.70817        1.77406        1.81759
        1.83612        1.88927        1.93220        1.99150        2.10304
        2.11467        2.15240        2.16185        2.16814        2.17343
        2.17831        2.18649        2.25003        2.28428        2.32640
        2.42431        2.47770        2.50048        2.52626        2.56886
        2.58701        2.61083        2.63918        2.64178        2.67345
        2.68814        2.70048        2.73396        2.90712        2.98197
        3.03313        3.16197        3.27491        3.28664        3.33226
        3.35256        3.39739        3.41374        3.42961        3.44971
        3.45114        3.46559        3.56200        3.59099        3.89815
        3.92703        3.94192        3.96346        4.01351        4.02284
        4.12076        4.15843        4.53473        4.68210        4.86797
        5.23650        5.28028        5.30711        5.32710        5.61485
        5.64181        5.70928        5.74883        5.95856        6.05006
        6.05310        6.06871       36.30343       51.45340       51.45804
       51.47987       51.48822
 Time used in FCKEIG, thr_jaco:   4.76D-01  4.70D-02  1.73D-04
 CPU and wall times used in FCKEIG, THR_FCKEIG:   4.76D-01  4.70D-02  4.05D-02
 -----------------------------------------------------------------------------

 *** DIIS iteration number    2
 RDSUPM called. NFMAT, ISYMDM(1:NFMAT)                     1
                     1

 ITDIIS, energy, error norm, change in energy, scr.thr., difden:
@ DIIS iter.   2    -361.122382576        1.19054D+00   -9.23D-01  -20    F

 (DIIS_RED) Control Parameters C2DIIS =         F NEVC =    2


 (DIIS_RED) B matrix:

               Column   1     Column   2
       1      16.37173757
       2       0.64054688     1.41739415
    ==== End of matrix output ====

 DIIS C vector; C2DIIS = F, LAMBDA = -1.38D+00
    0.047059    0.952941
* Read MO coefficients from SIRIUS.RST with label "NEWORB  " and header info: 17Dec18  DIIS   2
      Virial theorem: -V/T =      2.002090
@      MULPOP N      -0.52; H       0.35; H       0.30; H       0.34; H       0.33; O      -0.63; O      -0.61; O      -0.57; O      -0.61; H       0.32; 
@             H       0.35; H       0.34; H       0.30; H       0.32; H       0.31; H       0.35; H       0.32; 
   2  Level shift: doubly occupied orbital energies shifted by -1.00D-01

 DIIS Fock eigenvalues in symmetry 1
      -20.76960      -20.76306      -20.74852      -20.73734      -15.65532
       -1.53375       -1.52856       -1.51405       -1.49650       -1.41080
       -0.92059       -0.91852       -0.88491       -0.88192       -0.87307
       -0.87125       -0.85653       -0.77802       -0.77552       -0.75870
       -0.74914       -0.72179       -0.70665       -0.70386       -0.70086
        0.05423        0.10158        0.11409        0.13065        0.17339
        0.18898        0.19165        0.21498        0.24098        0.24897
        0.25891        0.26801        0.33174        0.34638        0.39085
        0.48038        0.49058        0.49455        0.50314        0.51222
        0.53202        0.55163        0.58147        0.60762        0.80921
        0.81891        0.86039        0.88877        0.89670        0.91523
        0.94950        0.98508        0.98844        0.99992        1.02956
        1.04665        1.05140        1.07215        1.08654        1.13697
        1.14955        1.16253        1.26243        1.29832        1.30082
        1.39349        1.39552        1.41258        1.41870        1.44447
        1.46599        1.51509        1.56980        1.57837        1.61812
        1.63425        1.64908        1.66054        1.66754        1.69231
        1.74825        1.76386        1.76739        1.84093        1.88394
        1.94916        2.00804        2.04133        2.14332        2.15030
        2.16213        2.19685        2.20818        2.21729        2.23668
        2.31033        2.31899        2.32920        2.35542        2.45541
        2.55793        2.60304        2.60567        2.62062        2.65433
        2.67118        2.69784        2.71444        2.72418        2.75687
        2.76481        2.88515        2.94931        3.07703        3.26972
        3.29895        3.30592        3.34736        3.36308        3.38308
        3.41025        3.43960        3.46037        3.46481        3.46914
        3.48718        3.49544        3.59876        3.62192        3.92724
        3.95329        3.95914        3.99303        4.02510        4.05023
        4.15429        4.18584        4.95957        5.08761        5.24237
        5.26176        5.29495        5.31806        5.33697        5.62042
        5.63567        5.72730        5.76061        5.95595        6.07015
        6.07910        6.09887       37.06898       51.38494       51.41300
       51.45393       51.45522
 Time used in FCKEIG, thr_jaco:   3.42D-01  3.40D-02  5.09D-05
 CPU and wall times used in FCKEIG, THR_FCKEIG:   3.42D-01  3.40D-02  1.19D-02
 -----------------------------------------------------------------------------

 *** DIIS iteration number    3
 RDSUPM called. NFMAT, ISYMDM(1:NFMAT)                     1
                     1

 ITDIIS, energy, error norm, change in energy, scr.thr., difden:
@ DIIS iter.   3    -361.203325025        3.81378D-01   -8.09D-02  -20    F

 (DIIS_RED) Control Parameters C2DIIS =         F NEVC =    3


 (DIIS_RED) B matrix:

               Column   1     Column   2     Column   3
       1      16.37173757
       2       0.64054688     1.41739415
       3       0.86000965    -0.00680106     0.14544938
    ==== End of matrix output ====

 DIIS C vector; C2DIIS = F, LAMBDA = -9.69D-02
   -0.047861    0.094538    0.953323
* Read MO coefficients from SIRIUS.RST with label "NEWORB  " and header info: 17Dec18  DIIS   3
      Virial theorem: -V/T =      2.003447
@      MULPOP N      -0.30; H       0.31; H       0.24; H       0.30; H       0.28; O      -0.70; O      -0.67; O      -0.63; O      -0.67; H       0.35; 
@             H       0.39; H       0.37; H       0.32; H       0.34; H       0.33; H       0.38; H       0.34; 
   3  Level shift: doubly occupied orbital energies shifted by -5.00D-02

 DIIS Fock eigenvalues in symmetry 1
      -20.68651      -20.66780      -20.66509      -20.66329      -15.81894
       -1.46763       -1.46149       -1.45329       -1.42851       -1.41209
       -0.90929       -0.86066       -0.85267       -0.83948       -0.82042
       -0.81224       -0.80353       -0.70785       -0.70620       -0.69493
       -0.67732       -0.64771       -0.63538       -0.62869       -0.62706
        0.05919        0.10768        0.12000        0.13578        0.17764
        0.19063        0.19559        0.21970        0.24234        0.25043
        0.26178        0.26660        0.33093        0.34713        0.39115
        0.49216        0.50128        0.50558        0.51422        0.52207
        0.54083        0.56001        0.58758        0.61073        0.80099
        0.81115        0.85515        0.89254        0.90767        0.92056
        0.95421        0.99373        1.00020        1.01378        1.04073
        1.05791        1.06325        1.08400        1.09927        1.13334
        1.14322        1.16553        1.27321        1.31020        1.31120
        1.40618        1.40851        1.42263        1.42964        1.45652
        1.48086        1.52558        1.58075        1.59049        1.62762
        1.64246        1.65634        1.66916        1.67389        1.70077
        1.75989        1.77424        1.77483        1.84994        1.89737
        1.94813        2.00803        2.04477        2.13927        2.16627
        2.17430        2.21240        2.22396        2.23061        2.25376
        2.31173        2.32269        2.32982        2.37412        2.46088
        2.56610        2.60489        2.61110        2.62652        2.66562
        2.68213        2.70768        2.72372        2.73309        2.76899
        2.77275        2.85888        2.91556        3.06859        3.23522
        3.28893        3.32458        3.33596        3.37840        3.40659
        3.42549        3.43759        3.46499        3.48087        3.49299
        3.50592        3.51896        3.61739        3.64752        3.95119
        3.97787        3.97993        4.01634        4.05392        4.07556
        4.17405        4.21222        4.87589        5.01266        5.19531
        5.27541        5.30152        5.34192        5.36434        5.64692
        5.66450        5.74544        5.78804        5.98972        6.09849
        6.10831        6.12025       36.86187       51.43022       51.44635
       51.47738       51.48999
 Time used in FCKEIG, thr_jaco:   2.95D-01  3.00D-02  1.63D-05
 CPU and wall times used in FCKEIG, THR_FCKEIG:   2.96D-01  3.00D-02  3.81D-03
 -----------------------------------------------------------------------------

 *** DIIS iteration number    4
 RDSUPM called. NFMAT, ISYMDM(1:NFMAT)                     1
                     1

 ITDIIS, energy, error norm, change in energy, scr.thr., difden:
@ DIIS iter.   4    -361.214155706        9.16629D-02   -1.08D-02  -20    F

 (DIIS_RED) Control Parameters C2DIIS =         F NEVC =    4


 (DIIS_RED) B matrix:

               Column   1     Column   2     Column   3     Column   4
       1      16.37173757
       2       0.64054688     1.41739415
       3       0.86000965    -0.00680106     0.14544938
       4       0.06713908     0.07851819     0.00838210     0.00840209
    ==== End of matrix output ====

 DIIS C vector; C2DIIS = F, LAMBDA = -4.36D-03
   -0.000127   -0.057562   -0.034934    1.092623
* Read MO coefficients from SIRIUS.RST with label "NEWORB  " and header info: 17Dec18  DIIS   4
      Virial theorem: -V/T =      2.003170
@      MULPOP N      -0.37; H       0.32; H       0.25; H       0.32; H       0.30; O      -0.71; O      -0.69; O      -0.64; O      -0.68; H       0.36; 
@             H       0.40; H       0.39; H       0.33; H       0.35; H       0.34; H       0.39; H       0.34; 
   4  Level shift: doubly occupied orbital energies shifted by -1.25D-02

 DIIS Fock eigenvalues in symmetry 1
      -20.66025      -20.64549      -20.63813      -20.63562      -15.74980
       -1.43452       -1.42870       -1.41965       -1.39516       -1.36392
       -0.86058       -0.81907       -0.81208       -0.79256       -0.78567
       -0.77839       -0.77034       -0.67189       -0.67032       -0.65847
       -0.64208       -0.61029       -0.59728       -0.59151       -0.58980
        0.06023        0.10719        0.11935        0.13519        0.17771
        0.19154        0.19577        0.21964        0.24545        0.25301
        0.26196        0.27037        0.33628        0.35136        0.39652
        0.49138        0.50105        0.50503        0.51263        0.52102
        0.54010        0.55834        0.58863        0.61344        0.80657
        0.81696        0.86166        0.89410        0.90854        0.92229
        0.95672        0.99589        0.99910        1.01258        1.04044
        1.05697        1.06301        1.08310        1.09876        1.13740
        1.14829        1.16683        1.27401        1.31004        1.31147
        1.40549        1.40718        1.42257        1.42832        1.45410
        1.47865        1.52398        1.58117        1.58945        1.62795
        1.64320        1.65854        1.67110        1.67671        1.70179
        1.75900        1.77418        1.77674        1.84846        1.89554
        1.95351        2.01334        2.04913        2.14555        2.16354
        2.17215        2.20923        2.22092        2.22741        2.25067
        2.31770        2.32285        2.33401        2.37050        2.46490
        2.56665        2.61014        2.61502        2.62841        2.66474
        2.68072        2.70882        2.72441        2.73302        2.76788
        2.77212        2.86830        2.92614        3.07619        3.24678
        3.29855        3.32187        3.33655        3.37740        3.40366
        3.43381        3.43713        3.46210        3.47872        3.48938
        3.50321        3.51608        3.61524        3.64442        3.94780
        3.97512        3.97594        4.01306        4.05009        4.07243
        4.17190        4.20886        4.89295        5.02858        5.21056
        5.27263        5.29518        5.33707        5.35866        5.64188
        5.65839        5.74214        5.78258        5.98200        6.09240
        6.10179        6.11547       36.89315       51.41543       51.43543
       51.46958       51.47799
 Time used in FCKEIG, thr_jaco:   2.67D-01  2.70D-02  3.92D-06
 CPU and wall times used in FCKEIG, THR_FCKEIG:   2.68D-01  2.70D-02  9.17D-04
 -----------------------------------------------------------------------------

 *** DIIS iteration number    5
 RDSUPM called. NFMAT, ISYMDM(1:NFMAT)                     1
                     1

 ITDIIS, energy, error norm, change in energy, scr.thr., difden:
@ DIIS iter.   5    -361.215178205        2.80978D-02   -1.02D-03  -20    F

 (DIIS_RED) Control Parameters C2DIIS =         F NEVC =    5


 (DIIS_RED) B matrix:

               Column   1     Column   2     Column   3     Column   4     Column   5
       1      16.37173757
       2       0.64054688     1.41739415
       3       0.86000965    -0.00680106     0.14544938
       4       0.06713908     0.07851819     0.00838210     0.00840209
       5       0.02165146     0.00685942     0.00555761     0.00091689     0.00078949
    ==== End of matrix output ====

 DIIS C vector; C2DIIS = F, LAMBDA = -5.47D-04
    0.001184   -0.009980   -0.045731    0.089178    0.965350
* Read MO coefficients from SIRIUS.RST with label "NEWORB  " and header info: 17Dec18  DIIS   5
      Virial theorem: -V/T =      2.002873
@      MULPOP N      -0.36; H       0.32; H       0.25; H       0.32; H       0.29; O      -0.73; O      -0.70; O      -0.65; O      -0.69; H       0.37; 
@             H       0.41; H       0.39; H       0.34; H       0.36; H       0.35; H       0.39; H       0.35; 

 DIIS Fock eigenvalues in symmetry 1
      -20.64140      -20.62413      -20.61895      -20.61858      -15.73476
       -1.41980       -1.41366       -1.40576       -1.37964       -1.35013
       -0.84713       -0.80527       -0.79830       -0.77867       -0.77233
       -0.76410       -0.75590       -0.65735       -0.65576       -0.64488
       -0.62692       -0.59481       -0.58253       -0.57548       -0.57388
        0.06075        0.10753        0.11966        0.13545        0.17812
        0.19188        0.19607        0.22000        0.24624        0.25361
        0.26231        0.27103        0.33712        0.35219        0.39745
        0.49194        0.50174        0.50568        0.51306        0.52150
        0.54050        0.55853        0.58933        0.61431        0.80774
        0.81818        0.86286        0.89558        0.90999        0.92396
        0.95833        0.99749        1.00021        1.01397        1.04166
        1.05808        1.06443        1.08443        1.10004        1.13857
        1.14955        1.16801        1.27546        1.31123        1.31315
        1.40634        1.40769        1.42328        1.42887        1.45423
        1.47923        1.52426        1.58192        1.59009        1.62855
        1.64380        1.65916        1.67181        1.67747        1.70229
        1.75925        1.77449        1.77748        1.84841        1.89579
        1.95436        2.01439        2.05025        2.14657        2.16442
        2.17302        2.20971        2.22177        2.22764        2.25131
        2.31848        2.32330        2.33489        2.37149        2.46582
        2.56694        2.61097        2.61578        2.62911        2.66509
        2.68081        2.70946        2.72475        2.73322        2.76805
        2.77215        2.86935        2.92721        3.07741        3.24823
        3.30021        3.32486        3.33889        3.37894        3.40627
        3.43699        3.43848        3.46435        3.48012        3.49250
        3.50571        3.51832        3.61662        3.64695        3.95037
        3.97652        3.97899        4.01523        4.05348        4.07481
        4.17343        4.21162        4.89466        5.03034        5.21227
        5.27537        5.30013        5.34088        5.36288        5.64551
        5.66303        5.74449        5.78641        5.98664        6.09563
        6.10537        6.11747       36.89565       51.42415       51.44169
       51.47372       51.48493
 Time used in FCKEIG, thr_jaco:   2.65D-01  2.70D-02  1.20D-06
 CPU and wall times used in FCKEIG, THR_FCKEIG:   2.65D-01  2.70D-02  2.81D-04
 -----------------------------------------------------------------------------

 *** DIIS iteration number    6
 RDSUPM called. NFMAT, ISYMDM(1:NFMAT)                     1
                     1

 ITDIIS, energy, error norm, change in energy, scr.thr., difden:
@ DIIS iter.   6    -361.215256874        1.04851D-02   -7.87D-05  -20    F

 (DIIS_RED) Control Parameters C2DIIS =         F NEVC =    6


 (DIIS_RED) B matrix:

               Column   1     Column   2     Column   3     Column   4     Column   5     Column   6
       1      16.37173757
       2       0.64054688     1.41739415
       3       0.86000965    -0.00680106     0.14544938
       4       0.06713908     0.07851819     0.00838210     0.00840209
       5       0.02165146     0.00685942     0.00555761     0.00091689     0.00078949
       6      -0.00530536    -0.00009310     0.00065666     0.00050933     0.00000716     0.00010994
    ==== End of matrix output ====

 DIIS C vector; C2DIIS = F, LAMBDA = -3.38D-05
    0.000770    0.005949   -0.007183   -0.126581    0.158768    0.968278
* Read MO coefficients from SIRIUS.RST with label "NEWORB  " and header info: 17Dec18  DIIS   6
      Virial theorem: -V/T =      2.003109
@      MULPOP N      -0.35; H       0.32; H       0.24; H       0.32; H       0.29; O      -0.73; O      -0.70; O      -0.65; O      -0.69; H       0.37; 
@             H       0.41; H       0.39; H       0.34; H       0.36; H       0.35; H       0.39; H       0.35; 

 DIIS Fock eigenvalues in symmetry 1
      -20.64342      -20.62717      -20.62075      -20.62027      -15.73636
       -1.42037       -1.41424       -1.40613       -1.38056       -1.35049
       -0.84759       -0.80597       -0.79860       -0.77897       -0.77282
       -0.76474       -0.75689       -0.65806       -0.65651       -0.64543
       -0.62795       -0.59512       -0.58262       -0.57599       -0.57434
        0.06068        0.10736        0.11954        0.13532        0.17800
        0.19175        0.19597        0.21982        0.24617        0.25351
        0.26217        0.27093        0.33703        0.35214        0.39740
        0.49170        0.50146        0.50546        0.51280        0.52121
        0.54026        0.55826        0.58917        0.61424        0.80743
        0.81789        0.86259        0.89529        0.90990        0.92357
        0.95801        0.99727        0.99976        1.01340        1.04125
        1.05772        1.06397        1.08402        1.09975        1.13835
        1.14935        1.16776        1.27512        1.31096        1.31274
        1.40603        1.40736        1.42294        1.42844        1.45390
        1.47893        1.52395        1.58160        1.58974        1.62827
        1.64350        1.65896        1.67161        1.67735        1.70209
        1.75895        1.77421        1.77727        1.84813        1.89554
        1.95426        2.01428        2.05016        2.14639        2.16372
        2.17259        2.20917        2.22113        2.22715        2.25085
        2.31823        2.32299        2.33477        2.37104        2.46572
        2.56670        2.61085        2.61569        2.62890        2.66478
        2.68045        2.70922        2.72443        2.73289        2.76780
        2.77187        2.86904        2.92682        3.07726        3.24775
        3.29964        3.32393        3.33818        3.37845        3.40552
        3.43587        3.43800        3.46361        3.47959        3.49145
        3.50496        3.51764        3.61614        3.64619        3.94960
        3.97596        3.97785        4.01446        4.05233        4.07403
        4.17289        4.21079        4.89396        5.02962        5.21149
        5.27458        5.29856        5.33978        5.36171        5.64437
        5.66147        5.74369        5.78524        5.98493        6.09449
        6.10419        6.11668       36.89407       51.42116       51.43970
       51.47240       51.48279
 Time used in FCKEIG, thr_jaco:   2.55D-01  2.60D-02  4.48D-07
 CPU and wall times used in FCKEIG, THR_FCKEIG:   2.55D-01  2.60D-02  1.05D-04
 -----------------------------------------------------------------------------

 *** DIIS iteration number    7
 RDSUPM called. NFMAT, ISYMDM(1:NFMAT)                     1
                     1

 ITDIIS, energy, error norm, change in energy, scr.thr., difden:
@ DIIS iter.   7    -361.215267564        2.24470D-03   -1.07D-05  -20    F

 (DIIS_RED) Control Parameters C2DIIS =         F NEVC =    7


 (DIIS_RED) B matrix:

               Column   1     Column   2     Column   3     Column   4     Column   5     Column   6
       1      16.37173757
       2       0.64054688     1.41739415
       3       0.86000965    -0.00680106     0.14544938
       4       0.06713908     0.07851819     0.00838210     0.00840209
       5       0.02165146     0.00685942     0.00555761     0.00091689     0.00078949
       6      -0.00530536    -0.00009310     0.00065666     0.00050933     0.00000716     0.00010994
       7       0.00014783     0.00027621    -0.00002865     0.00000996     0.00004334    -0.00000116

               Column   7
       7       0.00000504
    ==== End of matrix output ====

 DIIS C vector; C2DIIS = F, LAMBDA = -1.20D-06
   -0.000219   -0.000752    0.004976    0.021091   -0.109981   -0.108021    1.192905
* Read MO coefficients from SIRIUS.RST with label "NEWORB  " and header info: 17Dec18  DIIS   7
      Virial theorem: -V/T =      2.003046
@      MULPOP N      -0.35; H       0.32; H       0.24; H       0.31; H       0.29; O      -0.73; O      -0.70; O      -0.65; O      -0.69; H       0.37; 
@             H       0.41; H       0.39; H       0.34; H       0.36; H       0.35; H       0.39; H       0.35; 

 DIIS Fock eigenvalues in symmetry 1
      -20.64319      -20.62666      -20.62054      -20.62018      -15.73595
       -1.42025       -1.41413       -1.40605       -1.38033       -1.35030
       -0.84741       -0.80592       -0.79844       -0.77885       -0.77276
       -0.76467       -0.75676       -0.65804       -0.65649       -0.64544
       -0.62783       -0.59497       -0.58248       -0.57576       -0.57413
        0.06074        0.10739        0.11957        0.13535        0.17803
        0.19179        0.19600        0.21985        0.24624        0.25356
        0.26221        0.27101        0.33714        0.35223        0.39751
        0.49174        0.50151        0.50550        0.51283        0.52125
        0.54030        0.55829        0.58922        0.61433        0.80756
        0.81802        0.86272        0.89538        0.90999        0.92369
        0.95812        0.99737        0.99983        1.01350        1.04133
        1.05779        1.06406        1.08410        1.09981        1.13847
        1.14948        1.16786        1.27524        1.31104        1.31287
        1.40607        1.40738        1.42299        1.42847        1.45391
        1.47894        1.52398        1.58165        1.58978        1.62832
        1.64356        1.65902        1.67168        1.67743        1.70214
        1.75897        1.77424        1.77734        1.84814        1.89555
        1.95438        2.01440        2.05027        2.14650        2.16377
        2.17262        2.20920        2.22118        2.22717        2.25087
        2.31832        2.32304        2.33489        2.37108        2.46580
        2.56673        2.61094        2.61578        2.62895        2.66480
        2.68046        2.70927        2.72445        2.73291        2.76780
        2.77189        2.86921        2.92700        3.07740        3.24794
        3.29983        3.32412        3.33835        3.37853        3.40562
        3.43609        3.43820        3.46372        3.47967        3.49166
        3.50507        3.51774        3.61621        3.64630        3.94969
        3.97602        3.97806        4.01457        4.05257        4.07415
        4.17297        4.21091        4.89421        5.02987        5.21174
        5.27471        5.29888        5.33995        5.36186        5.64453
        5.66175        5.74379        5.78538        5.98522        6.09462
        6.10432        6.11675       36.89446       51.42167       51.43992
       51.47249       51.48300
 Time used in FCKEIG, thr_jaco:   2.45D-01  2.40D-02  9.59D-08
 CPU and wall times used in FCKEIG, THR_FCKEIG:   2.45D-01  2.40D-02  2.24D-05
 -----------------------------------------------------------------------------

 *** DIIS iteration number    8
 RDSUPM called. NFMAT, ISYMDM(1:NFMAT)                     1
                     1

 ITDIIS, energy, error norm, change in energy, scr.thr., difden:
@ DIIS iter.   8    -361.215268100        3.80657D-04   -5.35D-07  -20    F

 (DIIS_RED) Control Parameters C2DIIS =         F NEVC =    8


 (DIIS_RED) B matrix:

               Column   1     Column   2     Column   3     Column   4     Column   5     Column   6
       1      16.37173757
       2       0.64054688     1.41739415
       3       0.86000965    -0.00680106     0.14544938
       4       0.06713908     0.07851819     0.00838210     0.00840209
       5       0.02165146     0.00685942     0.00555761     0.00091689     0.00078949
       6      -0.00530536    -0.00009310     0.00065666     0.00050933     0.00000716     0.00010994
       7       0.00014783     0.00027621    -0.00002865     0.00000996     0.00004334    -0.00000116
       8       0.00011398    -0.00003750     0.00000916     0.00000142     0.00000070     0.00000148

               Column   7     Column   8
       7       0.00000504
       8       0.00000034     0.00000014
    ==== End of matrix output ====

 DIIS C vector; C2DIIS = F, LAMBDA = -9.47D-08
   -0.000007   -0.000032   -0.000404    0.000790    0.009865   -0.018502   -0.149898    1.158186
* Read MO coefficients from SIRIUS.RST with label "NEWORB  " and header info: 17Dec18  DIIS   8
      Virial theorem: -V/T =      2.003062
@      MULPOP N      -0.35; H       0.32; H       0.24; H       0.31; H       0.29; O      -0.73; O      -0.70; O      -0.65; O      -0.69; H       0.37; 
@             H       0.41; H       0.39; H       0.34; H       0.36; H       0.35; H       0.39; H       0.35; 

 DIIS Fock eigenvalues in symmetry 1
      -20.64316      -20.62677      -20.62048      -20.62011      -15.73597
       -1.42024       -1.41411       -1.40602       -1.38036       -1.35030
       -0.84741       -0.80591       -0.79844       -0.77884       -0.77274
       -0.76465       -0.75679       -0.65804       -0.65650       -0.64544
       -0.62788       -0.59495       -0.58245       -0.57576       -0.57412
        0.06074        0.10739        0.11957        0.13535        0.17804
        0.19179        0.19600        0.21985        0.24624        0.25357
        0.26221        0.27101        0.33714        0.35223        0.39751
        0.49174        0.50151        0.50550        0.51283        0.52125
        0.54031        0.55829        0.58923        0.61434        0.80755
        0.81802        0.86272        0.89538        0.91001        0.92368
        0.95812        0.99738        0.99984        1.01349        1.04134
        1.05780        1.06405        1.08410        1.09982        1.13847
        1.14948        1.16786        1.27525        1.31105        1.31287
        1.40608        1.40738        1.42298        1.42846        1.45391
        1.47894        1.52398        1.58165        1.58977        1.62832
        1.64355        1.65902        1.67168        1.67743        1.70214
        1.75897        1.77424        1.77734        1.84815        1.89555
        1.95438        2.01440        2.05027        2.14650        2.16375
        2.17263        2.20920        2.22116        2.22717        2.25088
        2.31832        2.32305        2.33489        2.37109        2.46580
        2.56673        2.61094        2.61578        2.62895        2.66480
        2.68046        2.70927        2.72445        2.73291        2.76780
        2.77189        2.86920        2.92700        3.07740        3.24794
        3.29982        3.32409        3.33834        3.37855        3.40564
        3.43605        3.43820        3.46373        3.47969        3.49162
        3.50508        3.51775        3.61624        3.64632        3.94971
        3.97605        3.97802        4.01457        4.05252        4.07416
        4.17300        4.21093        4.89420        5.02986        5.21173
        5.27473        5.29882        5.33995        5.36189        5.64453
        5.66170        5.74382        5.78541        5.98516        6.09464
        6.10435        6.11679       36.89445       51.42156       51.43995
       51.47256       51.48306
 Time used in FCKEIG, thr_jaco:   2.53D-01  2.50D-02  1.63D-08
 CPU and wall times used in FCKEIG, THR_FCKEIG:   2.53D-01  2.50D-02  3.81D-06
 -----------------------------------------------------------------------------

 *** DIIS iteration number    9
 RDSUPM called. NFMAT, ISYMDM(1:NFMAT)                     1
                     1

 ITDIIS, energy, error norm, change in energy, scr.thr., difden:
@ DIIS iter.   9    -361.215268118        1.53744D-04   -1.84D-08  -20    F

 (DIIS_RED) Control Parameters C2DIIS =         F NEVC =    8


 (DIIS_RED) B matrix:

[...]

 Principal values of diagonalized transition strength matrix:

             a.u.               
 1      -0.00000001
 2       0.00000000
 3       0.00010799

 Principal axis of diagonalized transition strength matrix:


               Column   1     Column   2     Column   3
       1       0.95549023    -0.21962269    -0.19698807
       2       0.19785068     0.97231161    -0.12435930
       3       0.21884591     0.07984987     0.97248674
    ==== End of matrix output ====


 CCSD   oscillator strength matrix for state nr. 13 of symmetry 1
 CCSD  excitation energy:15.22382368


               Column   1     Column   2     Column   3
       1       0.00004248     0.00002684    -0.00020997
       2       0.00002684     0.00001695    -0.00013255
       3      -0.00020997    -0.00013255     0.00103650
    ==== End of matrix output ====

 Principal values of diagonalized oscillator strength matrix:

             a.u.               
 1      -0.00000005
 2      -0.00000000
 3       0.00109598

 Principal axis of diagonalized oscillator strength matrix:


               Column   1     Column   2     Column   3
       1       0.95549023    -0.21962269    -0.19698807
       2       0.19785068     0.97231161    -0.12435930
       3       0.21884591     0.07984987     0.97248674
    ==== End of matrix output ====


 CCSD  Transition strength matrix for state nr. 14 of symmetry 1
 CCSD  excitation energy:15.25129799

 Gauge: length

               Column   1     Column   2     Column   3
       1     8.290014D-05  -7.109006D-05   1.522324D-05
       2    -7.109006D-05   6.096084D-05  -1.305496D-05
       3     1.522324D-05  -1.305496D-05   2.795375D-06
    ==== End of matrix output ====

 Principal values of diagonalized transition strength matrix:

             a.u.               
 1      -0.00000000
 2      -0.00000000
 3       0.00014666

 Principal axis of diagonalized transition strength matrix:


               Column   1     Column   2     Column   3
       1       0.54314099    -0.37380743     0.75184165
       2       0.72432242    -0.24430489    -0.64472642
       3       0.42468212     0.89475311     0.13806510
    ==== End of matrix output ====


 CCSD   oscillator strength matrix for state nr. 14 of symmetry 1
 CCSD  excitation energy:15.25129799


               Column   1     Column   2     Column   3
       1     8.428899D-04  -7.228105D-04   1.547828D-04
       2    -7.228105D-04   6.198213D-04  -1.327367D-04
       3     1.547828D-04  -1.327367D-04   2.842206D-05
    ==== End of matrix output ====

 Principal values of diagonalized oscillator strength matrix:

             a.u.               
 1      -0.00000001
 2       0.00000000
 3       0.00149114

 Principal axis of diagonalized oscillator strength matrix:


               Column   1     Column   2     Column   3
       1       0.54314099    -0.37380743     0.75184165
       2       0.72432242    -0.24430489    -0.64472642
       3       0.42468212     0.89475311     0.13806510
    ==== End of matrix output ====


 CCSD  Transition strength matrix for state nr. 15 of symmetry 1
 CCSD  excitation energy:15.26257486

 Gauge: length

               Column   1     Column   2     Column   3
       1     5.154638D-06  -1.140618D-05   3.885688D-06
       2    -1.140618D-05   2.523807D-05  -8.597616D-06
       3     3.885688D-06  -8.597616D-06   2.928861D-06
    ==== End of matrix output ====

 Principal values of diagonalized transition strength matrix:

             a.u.               
 1      -0.00000000
 2      -0.00000000
 3       0.00003332

 Principal axis of diagonalized transition strength matrix:


               Column   1     Column   2     Column   3
       1       0.90657963     0.15301631    -0.39331843
       2       0.31344788     0.37992971     0.87028952
       3      -0.28260184     0.91227157    -0.29647390
    ==== End of matrix output ====


 CCSD   oscillator strength matrix for state nr. 15 of symmetry 1
 CCSD  excitation energy:15.26257486


               Column   1     Column   2     Column   3
       1     5.244870D-05  -1.160584D-04   3.953707D-05
       2    -1.160584D-04   2.567986D-04  -8.748117D-05
       3     3.953707D-05  -8.748117D-05   2.980130D-05
    ==== End of matrix output ====

 Principal values of diagonalized oscillator strength matrix:

             a.u.               
 1      -0.00000000
 2      -0.00000000
 3       0.00033905

 Principal axis of diagonalized oscillator strength matrix:


               Column   1     Column   2     Column   3
       1       0.90657963     0.15301631    -0.39331843
       2       0.31344788     0.37992971     0.87028952
       3      -0.28260184     0.91227157    -0.29647390
    ==== End of matrix output ====

  Total time for    135 linear response residues:     161.09 seconds.
  

 *******************************************************************************
 *******************************************************************************
 *                                                                             *
 *                                                                             *
 *                   SUMMARY OF COUPLED CLUSTER CALCULATION                    *
 *                                                                             *
 *                                                                             *
 *******************************************************************************
 *******************************************************************************

                                                                                
                                                                                
            Total SCF   energy:                  -361.2152681197                
            Total MP2   energy:                  -362.3151710796                
            Total CCSD  energy:                  -362.3567782090                
                                                                                
                                                                                
            Total SCF   energy:                  -361.2152681197                
            Total RSTAR energy:                  -362.3567782090                
            Total CCSD  energy:                  -362.3568984699                
                                                                                
                                                                                
            Total SCF   energy:                  -361.2152681197                
            Total RSTAR energy:                  -362.3568984699                
            Total CCSD  energy:                  -362.3568983094                
                                                                                
                                                                                
            Total SCF   energy:                  -361.2152681197                
            Total RSTAR energy:                  -362.3568983094                
            Total CCSD  energy:                  -362.3568984015                
                                                                                
                                                                                
            Total SCF   energy:                  -361.2152681197                
            Total RSTAR energy:                  -362.3568984015                
            Total CCSD  energy:                  -362.3568984015                
                                                                                
                                                                                
            Total SCF   energy:                  -361.2152681197                
            Total RSTAR energy:                  -362.3568984015                
            Total CCSD  energy:                  -362.3568984016                
            CCSD Total  energy:                  -362.8009089657                
            CCSD E(QM/MM)     :                    -0.4392878803                
                                                                                
                                                                                
                                                                                
 +=============================================================================+
 |  sym. | Exci.  |        CCSD       Excitation energies            | ||T1||  |
 |(spin, |        +------------------------------------------------------------+
 | spat) |        |     Hartree    |       eV.      |     cm-1       |    %    |
 +=============================================================================+
 | ^1A   |    1   |    14.9312978  |     406.30128  |   3277041.061  |  88.65  |
 | ^1A   |    2   |    14.9858667  |     407.78618  |   3289017.548  |  88.73  |
 | ^1A   |    3   |    15.0032488  |     408.25917  |   3292832.476  |  89.14  |
 | ^1A   |    4   |    15.0360495  |     409.15172  |   3300031.401  |  89.15  |
 | ^1A   |    5   |    15.0932950  |     410.70945  |   3312595.333  |  88.02  |
 | ^1A   |    6   |    15.1099246  |     411.16196  |   3316245.104  |  88.19  |
 | ^1A   |    7   |    15.1259588  |     411.59828  |   3319764.208  |  88.00  |
 | ^1A   |    8   |    15.1366642  |     411.88958  |   3322113.757  |  88.11  |
 | ^1A   |    9   |    15.1560141  |     412.41612  |   3326360.585  |  88.03  |
 | ^1A   |   10   |    15.1911594  |     413.37247  |   3334074.074  |  88.24  |
 | ^1A   |   11   |    15.1972014  |     413.53689  |   3335400.141  |  88.06  |
 | ^1A   |   12   |    15.2109920  |     413.91215  |   3338426.825  |  88.17  |
 | ^1A   |   13   |    15.2238237  |     414.26132  |   3341243.060  |  87.94  |
 | ^1A   |   14   |    15.2512980  |     415.00893  |   3347272.974  |  87.99  |
 | ^1A   |   15   |    15.2625749  |     415.31579  |   3349747.960  |  87.86  |
 +=============================================================================+
                                                                                
                                                                                
     Total energies in Hartree:                                                 
             1 ^1A       -347.4303232380                                        
             2 ^1A       -347.3757543455                                        
             3 ^1A       -347.3583722559                                        
             4 ^1A       -347.3255715376                                        
             5 ^1A       -347.2683260532                                        
             6 ^1A       -347.2516964700                                        
             7 ^1A       -347.2356622532                                        
             8 ^1A       -347.2249569225                                        
             9 ^1A       -347.2056069479                                        
            10 ^1A       -347.1704617040                                        
            11 ^1A       -347.1644197004                                        
            12 ^1A       -347.1506291133                                        
            13 ^1A       -347.1377974032                                        
            14 ^1A       -347.1103230932                                        
            15 ^1A       -347.0990462266                                        
                                                                                
                                                                                
 +=============================================================================+
 |  sym. | Exci.  |        CCSD       Length   Gauge Oscillator Strength       |
 |(spin, |        +------------------------------------------------------------+
 | spat) |        | Dipole Strength(a.u.) | Oscillator strength  | Direction   |
 +=============================================================================+
 | ^1A   |    1   |        0.0004556      |      0.0045351       |  (Y,Z)      |
 | ^1A   |    2   |        0.0042836      |      0.0427952       |  (Y,Z)      |
 | ^1A   |    3   |        0.0041597      |      0.0416059       |  (Y,Z)      |
 | ^1A   |    4   |        0.0035713      |      0.0357986       |  (Y,Z)      |
 | ^1A   |    5   |        0.0002128      |      0.0021413       |  (Y,Z)      |
 | ^1A   |    6   |        0.0001579      |      0.0015906       |  (Y,Z)      |
 | ^1A   |    7   |        0.0000984      |      0.0009921       |  (Y,Z)      |
 | ^1A   |    8   |        0.0002575      |      0.0025982       |  (Y,Z)      |
 | ^1A   |    9   |        0.0004480      |      0.0045269       |  (Y,Z)      |
 | ^1A   |   10   |        0.0005776      |      0.0058493       |  (Y,Z)      |
 | ^1A   |   11   |        0.0001356      |      0.0013743       |  (Y,Z)      |
 | ^1A   |   12   |        0.0004118      |      0.0041763       |  (Y,Z)      |
 | ^1A   |   13   |        0.0001080      |      0.0010959       |  (Y,Z)      |
 | ^1A   |   14   |        0.0001467      |      0.0014911       |  (Y,Z)      |
 | ^1A   |   15   |        0.0000333      |      0.0003390       |  (Y,Z)      |
 +=============================================================================+

  1 a.u. =        27.21138 eV.  
  1 a.u. =    219474.62934 cm-1.
  

 *******************************************************************************
 *******************************************************************************
 *                                                                             *
 *                                                                             *
 *                      END OF COUPLED CLUSTER CALCULATION                     *
 *                                                                             *
 *                                                                             *
 *******************************************************************************
 *******************************************************************************


 CPU and wall time for CC :  522104.666   57775.076

 
     Date and time (Linux)  : Tue Dec 18 12:35:50 2018
     Host name              : n-62-23-5                               


                      .-------------------------------------.
                      | End of Coupled Cluster Section (CC) |
                      `-------------------------------------'

  Total CPU  time used in DALTON: 145 hours 16 minutes 39 seconds
  Total wall time used in DALTON:  16 hours  5 minutes 37 seconds

 
     Date and time (Linux)  : Tue Dec 18 12:35:50 2018
     Host name              : n-62-23-5                               
  

 +---------------------------------------------------------+ 
 | List of selected calculated molecular properties (a.u.) | 
 +---------------------------------------------------------+ 

  Properties are read from unit number                      4

 CCSD       properties :
 #  1 1 CCSD/MM  Ground state Energy =    -362.8009089657
 #  2 1 E_QM/MM  Ground state Energy =      -0.4392878803
 #  3 1 Sy: 1 Sp: 1 Exc:  1 E_tot:   -347.4303232380 w:     14.9312978474 E_grs:   -362.3616210854
 #  4 1 Exctot   Excited state Energy =    -347.4303232380
 #  5 1 Sy: 1 Sp: 1 Exc:  2 E_tot:   -347.3757543455 w:     14.9858667399 E_grs:   -362.3616210854
 #  6 1 Exctot   Excited state Energy =    -347.3757543455
 #  7 1 Sy: 1 Sp: 1 Exc:  3 E_tot:   -347.3583722559 w:     15.0032488294 E_grs:   -362.3616210854
 #  8 1 Exctot   Excited state Energy =    -347.3583722559
 #  9 1 Sy: 1 Sp: 1 Exc:  4 E_tot:   -347.3255715376 w:     15.0360495477 E_grs:   -362.3616210854
 # 10 1 Exctot   Excited state Energy =    -347.3255715376
 # 11 1 Sy: 1 Sp: 1 Exc:  5 E_tot:   -347.2683260532 w:     15.0932950322 E_grs:   -362.3616210854
 # 12 1 Exctot   Excited state Energy =    -347.2683260532
 # 13 1 Sy: 1 Sp: 1 Exc:  6 E_tot:   -347.2516964700 w:     15.1099246154 E_grs:   -362.3616210854
 # 14 1 Exctot   Excited state Energy =    -347.2516964700
 # 15 1 Sy: 1 Sp: 1 Exc:  7 E_tot:   -347.2356622532 w:     15.1259588322 E_grs:   -362.3616210854
 # 16 1 Exctot   Excited state Energy =    -347.2356622532
 # 17 1 Sy: 1 Sp: 1 Exc:  8 E_tot:   -347.2249569225 w:     15.1366641629 E_grs:   -362.3616210854
 # 18 1 Exctot   Excited state Energy =    -347.2249569225
 # 19 1 Sy: 1 Sp: 1 Exc:  9 E_tot:   -347.2056069479 w:     15.1560141375 E_grs:   -362.3616210854
 # 20 1 Exctot   Excited state Energy =    -347.2056069479
 # 21 1 Sy: 1 Sp: 1 Exc: 10 E_tot:   -347.1704617040 w:     15.1911593814 E_grs:   -362.3616210854
 # 22 1 Exctot   Excited state Energy =    -347.1704617040
 # 23 1 Sy: 1 Sp: 1 Exc: 11 E_tot:   -347.1644197004 w:     15.1972013849 E_grs:   -362.3616210854
 # 24 1 Exctot   Excited state Energy =    -347.1644197004
 # 25 1 Sy: 1 Sp: 1 Exc: 12 E_tot:   -347.1506291133 w:     15.2109919720 E_grs:   -362.3616210854
 # 26 1 Exctot   Excited state Energy =    -347.1506291133
 # 27 1 Sy: 1 Sp: 1 Exc: 13 E_tot:   -347.1377974032 w:     15.2238236822 E_grs:   -362.3616210854
 # 28 1 Exctot   Excited state Energy =    -347.1377974032
 # 29 1 Sy: 1 Sp: 1 Exc: 14 E_tot:   -347.1103230932 w:     15.2512979922 E_grs:   -362.3616210854
 # 30 1 Exctot   Excited state Energy =    -347.1103230932
 # 31 1 Sy: 1 Sp: 1 Exc: 15 E_tot:   -347.0990462266 w:     15.2625748588 E_grs:   -362.3616210854
 # 32 1 Exctot   Excited state Energy =    -347.0990462266
 # 33 1 |<O|XDIPLEN |i(14.931298)>| =     0.00854431
 # 35 1 |<O|XDIPLEN |i(14.985867)>| =     0.04848523
 # 37 1 |<O|XDIPLEN |i(15.003249)>| =     0.00536330
 # 39 1 |<O|XDIPLEN |i(15.036050)>| =     0.03776963
 # 41 1 |<O|XDIPLEN |i(15.093295)>| =     0.01250890
 # 43 1 |<O|XDIPLEN |i(15.109925)>| =     0.00555551
 # 45 1 |<O|XDIPLEN |i(15.125959)>| =     0.00595771
 # 47 1 |<O|XDIPLEN |i(15.136664)>| =     0.00066073
 # 49 1 |<O|XDIPLEN |i(15.156014)>| =     0.00548047
 # 51 1 |<O|XDIPLEN |i(15.191159)>| =     0.02354506
 # 53 1 |<O|XDIPLEN |i(15.197201)>| =     0.00526261
 # 55 1 |<O|XDIPLEN |i(15.210992)>| =     0.01629204
 # 57 1 |<O|XDIPLEN |i(15.223824)>| =     0.00204585
 # 59 1 |<O|XDIPLEN |i(15.251298)>| =     0.00910495
 # 61 1 |<O|XDIPLEN |i(15.262575)>| =     0.00227038
 # 63 1 |<O|YDIPLEN |i(14.931298)>| =     0.01416906
 # 65 1 |<O|YDIPLEN |i(14.985867)>| =     0.02748306
 # 67 1 |<O|YDIPLEN |i(15.003249)>| =     0.05125889
 # 69 1 |<O|YDIPLEN |i(15.036050)>| =     0.02641785
 # 71 1 |<O|YDIPLEN |i(15.093295)>| =     0.00313120
 # 73 1 |<O|YDIPLEN |i(15.109925)>| =     0.00477028
 # 75 1 |<O|YDIPLEN |i(15.125959)>| =     0.00397290
 # 77 1 |<O|YDIPLEN |i(15.136664)>| =     0.00790323
 # 79 1 |<O|YDIPLEN |i(15.156014)>| =     0.02019554
 # 81 1 |<O|YDIPLEN |i(15.191159)>| =     0.00206953
 # 83 1 |<O|YDIPLEN |i(15.197201)>| =     0.00599258
 # 85 1 |<O|YDIPLEN |i(15.210992)>| =     0.00710585
 # 87 1 |<O|YDIPLEN |i(15.223824)>| =     0.00129222
 # 89 1 |<O|YDIPLEN |i(15.251298)>| =     0.00780774
 # 91 1 |<O|YDIPLEN |i(15.262575)>| =     0.00502375
 # 93 1 |<O|ZDIPLEN |i(14.931298)>| =     0.01348430
 # 95 1 |<O|ZDIPLEN |i(14.985867)>| =     0.03431356
 # 97 1 |<O|ZDIPLEN |i(15.003249)>| =     0.03877430
 # 99 1 |<O|ZDIPLEN |i(15.036050)>| =     0.03803716
 #101 1 |<O|ZDIPLEN |i(15.093295)>| =     0.00682148
 #103 1 |<O|ZDIPLEN |i(15.109925)>| =     0.01021191
 #105 1 |<O|ZDIPLEN |i(15.125959)>| =     0.00686332
 #107 1 |<O|ZDIPLEN |i(15.136664)>| =     0.01394895
 #109 1 |<O|ZDIPLEN |i(15.156014)>| =     0.00318386
 #111 1 |<O|ZDIPLEN |i(15.191159)>| =     0.00434945
 #113 1 |<O|ZDIPLEN |i(15.197201)>| =     0.00848766
 #115 1 |<O|ZDIPLEN |i(15.210992)>| =     0.00979339
 #117 1 |<O|ZDIPLEN |i(15.223824)>| =     0.01010575
 #119 1 |<O|ZDIPLEN |i(15.251298)>| =     0.00167194
 #121 1 |<O|ZDIPLEN |i(15.262575)>| =     0.00171139

 THE_END   
