

     ************************************************************************
     *************** Dalton - An Electronic Structure Program ***************
     ************************************************************************

    This is output from DALTON release Dalton2017.alpha (2016)
         ( Web site: http://daltonprogram.org )

   ----------------------------------------------------------------------------

    NOTE:
     
    Dalton is an experimental code for the evaluation of molecular
    properties using (MC)SCF, DFT, CI, and CC wave functions.
    The authors accept no responsibility for the performance of
    the code or for the correctness of the results.
     
    The code (in whole or part) is provided under a licence and
    is not to be reproduced for further distribution without
    the written permission of the authors or their representatives.
     
    See the home page "http://daltonprogram.org" for further information.
     
    If results obtained with this code are published,
    the appropriate citations would be both of:
     
       K. Aidas, C. Angeli, K. L. Bak, V. Bakken, R. Bast,
       L. Boman, O. Christiansen, R. Cimiraglia, S. Coriani,
       P. Dahle, E. K. Dalskov, U. Ekstroem,
       T. Enevoldsen, J. J. Eriksen, P. Ettenhuber, B. Fernandez,
       L. Ferrighi, H. Fliegl, L. Frediani, K. Hald, A. Halkier,
       C. Haettig, H. Heiberg, T. Helgaker, A. C. Hennum,
       H. Hettema, E. Hjertenaes, S. Hoest, I.-M. Hoeyvik,
       M. F. Iozzi, B. Jansik, H. J. Aa. Jensen, D. Jonsson,
       P. Joergensen, J. Kauczor, S. Kirpekar,
       T. Kjaergaard, W. Klopper, S. Knecht, R. Kobayashi, H. Koch,
       J. Kongsted, A. Krapp, K. Kristensen, A. Ligabue,
       O. B. Lutnaes, J. I. Melo, K. V. Mikkelsen, R. H. Myhre,
       C. Neiss, C. B. Nielsen, P. Norman, J. Olsen,
       J. M. H. Olsen, A. Osted, M. J. Packer, F. Pawlowski,
       T. B. Pedersen, P. F. Provasi, S. Reine, Z. Rinkevicius,
       T. A. Ruden, K. Ruud, V. Rybkin, P. Salek, C. C. M. Samson,
       A. Sanchez de Meras, T. Saue, S. P. A. Sauer,
       B. Schimmelpfennig, K. Sneskov, A. H. Steindal,
       K. O. Sylvester-Hvid, P. R. Taylor, A. M. Teale,
       E. I. Tellgren, D. P. Tew, A. J. Thorvaldsen, L. Thoegersen,
       O. Vahtras, M. A. Watson, D. J. D. Wilson, M. Ziolkowski
       and H. Agren,
       "The Dalton quantum chemistry program system",
       WIREs Comput. Mol. Sci. 2014, 4:269–284 (doi: 10.1002/wcms.1172)
     
    and
     
       Dalton, a Molecular Electronic Structure Program,
       Release Dalton2017.alpha (2016), see http://daltonprogram.org
   ----------------------------------------------------------------------------

    Authors in alphabetical order (major contribution(s) in parenthesis):

  Kestutis Aidas,           Vilnius University,           Lithuania   (QM/MM)
  Celestino Angeli,         University of Ferrara,        Italy       (NEVPT2)
  Keld L. Bak,              UNI-C,                        Denmark     (AOSOPPA, non-adiabatic coupling, magnetic properties)
  Vebjoern Bakken,          University of Oslo,           Norway      (DALTON; geometry optimizer, symmetry detection)
  Radovan Bast,             UiT The Arctic U. of Norway,  Norway      (DALTON installation and execution frameworks)
  Pablo Baudin,             University of Valencia,       Spain       (Cholesky excitation energies)
  Linus Boman,              NTNU,                         Norway      (Cholesky decomposition and subsystems)
  Ove Christiansen,         Aarhus University,            Denmark     (CC module)
  Renzo Cimiraglia,         University of Ferrara,        Italy       (NEVPT2)
  Sonia Coriani,            University of Trieste,        Italy       (CC module, MCD in RESPONS)
  Janusz Cukras,            University of Trieste,        Italy       (MChD in RESPONS)
  Paal Dahle,               University of Oslo,           Norway      (Parallelization)
  Erik K. Dalskov,          UNI-C,                        Denmark     (SOPPA)
  Thomas Enevoldsen,        Univ. of Southern Denmark,    Denmark     (SOPPA)
  Janus J. Eriksen,         Aarhus University,            Denmark     (Polarizable embedding model, TDA)
  Rasmus Faber,             University of Copenhagen,     Denmark     (Vib.avg. NMR with SOPPA, parallel AO-SOPPA)
  Berta Fernandez,          U. of Santiago de Compostela, Spain       (doublet spin, ESR in RESPONS)
  Lara Ferrighi,            Aarhus University,            Denmark     (PCM Cubic response)
  Heike Fliegl,             University of Oslo,           Norway      (CCSD(R12))
  Luca Frediani,            UiT The Arctic U. of Norway,  Norway      (PCM)
  Bin Gao,                  UiT The Arctic U. of Norway,  Norway      (Gen1Int library)
  Christof Haettig,         Ruhr-University Bochum,       Germany     (CC module)
  Kasper Hald,              Aarhus University,            Denmark     (CC module)
  Asger Halkier,            Aarhus University,            Denmark     (CC module)
  Frederik Beyer Hansen,    University of Copenhagen,     Denmark     (Parallel AO-SOPPA)
  Erik D. Hedegaard,        Univ. of Southern Denmark,    Denmark     (Polarizable embedding model, QM/MM)
  Hanne Heiberg,            University of Oslo,           Norway      (geometry analysis, selected one-electron integrals)
  Trygve Helgaker,          University of Oslo,           Norway      (DALTON; ABACUS, ERI, DFT modules, London, and much more)
  Alf Christian Hennum,     University of Oslo,           Norway      (Parity violation)
  Hinne Hettema,            University of Auckland,       New Zealand (quadratic response in RESPONS; SIRIUS supersymmetry)
  Eirik Hjertenaes,         NTNU,                         Norway      (Cholesky decomposition)
  Pi A. B. Haase,           University of Copenhagen,     Denmark     (Triplet AO-SOPPA)
  Maria Francesca Iozzi,    University of Oslo,           Norway      (RPA)
  Brano Jansik              Technical Univ. of Ostrava    Czech Rep.  (DFT cubic response)
  Hans Joergen Aa. Jensen,  Univ. of Southern Denmark,    Denmark     (DALTON; SIRIUS, RESPONS, ABACUS modules, London, and much more)
  Dan Jonsson,              UiT The Arctic U. of Norway,  Norway      (cubic response in RESPONS module)
  Poul Joergensen,          Aarhus University,            Denmark     (RESPONS, ABACUS, and CC modules)
  Maciej Kaminski,          University of Warsaw,         Poland      (CPPh in RESPONS)
  Joanna Kauczor,           Linkoeping University,        Sweden      (Complex polarization propagator (CPP) module)
  Sheela Kirpekar,          Univ. of Southern Denmark,    Denmark     (Mass-velocity & Darwin integrals)
  Wim Klopper,              KIT Karlsruhe,                Germany     (R12 code in CC, SIRIUS, and ABACUS modules)
  Stefan Knecht,            ETH Zurich,                   Switzerland (Parallel CI and MCSCF)
  Rika Kobayashi,           Australian National Univ.,    Australia   (DIIS in CC, London in MCSCF)
  Henrik Koch,              NTNU,                         Norway      (CC module, Cholesky decomposition)
  Jacob Kongsted,           Univ. of Southern Denmark,    Denmark     (Polarizable embedding model, QM/MM)
  Andrea Ligabue,           University of Modena,         Italy       (CTOCD, AOSOPPA)
  Nanna H. List             Univ. of Southern Denmark,    Denmark     (Polarizable embedding model)
  Ola B. Lutnaes,           University of Oslo,           Norway      (DFT Hessian)
  Juan I. Melo,             University of Buenos Aires,   Argentina   (LRESC, Relativistic Effects on NMR Shieldings)
  Kurt V. Mikkelsen,        University of Copenhagen,     Denmark     (MC-SCRF and QM/MM)
  Rolf H. Myhre,            NTNU,                         Norway      (Cholesky, subsystems and ECC2)
  Christian Neiss,          Univ. Erlangen-Nuernberg,     Germany     (CCSD(R12))
  Christian B. Nielsen,     University of Copenhagen,     Denmark     (QM/MM)
  Patrick Norman,           Linkoeping University,        Sweden      (Cubic response and complex frequency response in RESPONS)
  Jeppe Olsen,              Aarhus University,            Denmark     (SIRIUS CI/density modules)
  Jogvan Magnus H. Olsen,   Univ. of Southern Denmark,    Denmark     (Polarizable embedding model, QM/MM)
  Anders Osted,             Copenhagen University,        Denmark     (QM/MM)
  Martin J. Packer,         University of Sheffield,      UK          (SOPPA)
  Filip Pawlowski,          Kazimierz Wielki University,  Poland      (CC3)
  Morten N. Pedersen,       Univ. of Southern Denmark,    Denmark     (Polarizable embedding model)
  Thomas B. Pedersen,       University of Oslo,           Norway      (Cholesky decomposition)
  Patricio F. Provasi,      University of Northeastern,   Argentina   (Analysis of coupling constants in localized orbitals)
  Zilvinas Rinkevicius,     KTH Stockholm,                Sweden      (open-shell DFT, ESR)
  Elias Rudberg,            KTH Stockholm,                Sweden      (DFT grid and basis info)
  Torgeir A. Ruden,         University of Oslo,           Norway      (Numerical derivatives in ABACUS)
  Kenneth Ruud,             UiT The Arctic U. of Norway,  Norway      (DALTON; ABACUS magnetic properties and much more)
  Pawel Salek,              KTH Stockholm,                Sweden      (DALTON; DFT code)
  Claire C. M. Samson       University of Karlsruhe       Germany     (Boys localization, r12 integrals in ERI)
  Alfredo Sanchez de Meras, University of Valencia,       Spain       (CC module, Cholesky decomposition)
  Trond Saue,               Paul Sabatier University,     France      (direct Fock matrix construction)
  Stephan P. A. Sauer,      University of Copenhagen,     Denmark     (SOPPA(CCSD), SOPPA prop., AOSOPPA, vibrational g-factors)
  Bernd Schimmelpfennig,    Forschungszentrum Karlsruhe,  Germany     (AMFI module)
  Kristian Sneskov,         Aarhus University,            Denmark     (Polarizable embedding model, QM/MM)
  Arnfinn H. Steindal,      UiT The Arctic U. of Norway,  Norway      (parallel QM/MM, Polarizable embedding model)
  Casper Steinmann,         Univ. of Southern Denmark,    Denmark     (QFIT, Polarizable embedding model)
  K. O. Sylvester-Hvid,     University of Copenhagen,     Denmark     (MC-SCRF)
  Peter R. Taylor,          VLSCI/Univ. of Melbourne,     Australia   (Symmetry handling ABACUS, integral transformation)
  Andrew M. Teale,          University of Nottingham,     England     (DFT-AC, DFT-D)
  David P. Tew,             University of Bristol,        England     (CCSD(R12))
  Olav Vahtras,             KTH Stockholm,                Sweden      (triplet response, spin-orbit, ESR, TDDFT, open-shell DFT)
  David J. Wilson,          La Trobe University,          Australia   (DFT Hessian and DFT magnetizabilities)
  Hans Agren,               KTH Stockholm,                Sweden      (SIRIUS module, RESPONS, MC-SCRF solvation model)
 --------------------------------------------------------------------------------

     Date and time (Linux)  : Mon Dec 17 01:43:20 2018
     Host name              : n-62-23-28                              

 * Work memory size             :  1280000000 =  9.537 gigabytes.

 * Directories for basis set searches:
   1) /zhome/37/3/129401/NH3NH4/CCSD/AIMD_SAMPLING/nh4_4h2o_nd
   2) /zhome/9a/4/124800/source/dalton/build-mlcc/basis


Compilation information
-----------------------

 Who compiled             | rfaber
 Host                     | hpclogin1
 System                   | Linux-2.6.32-696.1.1.el6.x86_64
 CMake generator          | Unix Makefiles
 Processor                | x86_64
 64-bit integers          | ON
 MPI                      | OFF
 Fortran compiler         | /opt/intel/2016update2/compilers_and_libraries_201
                          | 6.2.181/linux/bin/intel64/ifort
 Fortran compiler version | ifort (IFORT) 16.0.2 20160204
 C compiler               | /opt/intel/2016update2/compilers_and_libraries_201
                          | 6.2.181/linux/bin/intel64/icc
 C compiler version       | icc (ICC) 16.0.2 20160204
 C++ compiler             | /opt/intel/2016update2/compilers_and_libraries_201
                          | 6.2.181/linux/bin/intel64/icpc
 C++ compiler version     | icpc (ICC) 16.0.2 20160204
 Static linking           | OFF
 Last Git revision        | bb4d1599ca5680a9f3980451fc8bbefdba436d59
 Git branch               | mlcc
 Configuration time       | 2017-06-13 16:11:03.928841


   Content of the .dal input file
 ----------------------------------

**DALTON
.RUN WAVE FUNCTIONS
*QMMM
.QMMM
**INTEGRALS
.DIPLEN
**WAVE FUNCTIONS
.CC
*PRINT
!To check the origin of excit
.PRINTL
   0 11
*SCF INP
.THRESH
1.0D-7
*CC INP
.CCSD
.THRLEQ
 1.0D-9
.THRENR
 1.0D-10
.FROIMP
4
0
.PRINT
 1
.MAX IT
 1200
.MAXRED
 1200
.MXLRV
1199
*CCSLV
.CCMM
.MXSLIT
200
.MXINIT
4 5
*CCEXCI
.NCCEXC
 15
.CVSEPARA
1
1
*CCLRSD
.DIPOLE
**END OF DALTON INPUT


   Content of the .mol file
 ----------------------------

ATOMBASIS


Atomtypes=4 Charge=1 Nosymm Angstrom
   7.00000    1    Basis=6-311G**
N          0.000000        0.000000        0.000000
   1.00000    4    Basis=6-311G**
H         -0.068318        0.946653       -0.405415
H          0.926413       -0.344594       -0.030988
H         -0.738057       -0.498830       -0.523856
H         -0.299646        0.064098        0.955068
   8.00000    4    Basis=6-311G**
O         -0.344032        2.182598       -1.732826
O         -2.564354       -1.184030       -0.800493
O         -0.508270       -0.906723        3.030107
O          2.035117       -1.183218       -1.623086
   1.00000    8    Basis=6-311G**
H         -1.051518        2.127894       -2.513673
H          0.452538        2.381235       -2.275308
H         -2.630254       -2.141671       -0.571611
H         -2.946652       -0.603206       -0.065176
H          0.272409       -0.338850        3.282296
H         -0.246982       -1.848918        2.889753
H          2.190654       -2.032203       -1.166994
H          2.943905       -0.801816       -1.672617


       *******************************************************************
       *********** Output from DALTON general input processing ***********
       *******************************************************************

 --------------------------------------------------------------------------------
   Overall default print level:    0
   Print level for DALTON.STAT:    1

    HERMIT 1- and 2-electron integral sections will be executed
    "Old" integral transformation used (limited to max 255 basis functions)
    Wave function sections will be executed (SIRIUS module)
 --------------------------------------------------------------------------------


 Changes of defaults for *QMMM  :
 --------------------------------

 +------------------+
 |  WORD: | CHANGE: |
 +------------------+
 |   QMMM |       T |
 +------------------+
 


   ****************************************************************************
   *************** Output of molecule and basis set information ***************
   ****************************************************************************


    The two title cards from your ".mol" input:
    ------------------------------------------------------------------------
 1:                                                                         
 2:                                                                         
    ------------------------------------------------------------------------

  Coordinates are entered in Angstrom and converted to atomic units.
          - Conversion factor : 1 bohr = 0.52917721 A

  Atomic type no.    1
  --------------------
  Nuclear charge:   7.00000
  Number of symmetry independent centers:    1
  Number of basis sets to read;    2
  The basis set is "6-311G**" from the basis set library.
  Basis set file used for this atomic type with Z =   7 :
     "/zhome/9a/4/124800/source/dalton/build-mlcc/basis/6-311G**"

  Info about the basis set file: your basis has no documentation.
  Basis set: 6-311G**                                                                        

  Atomic type no.    2
  --------------------
  Nuclear charge:   1.00000
  Number of symmetry independent centers:    4
  Number of basis sets to read;    2
  The basis set is "6-311G**" from the basis set library.
  Basis set file used for this atomic type with Z =   1 :
     "/zhome/9a/4/124800/source/dalton/build-mlcc/basis/6-311G**"

  Info about the basis set file: your basis has no documentation.
  Basis set: 6-311G**                                                                        

  Atomic type no.    3
  --------------------
  Nuclear charge:   8.00000
  Number of symmetry independent centers:    4
  Number of basis sets to read;    2
  The basis set is "6-311G**" from the basis set library.
  Basis set file used for this atomic type with Z =   8 :
     "/zhome/9a/4/124800/source/dalton/build-mlcc/basis/6-311G**"

  Info about the basis set file: your basis has no documentation.
  Basis set: 6-311G**                                                                        

  Atomic type no.    4
  --------------------
  Nuclear charge:   1.00000
  Number of symmetry independent centers:    8
  Number of basis sets to read;    2
  The basis set is "6-311G**" from the basis set library.
  Basis set file used for this atomic type with Z =   1 :
     "/zhome/9a/4/124800/source/dalton/build-mlcc/basis/6-311G**"

  Info about the basis set file: your basis has no documentation.
  Basis set: 6-311G**                                                                        


                         SYMGRP: Point group information
                         -------------------------------

@    Point group: C1 


                                 Isotopic Masses
                                 ---------------

                           N          14.003074
                           H           1.007825
                           H           1.007825
                           H           1.007825
                           H           1.007825
                           O          15.994915
                           O          15.994915
                           O          15.994915
                           O          15.994915
                           H           1.007825
                           H           1.007825
                           H           1.007825
                           H           1.007825
                           H           1.007825
                           H           1.007825
                           H           1.007825
                           H           1.007825

                       Total mass:    90.076634 amu
                       Natural abundance:  98.500 %

 Center-of-mass coordinates (a.u.):   -0.488865   -0.431557   -0.422309


  Atoms and basis sets
  --------------------

  Number of atom types :    4
  Total number of atoms:   17

  label    atoms   charge   prim   cont     basis
  ----------------------------------------------------------------------
  N           1    7.0000    31    18      [11s5p1d|4s3p1d]                                   
  H           4    1.0000     8     6      [5s1p|3s1p]                                        
  O           4    8.0000    31    18      [11s5p1d|4s3p1d]                                   
  H           8    1.0000     8     6      [5s1p|3s1p]                                        
  ----------------------------------------------------------------------
  total:     17   51.0000   251   162
  ----------------------------------------------------------------------
  Spherical harmonic basis used.

  Threshold for neglecting AO integrals:  1.00D-12


  Cartesian Coordinates (a.u.)
  ----------------------------

  Total number of coordinates:   51
  N       :     1  x   0.0000000000    2  y   0.0000000000    3  z   0.0000000000
  H       :     4  x  -0.1291023094    5  y   1.7889149054    6  z  -0.7661233170
  H       :     7  x   1.7506668486    8  y  -0.6511882843    9  z  -0.0585588332
  H       :    10  x  -1.3947255946   11  y  -0.9426520829   12  z  -0.9899443689
  H       :    13  x  -0.5662488744   14  y   0.1211276652   15  z   1.8048169507
  O       :    16  x  -0.6501262582   17  y   4.1245124610   18  z  -3.2745665623
  O       :    19  x  -4.8459267475   20  y  -2.2374924238   21  z  -1.5127125350
  O       :    22  x  -0.9604910976   23  y  -1.7134581412   24  z   5.7260723594
  O       :    25  x   3.8458137623   26  y  -2.2359579662   27  z  -3.0671880173
  H       :    28  x  -1.9870810355   29  y   4.0211368830   30  z  -4.7501535378
  H       :    31  x   0.8551728812   32  y   4.4998819892   33  z  -4.2997089700
  H       :    34  x  -4.9704596992   35  y  -4.0471716398   36  z  -1.0801882400
  H       :    37  x  -5.5683652657   38  y  -1.1398941370   39  z  -0.1231647899
  H       :    40  x   0.5147784040   41  y  -0.6403336975   42  z   6.2026405012
  H       :    43  x  -0.4667283378   44  y  -3.4939486476   45  z   5.4608417389
  H       :    46  x   4.1397360946   47  y  -3.8403071004   48  z  -2.2052990495
  H       :    49  x   5.5631741880   50  y  -1.5152126426   51  z  -3.1607880420

  Max    interatomic separation is    6.7572 Angstrom (   12.7692 Bohr)
  between atoms   15 and   10, "H     " and "H     ".

  Min HX interatomic separation is    0.9762 Angstrom (    1.8448 Bohr)

  Min YX interatomic separation is    2.8080 Angstrom (    5.3063 Bohr)


  Bond distances (Angstrom):
  --------------------------

                  atom 1     atom 2       distance
                  ------     ------       --------
  bond distance:  H          N            1.032076
  bond distance:  H          N            0.988912
  bond distance:  H          N            1.033433
  bond distance:  H          N            1.003021
  bond distance:  H          O            1.055107
  bond distance:  H          O            0.984006
  bond distance:  H          O            0.986816
  bond distance:  H          O            1.012027
  bond distance:  H          O            0.997767
  bond distance:  H          O            0.987776
  bond distance:  H          O            0.976211
  bond distance:  H          O            0.986821


  Bond angles (degrees):
  ----------------------

                  atom 1     atom 2     atom 3         angle
                  ------     ------     ------         -----
  bond angle:     H          N          H            111.674
  bond angle:     H          N          H            101.323
  bond angle:     H          N          H            107.196
  bond angle:     H          N          H            119.010
  bond angle:     H          N          H            109.388
  bond angle:     H          N          H            107.467
  bond angle:     H          O          H             98.353
  bond angle:     H          O          H            111.297
  bond angle:     H          O          H            111.828
  bond angle:     H          O          H            102.289




 Principal moments of inertia (u*A**2) and principal axes
 --------------------------------------------------------

   IA     309.519275         -0.309638   -0.379062    0.872030
   IB     442.502444          0.923403   -0.338650    0.180672
   IC     523.150985          0.226827    0.861178    0.454886


 Rotational constants
 --------------------

               A                   B                   C

           1632.7869           1142.0931            966.0290 MHz
            0.054464            0.038096            0.032223 cm-1


@  Nuclear repulsion energy :  196.358064432138 Hartree


                     .---------------------------------------.
                     | Starting in Integral Section (HERMIT) |
                     `---------------------------------------'



 ***************************************************************************************
 ****************** Output from **INTEGRALS input processing (HERMIT) ******************
 ***************************************************************************************



    *************************************************************************
    ****************** Output from HERMIT input processing ******************
    *************************************************************************


 Default print level:        1

 * Nuclear model: Point charge

 Calculation of one- and two-electron Hamiltonian integrals.

 The following one-electron property integrals are calculated as requested:
          - overlap integrals
          - dipole length integrals

 Center of mass  (bohr):     -0.488864522813     -0.431556888158     -0.422308788833
 Operator center (bohr):      0.000000000000      0.000000000000      0.000000000000
 Gauge origin    (bohr):      0.000000000000      0.000000000000      0.000000000000
 Dipole origin   (bohr):      0.000000000000      0.000000000000      0.000000000000
 
  *********************************** 
  QMMM electrostatic potential: 
  Multipole order                                    0
  Isotropic polarization  
  *********************************** 
 
  ---------------- 
  QMMM information 
  ---------------- 
 
  MM coordinates in au 
  -------------------- 
     1     11.523064      6.520693     -8.607786
     2     10.344777      7.846687     -9.540441
     3     13.005921      6.112504     -9.692279
     4      4.601785      5.730080     -4.810364
     5      5.675787      6.974412     -3.990690
     6      5.721261      4.852278     -5.995655
     7      6.994470      9.584906     -2.613794
     8      6.573615      9.897070     -0.768417
     9      8.710099      8.992787     -2.565027
    10     10.152093     -6.293281    -10.418920
    11     10.071590     -6.988498    -12.245006
    12     11.899594     -5.921481     -9.855147
    13      5.023438      4.086657      0.230643
    14      5.920153      5.471390      0.953660
    15      4.591957      4.402648     -1.592232
    16    -11.331781      7.879376     -3.236816
    17    -11.163754      6.130589     -2.666965
    18    -11.005319      7.924141     -4.996780
    19      0.248066     -6.658119      5.628020
    20     -1.451827     -7.476596      5.291772
    21      1.075267     -7.453193      7.152269
    22      8.049833     -1.281550    -10.357750
    23      6.586793     -2.091634     -9.499786
    24      9.394556     -2.590862    -10.437689
    25      9.457157    -10.622050      4.310008
    26     10.888644    -10.526164      3.180751
    27      9.967967    -11.944721      5.667916
    28     -0.091852      6.733251    -10.059020
    29      0.152352      8.200060    -11.263423
    30     -0.960716      5.438184    -11.077147
    31     -7.690467      1.202391      1.091385
    32     -9.453693      0.708154      1.718426
    33     -7.266537      2.663586      2.137309
    34      6.678559     -9.895300     -9.317527
    35      7.981551     -8.609260     -9.472507
    36      5.922766     -9.752538     -7.610955
    37      3.971407     -2.945372     -8.265932
    38      2.956342     -4.489540     -8.636931
    39      3.806863     -2.242882     -6.536602
    40    -10.553213      2.989978     -2.903028
    41     -9.726902      2.036446     -4.241742
    42     -9.586123      2.510724     -1.446480
    43     11.642750     -5.202038     -2.983726
    44     10.128257     -6.349047     -2.710211
    45     10.837617     -3.666503     -3.498061
    46      9.533404      6.041014      2.728696
    47     11.285123      6.886308      2.489467
    48      9.207789      6.605993      4.447183
    49      7.881411      8.843756    -11.079978
    50      6.550841      7.453649    -10.978596
    51      7.154698     10.455649    -10.233835
    52     -0.553616      6.318288      1.805276
    53      0.921687      5.536098      2.691267
    54     -0.429348      5.827073      0.048538
    55     10.581642      0.969526      2.141526
    56     10.020424      0.054745      3.590459
    57     10.104961      2.775656      2.650927
    58      0.088717    -11.476229     -5.525512
    59      1.754560    -12.242426     -5.971911
    60     -1.350914    -12.634017     -6.226474
    61     -6.718840     -3.472224      5.203446
    62     -8.192441     -3.630684      3.938288
    63     -5.777669     -1.954434      4.771662
    64     -0.518460      3.247135      8.805538
    65      0.458022      2.151924     10.014091
    66      0.769954      4.500961      8.188675
    67     -8.818904     -9.807985     -3.022868
    68     -8.662837    -11.039721     -4.499302
    69     -9.951124     -8.611474     -3.792877
    70     -3.306815      8.653534     -6.925969
    71     -4.229606      7.978911     -5.413971
    72     -2.555592      7.236893     -7.929400
    73    -10.640345     -4.400248      2.293927
    74    -12.333993     -4.065005      3.145988
    75    -10.930822     -4.658186      0.417983
    76     -4.845740     -7.528918    -10.209631
    77     -5.933670     -8.962234     -9.868137
    78     -3.031138     -8.053081    -10.388747
    79      4.619672     10.515349      2.465000
    80      6.015947     11.566757      2.968614
    81      3.219411     11.633411      1.861696
    82     -7.098365     -0.187234     -5.558573
    83     -7.693102     -1.159379     -7.053888
    84     -6.536508     -0.984899     -3.923538
    85      3.722541      0.452939      4.099192
    86      4.022764      1.501968      2.613144
    87      4.951963      1.224125      5.344060
    88      3.603035     -9.528730      9.851798
    89      2.884221    -11.374982      9.390646
    90      4.594958     -9.581766     11.405809
    91      0.122348      0.562532    -10.466225
    92     -1.036252     -0.621803    -11.361644
    93      1.417453     -0.453723     -9.601863
    94      7.302888      4.234663      7.689632
    95      6.840425      4.256784      9.431551
    96      8.340406      2.694664      7.348523
    97     -4.548437      3.866119      4.075056
    98     -3.805408      3.237135      5.708139
    99     -3.001809      4.488013      3.119499
   100     -4.735113     -8.123814      4.510612
   101     -4.778698     -7.732379      2.667450
   102     -5.598695     -6.613272      5.205273
   103     -7.812763     11.365408     -8.971685
   104     -8.305261     10.981629    -10.775313
   105     -6.224688     10.403855     -8.693965
   106      8.351444     -7.182567      7.977197
   107      8.970558     -8.359391      6.598168
   108      6.571736     -7.729241      8.174693
   109     -7.738744      8.297266      9.489247
   110     -7.183163      6.665572     10.223696
   111     -6.201287      9.234279      8.929884
   112     -4.038366     -8.258880     -0.628109
   113     -2.594594     -9.382046     -0.829399
   114     -5.152860     -8.788585     -1.944349
   115     10.125073      0.120398      7.448660
   116     11.872703      0.040841      8.380217
   117      9.029421     -0.763723      8.589340
   118      7.842280     -3.650142      3.795713
   119      8.101250     -4.635400      5.430948
   120      6.291333     -2.657941      4.147575
   121      1.150365      9.785622      9.060050
   122     -0.395792     10.524586      8.235717
   123      2.096328      8.641115      7.873000
   124      8.621874     -0.718733     -2.687208
   125      9.302921     -0.400792     -0.943138
   126      9.103028      0.630522     -3.775943
   127     -6.148407      3.832555     11.444125
   128     -4.538005      3.489485     10.607840
   129     -5.630549      3.704394     13.271405
   130     -8.863781     -0.173025      9.696871
   131     -8.052134      1.485765     10.209270
   132     -7.446220     -1.200568      9.057582
   133      8.525395      2.638179     -6.743106
   134      8.663336      1.136417     -7.933061
   135      9.942220      3.716812     -7.419686
   136      3.245763      6.663690      5.699677
   137      3.576887      7.827641      4.313519
   138      4.764653      5.748815      6.136071
   139     -3.709680      2.754280     -7.364028
   140     -2.282916      1.857603     -8.189298
   141     -4.838353      1.629076     -6.327223
   142     -3.108875     -1.849723     10.159585
   143     -3.257988     -3.499863     10.932496
   144     -2.235612     -1.939039      8.358877
   145      0.500734     -7.504951     -9.679922
   146      0.492156     -8.757684     -8.320009
   147      1.228447     -8.035544    -11.343351
   148     -8.441163     -3.737440     -9.417811
   149     -7.113311     -5.007030     -9.543553
   150     -8.462668     -2.969240    -11.042790
   151      4.841800      4.525114    -10.855980
   152      3.240708      5.033648    -10.139191
   153      5.523356      3.152040     -9.702290
   154     10.909283      9.056906      7.269121
   155     12.451445      8.558180      8.026319
   156      9.784705      8.436093      8.589873
   157      5.587771     -9.576093     -4.073293
   158      4.580505     -8.681954     -2.879646
   159      6.219266    -11.093943     -3.308211
   160      4.512777     -6.859366      0.926417
   161      6.036615     -6.222668      1.727763
   162      3.152188     -6.825802      2.215131
   163     -9.391156    -10.701336      2.066635
   164     -9.046127    -10.926927      0.227221
   165     -7.809979     -9.971231      2.708756
   166     -6.046681      8.632619     -2.147630
   167     -7.871896      8.302504     -2.128869
   168     -5.528082      8.159862     -0.532022
   169     -4.252645     10.833511      7.218268
   170     -4.048084      9.861334      5.639580
   171     -4.562761     12.627103      6.684284
   172     -8.875305      7.567690      2.527161
   173     -8.875976      9.473101      2.488136
   174     -8.086270      6.962409      4.038161
   175     -0.135609    -11.431505     -0.611818
   176     -0.580063    -12.999672      0.129121
   177     -0.199432    -11.825439     -2.527518
 
  MM charges 
  ---------- 
     1     -0.674440
     2      0.337220
     3      0.337220
     4     -0.674440
     5      0.337220
     6      0.337220
     7     -0.674440
     8      0.337220
     9      0.337220
    10     -0.674440
    11      0.337220
    12      0.337220
    13     -0.674440
    14      0.337220
    15      0.337220
    16     -0.674440
    17      0.337220
    18      0.337220
    19     -0.674440
    20      0.337220
    21      0.337220
    22     -0.674440
    23      0.337220
    24      0.337220
    25     -0.674440
    26      0.337220
    27      0.337220
    28     -0.674440
    29      0.337220
    30      0.337220
    31     -0.674440
    32      0.337220
    33      0.337220
    34     -0.674440
    35      0.337220
    36      0.337220
    37     -0.674440
    38      0.337220
    39      0.337220
    40     -0.674440
    41      0.337220
    42      0.337220
    43     -0.674440
    44      0.337220
    45      0.337220
    46     -0.674440
    47      0.337220
    48      0.337220
    49     -0.674440
    50      0.337220
    51      0.337220
    52     -0.674440
    53      0.337220
    54      0.337220
    55     -0.674440
    56      0.337220
    57      0.337220
    58     -0.674440
    59      0.337220
    60      0.337220
    61     -0.674440
    62      0.337220
    63      0.337220
    64     -0.674440
    65      0.337220
    66      0.337220
    67     -0.674440
    68      0.337220
    69      0.337220
    70     -0.674440
    71      0.337220
    72      0.337220
    73     -0.674440
    74      0.337220
    75      0.337220
    76     -0.674440
    77      0.337220
    78      0.337220
    79     -0.674440
    80      0.337220
    81      0.337220
    82     -0.674440
    83      0.337220
    84      0.337220
    85     -0.674440
    86      0.337220
    87      0.337220
    88     -0.674440
    89      0.337220
    90      0.337220
    91     -0.674440
    92      0.337220
    93      0.337220
    94     -0.674440
    95      0.337220
    96      0.337220
    97     -0.674440
    98      0.337220
    99      0.337220
   100     -0.674440
   101      0.337220
   102      0.337220
   103     -0.674440
   104      0.337220
   105      0.337220
   106     -0.674440
   107      0.337220
   108      0.337220
   109     -0.674440
   110      0.337220
   111      0.337220
   112     -0.674440
   113      0.337220
   114      0.337220
   115     -0.674440
   116      0.337220
   117      0.337220
   118     -0.674440
   119      0.337220
   120      0.337220
   121     -0.674440
   122      0.337220
   123      0.337220
   124     -0.674440
   125      0.337220
   126      0.337220
   127     -0.674440
   128      0.337220
   129      0.337220
   130     -0.674440
   131      0.337220
   132      0.337220
   133     -0.674440
   134      0.337220
   135      0.337220
   136     -0.674440
   137      0.337220
   138      0.337220
   139     -0.674440
   140      0.337220
   141      0.337220
   142     -0.674440
   143      0.337220
   144      0.337220
   145     -0.674440
   146      0.337220
   147      0.337220
   148     -0.674440
   149      0.337220
   150      0.337220
   151     -0.674440
   152      0.337220
   153      0.337220
   154     -0.674440
   155      0.337220
   156      0.337220
   157     -0.674440
   158      0.337220
   159      0.337220
   160     -0.674440
   161      0.337220
   162      0.337220
   163     -0.674440
   164      0.337220
   165      0.337220
   166     -0.674440
   167      0.337220
   168      0.337220
   169     -0.674440
   170      0.337220
   171      0.337220
   172     -0.674440
   173      0.337220
   174      0.337220
   175     -0.674440
   176      0.337220
   177      0.337220
 
  MM isotropic polarizabilities in au 
  ----------------------------------- 
     1      5.739350
     2      2.308390
     3      2.308390
     4      5.739350
     5      2.308390
     6      2.308390
     7      5.739350
     8      2.308390
     9      2.308390
    10      5.739350
    11      2.308390
    12      2.308390
    13      5.739350
    14      2.308390
    15      2.308390
    16      5.739350
    17      2.308390
    18      2.308390
    19      5.739350
    20      2.308390
    21      2.308390
    22      5.739350
    23      2.308390
    24      2.308390
    25      5.739350
    26      2.308390
    27      2.308390
    28      5.739350
    29      2.308390
    30      2.308390
    31      5.739350
    32      2.308390
    33      2.308390
    34      5.739350
    35      2.308390
    36      2.308390
    37      5.739350
    38      2.308390
    39      2.308390
    40      5.739350
    41      2.308390
    42      2.308390
    43      5.739350
    44      2.308390
    45      2.308390
    46      5.739350
    47      2.308390
    48      2.308390
    49      5.739350
    50      2.308390
    51      2.308390
    52      5.739350
    53      2.308390
    54      2.308390
    55      5.739350
    56      2.308390
    57      2.308390
    58      5.739350
    59      2.308390
    60      2.308390
    61      5.739350
    62      2.308390
    63      2.308390
    64      5.739350
    65      2.308390
    66      2.308390
    67      5.739350
    68      2.308390
    69      2.308390
    70      5.739350
    71      2.308390
    72      2.308390
    73      5.739350
    74      2.308390
    75      2.308390
    76      5.739350
    77      2.308390
    78      2.308390
    79      5.739350
    80      2.308390
    81      2.308390
    82      5.739350
    83      2.308390
    84      2.308390
    85      5.739350
    86      2.308390
    87      2.308390
    88      5.739350
    89      2.308390
    90      2.308390
    91      5.739350
    92      2.308390
    93      2.308390
    94      5.739350
    95      2.308390
    96      2.308390
    97      5.739350
    98      2.308390
    99      2.308390
   100      5.739350
   101      2.308390
   102      2.308390
   103      5.739350
   104      2.308390
   105      2.308390
   106      5.739350
   107      2.308390
   108      2.308390
   109      5.739350
   110      2.308390
   111      2.308390
   112      5.739350
   113      2.308390
   114      2.308390
   115      5.739350
   116      2.308390
   117      2.308390
   118      5.739350
   119      2.308390
   120      2.308390
   121      5.739350
   122      2.308390
   123      2.308390
   124      5.739350
   125      2.308390
   126      2.308390
   127      5.739350
   128      2.308390
   129      2.308390
   130      5.739350
   131      2.308390
   132      2.308390
   133      5.739350
   134      2.308390
   135      2.308390
   136      5.739350
   137      2.308390
   138      2.308390
   139      5.739350
   140      2.308390
   141      2.308390
   142      5.739350
   143      2.308390
   144      2.308390
   145      5.739350
   146      2.308390
   147      2.308390
   148      5.739350
   149      2.308390
   150      2.308390
   151      5.739350
   152      2.308390
   153      2.308390
   154      5.739350
   155      2.308390
   156      2.308390
   157      5.739350
   158      2.308390
   159      2.308390
   160      5.739350
   161      2.308390
   162      2.308390
   163      5.739350
   164      2.308390
   165      2.308390
   166      5.739350
   167      2.308390
   168      2.308390
   169      5.739350
   170      2.308390
   171      2.308390
   172      5.739350
   173      2.308390
   174      2.308390
   175      5.739350
   176      2.308390
   177      2.308390


     ************************************************************************
     ************************** Output from HERINT **************************
     ************************************************************************



                      Nuclear contribution to dipole moments
                      --------------------------------------

                 au               Debye          C m (/(10**-30)

      x    -23.14502543       -58.82878292      -196.23169748
      y    -22.33881535       -56.77960144      -189.39636379
      z    -20.99278800       -53.35834138      -177.98426865


  Time used in HUCKEL     is       0.29 seconds
  Time used in OVERLAP    is       0.32 seconds
  Time used in POPOVLP    is       0.22 seconds
  Time used in DIPLEN     is       0.37 seconds
  Time used in QUADRUP    is       0.61 seconds
  Time used in KINENE     is       0.27 seconds

 Threshold for neglecting two-electron integrals:  1.00D-12
 HERMIT - Number of two-electron integrals written:    35355632 ( 40.6% )
 HERMIT - Megabytes written:                            404.844

  Time used in TWOINT     is      16.61 seconds
  Total CPU  time used in HERMIT:  18.77 seconds
  Total wall time used in HERMIT:   7.37 seconds


                        .----------------------------------.
                        | End of Integral Section (HERMIT) |
                        `----------------------------------'



                   .--------------------------------------------.
                   | Starting in Wave Function Section (SIRIUS) |
                   `--------------------------------------------'

NCCEXCI for singlet:   15
 CCSD_INPUT: core-val requested
 Requested number of core orbs per sym
                     1
 Indices of requested core orbs
                     1

 *** Output from Huckel module :

     Using EWMO model:          T
     Using EHT  model:          F
     Number of Huckel orbitals each symmetry:   37

 EWMO - Energy Weighted Maximum Overlap - is a Huckel type method,
        which normally is better than Extended Huckel Theory.
 Reference: Linderberg and Ohrn, Propagators in Quantum Chemistry (Wiley, 1973)

 Huckel EWMO eigenvalues for symmetry :  1
          -20.684636     -20.684460     -20.684385     -20.684181     -15.676582
           -1.802782      -1.604699      -1.593695      -1.584116      -1.505852
           -0.813369      -0.798614      -0.793433      -0.770176      -0.767869
           -0.745899      -0.742257      -0.685440      -0.676550      -0.668279
           -0.658371      -0.613515      -0.581048      -0.576203      -0.567049
           -0.262300      -0.248336      -0.244480      -0.237961      -0.186942
           -0.179866      -0.177910      -0.176693      -0.174935      -0.146676
           -0.142604      -0.133639

 **********************************************************************
 *SIRIUS* a direct, restricted step, second order MCSCF program       *
 **********************************************************************

 
     Date and time (Linux)  : Mon Dec 17 01:43:28 2018
     Host name              : n-62-23-28                              

 Title lines from ".mol" input file:
                                                                             
                                                                             

 Print level on unit LUPRI =   2 is   0
 Print level on unit LUW4  =   2 is  11

@    (Integral direct) CC calculation.

@    This is a combination run starting with
@              a restricted, closed shell Hartree-Fock calculation


 Initial molecular orbitals are obtained according to
 ".MOSTART EWMO  " input option

@    QM part is embedded in an environment :

@         Model: QMMM

     Wave function specification
     ============================

     For the specification of the Coupled Cluster: see later.

@    Wave function type        --- CC ---
@    Number of closed shell electrons          50
@    Number of electrons in active shells       0
@    Total charge of the molecule               1

@    Spin multiplicity and 2 M_S                1         0
@    Total number of symmetries                 1 (point group: C1 )
@    Reference state symmetry                   1 (irrep name : A  )

     Orbital specifications
     ======================
@    Abelian symmetry species          All |    1
@                                          |  A  
                                       --- |  ---
@    Occupied SCF orbitals              25 |   25
@    Secondary orbitals                137 |  137
@    Total number of orbitals          162 |  162
@    Number of basis functions         162 |  162

     Optimization information
     ========================
@    Number of configurations                 1
@    Number of orbital rotations           3425
     ------------------------------------------
@    Total number of variables             3426

     Maximum number of Fock   iterations      0
     Maximum number of DIIS   iterations     60
     Maximum number of QC-SCF iterations     60
     Threshold for SCF convergence     1.00D-07


 Changes of defaults for CC:
 ---------------------------


 -Implicit frozen core calculation
 -Excitation energies calculated
 -One-photon absorption strengths will be calculated
 -Oscillator strengths calculated
  
* Read MO coefficients from SIRIUS.RST with label "NEWORB  " and header info: 17Dec18  REORTHO 


 ***********************************************
 ***** DIIS acceleration of SCF iterations *****
 ***********************************************

 C1-DIIS algorithm; max error vectors =    8
 -----------------------------------------------------------------------------

 *** DIIS iteration number    1
 RDSUPM called. NFMAT, ISYMDM(1:NFMAT)                     1
                     1

Calculating AOSUPINT
     (Precalculated two-electron integrals are transformed to P-supermatrix elements.
      Threshold for discarding integrals :  1.00D-12 )
  CPU  time used in FORMSUP    is   7.72 seconds
  WALL time used in FORMSUP    is  13.03 seconds

 ITDIIS, energy, error norm, change in energy, scr.thr., difden:
@ DIIS iter.   1    -360.166110159        4.06725D+00   -3.60D+02  -20    F

 (DIIS_RED) Control Parameters C2DIIS =         F NEVC =    1


 (DIIS_RED) B matrix:

               Column   1
       1      16.54249822
    ==== End of matrix output ====

 DIIS C vector; C2DIIS = F, LAMBDA = -1.65D+01
    1.000000
* Read MO coefficients from SIRIUS.RST with label "NEWORB  " and header info: 17Dec18  DIIS   1
      Virial theorem: -V/T =      2.003208
@      MULPOP N       0.18; H       0.17; H       0.16; H       0.16; H       0.16; O      -0.58; O      -0.61; O      -0.63; O      -0.61; H       0.31; 
@             H       0.32; H       0.32; H       0.33; H       0.33; H       0.33; H       0.33; H       0.32; 
   1  Level shift: doubly occupied orbital energies shifted by -2.00D-01

 DIIS Fock eigenvalues in symmetry 1
      -20.82966      -20.81848      -20.80944      -20.79295      -16.54952
       -1.79076       -1.64607       -1.64449       -1.62808       -1.60693
       -1.27741       -1.25697       -1.23823       -1.03203       -1.01844
       -1.01773       -0.96595       -0.89175       -0.89025       -0.87529
       -0.87005       -0.86378       -0.85443       -0.84724       -0.82128
       -0.02259        0.04986        0.05596        0.06502        0.10513
        0.11146        0.12316        0.15315        0.16570        0.16671
        0.19111        0.21518        0.24119        0.27202        0.29589
        0.42851        0.43462        0.45601        0.46359        0.46733
        0.48468        0.50056        0.51785        0.54384        0.62936
        0.64872        0.66771        0.81507        0.84628        0.87668
        0.89602        0.90405        0.92121        0.97388        0.97633
        0.98485        1.00047        1.01387        1.03255        1.04279
        1.06308        1.07454        1.21245        1.21368        1.26757
        1.31540        1.32884        1.34296        1.35817        1.36943
        1.38102        1.42520        1.45016        1.47109        1.51390
        1.52887        1.54312        1.55937        1.59515        1.62807
        1.69698        1.71052        1.73182        1.76994        1.80288
        1.81676        1.85726        1.90778        2.04429        2.06678
        2.09276        2.10148        2.12008        2.14197        2.17396
        2.18651        2.20552        2.22899        2.24318        2.35346
        2.44784        2.47818        2.49223        2.51391        2.53186
        2.54715        2.57936        2.63311        2.64981        2.68588
        2.69179        2.75306        2.76305        2.92948        3.01148
        3.03045        3.09076        3.27689        3.30496        3.35157
        3.35580        3.38141        3.38224        3.39886        3.40462
        3.48402        3.50986        3.52466        3.55945        3.85295
        3.87027        3.90259        3.93081        4.03699        4.05225
        4.11716        4.12667        4.64622        4.75405        4.86990
        5.26023        5.27891        5.29140        5.29844        5.59829
        5.64559        5.70093        5.74445        5.89976        5.97682
        5.97975        6.01767       36.33334       51.43830       51.45349
       51.45637       51.46878
 Time used in FCKEIG, thr_jaco:   4.74D-01  4.80D-02  1.74D-04
 CPU and wall times used in FCKEIG, THR_FCKEIG:   4.74D-01  4.80D-02  4.07D-02
 -----------------------------------------------------------------------------

 *** DIIS iteration number    2
 RDSUPM called. NFMAT, ISYMDM(1:NFMAT)                     1
                     1

 ITDIIS, energy, error norm, change in energy, scr.thr., difden:
@ DIIS iter.   2    -361.094278382        1.20014D+00   -9.28D-01  -20    F

 (DIIS_RED) Control Parameters C2DIIS =         F NEVC =    2


 (DIIS_RED) B matrix:

               Column   1     Column   2
       1      16.54249822
       2       0.51415557     1.44033433
    ==== End of matrix output ====

 DIIS C vector; C2DIIS = F, LAMBDA = -1.39D+00
    0.054627    0.945373
* Read MO coefficients from SIRIUS.RST with label "NEWORB  " and header info: 17Dec18  DIIS   2
      Virial theorem: -V/T =      2.002134
@      MULPOP N      -0.50; H       0.34; H       0.33; H       0.33; H       0.32; O      -0.57; O      -0.60; O      -0.60; O      -0.58; H       0.34; 
@             H       0.30; H       0.30; H       0.34; H       0.30; H       0.34; H       0.28; H       0.34; 
   2  Level shift: doubly occupied orbital energies shifted by -1.00D-01

 DIIS Fock eigenvalues in symmetry 1
      -20.79101      -20.76706      -20.76495      -20.76454      -15.65901
       -1.54404       -1.53421       -1.52354       -1.50971       -1.42646
       -0.92772       -0.91193       -0.90084       -0.89536       -0.89100
       -0.88102       -0.85150       -0.79109       -0.78323       -0.76981
       -0.76691       -0.73780       -0.72569       -0.72152       -0.70357
        0.04902        0.09391        0.10145        0.11291        0.15406
        0.17870        0.18428        0.19388        0.20822        0.21897
        0.23397        0.25949        0.33578        0.36120        0.38296
        0.46918        0.47251        0.49385        0.49688        0.50639
        0.52576        0.55387        0.56725        0.61839        0.78603
        0.79465        0.80308        0.87861        0.90764        0.91754
        0.94884        0.95839        0.97918        0.99656        1.00377
        1.00939        1.04332        1.05324        1.08501        1.12661
        1.14638        1.17975        1.24275        1.27703        1.31335
        1.35376        1.38289        1.39857        1.41238        1.42837
        1.44339        1.47453        1.50025        1.52799        1.59644
        1.60156        1.61932        1.65968        1.66563        1.74810
        1.75872        1.77222        1.81694        1.85454        1.87423
        1.91712        1.96751        2.02190        2.08041        2.13903
        2.14371        2.16456        2.21170        2.23586        2.25739
        2.28016        2.29738        2.31432        2.33406        2.46920
        2.55480        2.56117        2.59188        2.61160        2.62472
        2.65063        2.67231        2.68910        2.72772        2.75226
        2.79637        2.94679        2.99677        3.12123        3.27292
        3.29454        3.32019        3.32745        3.37289        3.38852
        3.39838        3.40453        3.42470        3.42972        3.44704
        3.50466        3.53617        3.54157        3.58904        3.86310
        3.89622        3.91980        3.95335        4.05307        4.07219
        4.13274        4.14395        5.06448        5.16557        5.25134
        5.25790        5.27055        5.29909        5.32938        5.59463
        5.64247        5.70070        5.73621        5.89713        5.98743
        5.99648        6.03067       37.10481       51.37941       51.39678
       51.40304       51.41072
 Time used in FCKEIG, thr_jaco:   3.32D-01  3.40D-02  5.13D-05
 CPU and wall times used in FCKEIG, THR_FCKEIG:   3.32D-01  3.40D-02  1.20D-02
 -----------------------------------------------------------------------------

 *** DIIS iteration number    3
 RDSUPM called. NFMAT, ISYMDM(1:NFMAT)                     1
                     1

 ITDIIS, energy, error norm, change in energy, scr.thr., difden:
@ DIIS iter.   3    -361.175444303        3.77244D-01   -8.12D-02  -20    F

 (DIIS_RED) Control Parameters C2DIIS =         F NEVC =    3


 (DIIS_RED) B matrix:

               Column   1     Column   2     Column   3
       1      16.54249822
       2       0.51415557     1.44033433
       3       0.86069399    -0.00446401     0.14231320
    ==== End of matrix output ====

 DIIS C vector; C2DIIS = F, LAMBDA = -9.60D-02
   -0.046856    0.086340    0.960516
* Read MO coefficients from SIRIUS.RST with label "NEWORB  " and header info: 17Dec18  DIIS   3
      Virial theorem: -V/T =      2.003069
@      MULPOP N      -0.27; H       0.29; H       0.28; H       0.29; H       0.26; O      -0.65; O      -0.66; O      -0.66; O      -0.64; H       0.38; 
@             H       0.33; H       0.33; H       0.38; H       0.32; H       0.37; H       0.30; H       0.38; 
   3  Level shift: doubly occupied orbital energies shifted by -5.00D-02

 DIIS Fock eigenvalues in symmetry 1
      -20.69868      -20.68341      -20.68236      -20.66239      -15.81496
       -1.47516       -1.46988       -1.46024       -1.43861       -1.42264
       -0.91024       -0.88207       -0.86441       -0.84418       -0.83242
       -0.82273       -0.77657       -0.71877       -0.71728       -0.69961
       -0.69940       -0.66276       -0.65263       -0.64945       -0.62213
        0.05390        0.09975        0.10716        0.11914        0.15833
        0.18109        0.18798        0.19791        0.21100        0.22178
        0.24084        0.26066        0.33653        0.36417        0.38453
        0.47898        0.48376        0.50408        0.50859        0.51624
        0.53489        0.56316        0.57807        0.61971        0.77619
        0.78279        0.79832        0.88805        0.91271        0.93040
        0.95758        0.96778        0.99460        1.00996        1.01606
        1.02101        1.05389        1.06997        1.09986        1.13007
        1.14750        1.17554        1.25415        1.28355        1.32327
        1.36857        1.39696        1.41235        1.42562        1.43999
        1.45691        1.49097        1.51419        1.53942        1.60764
        1.61137        1.62814        1.66691        1.67443        1.75140
        1.77116        1.78171        1.82449        1.86546        1.88594
        1.91414        1.97026        2.02404        2.09860        2.15507
        2.16019        2.17951        2.22604        2.23179        2.27239
        2.30082        2.30653        2.32009        2.33172        2.47777
        2.56280        2.57321        2.59998        2.61855        2.63193
        2.66114        2.68112        2.70208        2.73548        2.76377
        2.80796        2.91947        2.96769        3.10969        3.25258
        3.28436        3.32155        3.33690        3.37388        3.40461
        3.41391        3.42888        3.43378        3.44658        3.45774
        3.53181        3.55735        3.57301        3.61177        3.89430
        3.91771        3.94652        3.97414        4.08187        4.09536
        4.16370        4.17064        4.98743        5.09514        5.20369
        5.28810        5.30460        5.32230        5.32948        5.61881
        5.67247        5.73000        5.77264        5.93692        6.02068
        6.02333        6.05671       36.90527       51.42188       51.43438
       51.44317       51.45192
 Time used in FCKEIG, thr_jaco:   2.86D-01  2.80D-02  1.61D-05
 CPU and wall times used in FCKEIG, THR_FCKEIG:   2.86D-01  2.80D-02  3.77D-03
 -----------------------------------------------------------------------------

 *** DIIS iteration number    4
 RDSUPM called. NFMAT, ISYMDM(1:NFMAT)                     1
                     1

 ITDIIS, energy, error norm, change in energy, scr.thr., difden:
@ DIIS iter.   4    -361.186125715        9.27484D-02   -1.07D-02  -20    F

 (DIIS_RED) Control Parameters C2DIIS =         F NEVC =    4


 (DIIS_RED) B matrix:

               Column   1     Column   2     Column   3     Column   4
       1      16.54249822
       2       0.51415557     1.44033433
       3       0.86069399    -0.00446401     0.14231320
       4       0.06278805     0.07636573     0.00894950     0.00860227
    ==== End of matrix output ====

 DIIS C vector; C2DIIS = F, LAMBDA = -4.89D-03
   -0.000421   -0.054232   -0.033182    1.087835
* Read MO coefficients from SIRIUS.RST with label "NEWORB  " and header info: 17Dec18  DIIS   4
      Virial theorem: -V/T =      2.003030
@      MULPOP N      -0.34; H       0.30; H       0.29; H       0.30; H       0.27; O      -0.66; O      -0.67; O      -0.67; O      -0.66; H       0.39; 
@             H       0.33; H       0.33; H       0.38; H       0.33; H       0.38; H       0.30; H       0.39; 
   4  Level shift: doubly occupied orbital energies shifted by -1.25D-02

 DIIS Fock eigenvalues in symmetry 1
      -20.67574      -20.65617      -20.65567      -20.64476      -15.74972
       -1.44247       -1.43660       -1.42714       -1.40511       -1.37731
       -0.86302       -0.83479       -0.81849       -0.80957       -0.79881
       -0.78859       -0.74379       -0.68354       -0.68172       -0.66565
       -0.66394       -0.62585       -0.61503       -0.61161       -0.58694
        0.05456        0.09879        0.10624        0.11887        0.15859
        0.18180        0.18741        0.19827        0.21293        0.22419
        0.24075        0.26369        0.34145        0.36803        0.38892
        0.47894        0.48281        0.50359        0.50781        0.51547
        0.53364        0.56136        0.57684        0.62313        0.78189
        0.78866        0.80327        0.88917        0.91503        0.93101
        0.95918        0.96891        0.99406        1.00915        1.01459
        1.02013        1.05362        1.06805        1.09801        1.13200
        1.14948        1.17940        1.25370        1.28544        1.32399
        1.36757        1.39626        1.41099        1.42390        1.43862
        1.45432        1.48842        1.51321        1.53827        1.60727
        1.61249        1.62872        1.67060        1.67362        1.75509
        1.77009        1.78167        1.82717        1.86403        1.88476
        1.91902        1.97505        2.02824        2.09505        2.15200
        2.15714        2.17672        2.22585        2.23643        2.26905
        2.29670        2.30831        2.32057        2.33702        2.48075
        2.56709        2.57231        2.60174        2.62081        2.63500
        2.66104        2.68293        2.70067        2.73627        2.76134
        2.80666        2.92833        2.97730        3.11732        3.26015
        3.29476        3.31803        3.33796        3.37842        3.40371
        3.41058        3.42559        3.43247        3.44364        3.45553
        3.52831        3.55477        3.56790        3.60916        3.88890
        3.91463        3.94255        3.97104        4.07809        4.09244
        4.15958        4.16650        5.00265        5.10946        5.21650
        5.28037        5.29669        5.31736        5.32641        5.61415
        5.66622        5.72415        5.76390        5.92682        6.01323
        6.01741        6.05103       36.93275       51.40769       51.42434
       51.43118       51.43402
 Time used in FCKEIG, thr_jaco:   2.85D-01  2.90D-02  3.96D-06
 CPU and wall times used in FCKEIG, THR_FCKEIG:   2.86D-01  2.90D-02  9.27D-04
 -----------------------------------------------------------------------------

 *** DIIS iteration number    5
 RDSUPM called. NFMAT, ISYMDM(1:NFMAT)                     1
                     1

 ITDIIS, energy, error norm, change in energy, scr.thr., difden:
@ DIIS iter.   5    -361.187175256        3.15506D-02   -1.05D-03  -20    F

 (DIIS_RED) Control Parameters C2DIIS =         F NEVC =    5


 (DIIS_RED) B matrix:

               Column   1     Column   2     Column   3     Column   4     Column   5
       1      16.54249822
       2       0.51415557     1.44033433
       3       0.86069399    -0.00446401     0.14231320
       4       0.06278805     0.07636573     0.00894950     0.00860227
       5       0.02448880     0.00753474     0.00616035     0.00086616     0.00099544
    ==== End of matrix output ====

 DIIS C vector; C2DIIS = F, LAMBDA = -6.58D-04
    0.001230   -0.012257   -0.051894    0.137150    0.925772
* Read MO coefficients from SIRIUS.RST with label "NEWORB  " and header info: 17Dec18  DIIS   5
      Virial theorem: -V/T =      2.002647
@      MULPOP N      -0.32; H       0.30; H       0.29; H       0.30; H       0.27; O      -0.68; O      -0.69; O      -0.69; O      -0.67; H       0.39; 
@             H       0.34; H       0.34; H       0.39; H       0.33; H       0.39; H       0.31; H       0.39; 

 DIIS Fock eigenvalues in symmetry 1
      -20.65522      -20.63858      -20.63787      -20.62152      -15.73347
       -1.42719       -1.42226       -1.41292       -1.38899       -1.36309
       -0.84914       -0.82068       -0.80432       -0.79527       -0.78536
       -0.77486       -0.72841       -0.66860       -0.66792       -0.65037
       -0.64993       -0.60990       -0.59989       -0.59647       -0.57000
        0.05503        0.09905        0.10646        0.11934        0.15904
        0.18218        0.18758        0.19862        0.21359        0.22488
        0.24137        0.26457        0.34246        0.36892        0.38992
        0.47971        0.48334        0.50413        0.50860        0.51598
        0.53405        0.56167        0.57766        0.62404        0.78314
        0.79003        0.80475        0.89074        0.91672        0.93260
        0.96082        0.97069        0.99582        1.01060        1.01559
        1.02132        1.05493        1.06977        1.09965        1.13339
        1.15080        1.18067        1.25507        1.28675        1.32551
        1.36937        1.39726        1.41163        1.42438        1.43905
        1.45456        1.48907        1.51399        1.53868        1.60802
        1.61321        1.62935        1.67143        1.67394        1.75587
        1.77033        1.78203        1.82810        1.86416        1.88497
        1.92004        1.97611        2.02937        2.09625        2.15257
        2.15793        2.17709        2.22683        2.23760        2.26953
        2.29814        2.30921        2.32147        2.33805        2.48161
        2.56797        2.57263        2.60226        2.62152        2.63577
        2.66138        2.68345        2.70070        2.73661        2.76116
        2.80676        2.92970        2.97872        3.11867        3.26227
        3.29654        3.32106        3.33998        3.38037        3.40562
        3.41422        3.42842        3.43444        3.44550        3.45906
        3.53118        3.55661        3.57172        3.61100        3.89277
        3.91653        3.94539        3.97279        4.08118        4.09445
        4.16273        4.16956        5.00481        5.11172        5.21882
        5.28570        5.30198        5.32068        5.32973        5.61699
        5.67062        5.72770        5.76921        5.93250        6.01741
        6.02007        6.05360       36.93642       51.41560       51.42942
       51.43775       51.44324
 Time used in FCKEIG, thr_jaco:   2.60D-01  2.60D-02  1.35D-06
 CPU and wall times used in FCKEIG, THR_FCKEIG:   2.60D-01  2.60D-02  3.16D-04
 -----------------------------------------------------------------------------

 *** DIIS iteration number    6
 RDSUPM called. NFMAT, ISYMDM(1:NFMAT)                     1
                     1

 ITDIIS, energy, error norm, change in energy, scr.thr., difden:
@ DIIS iter.   6    -361.187268516        1.11914D-02   -9.33D-05  -20    F

 (DIIS_RED) Control Parameters C2DIIS =         F NEVC =    6


 (DIIS_RED) B matrix:

               Column   1     Column   2     Column   3     Column   4     Column   5     Column   6
       1      16.54249822
       2       0.51415557     1.44033433
       3       0.86069399    -0.00446401     0.14231320
       4       0.06278805     0.07636573     0.00894950     0.00860227
       5       0.02448880     0.00753474     0.00616035     0.00086616     0.00099544
       6      -0.00479951    -0.00002879     0.00080180     0.00061654     0.00001634     0.00012525
    ==== End of matrix output ====

 DIIS C vector; C2DIIS = F, LAMBDA = -3.73D-05
    0.000779    0.006394   -0.006225   -0.136189    0.110129    1.025113
* Read MO coefficients from SIRIUS.RST with label "NEWORB  " and header info: 17Dec18  DIIS   6
      Virial theorem: -V/T =      2.002910
@      MULPOP N      -0.32; H       0.30; H       0.29; H       0.30; H       0.27; O      -0.68; O      -0.69; O      -0.69; O      -0.67; H       0.39; 
@             H       0.34; H       0.34; H       0.39; H       0.33; H       0.39; H       0.31; H       0.40; 

 DIIS Fock eigenvalues in symmetry 1
      -20.65743      -20.63992      -20.63928      -20.62466      -15.73550
       -1.42782       -1.42265       -1.41328       -1.38988       -1.36366
       -0.84970       -0.82113       -0.80489       -0.79597       -0.78592
       -0.77536       -0.72926       -0.66940       -0.66867       -0.65152
       -0.65054       -0.61026       -0.59992       -0.59653       -0.57069
        0.05491        0.09888        0.10632        0.11917        0.15890
        0.18206        0.18744        0.19846        0.21349        0.22476
        0.24119        0.26438        0.34226        0.36877        0.38974
        0.47943        0.48309        0.50391        0.50832        0.51574
        0.53381        0.56140        0.57731        0.62379        0.78277
        0.78964        0.80442        0.89043        0.91651        0.93230
        0.96052        0.97039        0.99535        1.01018        1.01521
        1.02101        1.05459        1.06934        1.09913        1.13301
        1.15047        1.18036        1.25477        1.28647        1.32515
        1.36885        1.39686        1.41126        1.42405        1.43873
        1.45423        1.48862        1.51363        1.53838        1.60766
        1.61291        1.62906        1.67121        1.67363        1.75564
        1.77003        1.78175        1.82789        1.86384        1.88462
        1.91985        1.97593        2.02918        2.09559        2.15209
        2.15738        2.17663        2.22637        2.23736        2.26910
        2.29754        2.30886        2.32112        2.33782        2.48136
        2.56784        2.57224        2.60199        2.62136        2.63554
        2.66103        2.68316        2.70031        2.73635        2.76079
        2.80635        2.92918        2.97819        3.11841        3.26152
        3.29587        3.32029        3.33942        3.37976        3.40503
        3.41312        3.42763        3.43383        3.44497        3.45804
        3.53042        3.55613        3.57058        3.61045        3.89164
        3.91595        3.94456        3.97225        4.08035        4.09391
        4.16186        4.16865        5.00381        5.11080        5.21787
        5.28431        5.30061        5.31993        5.32887        5.61624
        5.66941        5.72668        5.76764        5.93075        6.01616
        6.01922        6.05280       36.93443       51.41341       51.42808
       51.43619       51.44031
 Time used in FCKEIG, thr_jaco:   2.68D-01  2.70D-02  4.78D-07
 CPU and wall times used in FCKEIG, THR_FCKEIG:   2.69D-01  2.70D-02  1.12D-04
 -----------------------------------------------------------------------------

 *** DIIS iteration number    7
 RDSUPM called. NFMAT, ISYMDM(1:NFMAT)                     1
                     1

 ITDIIS, energy, error norm, change in energy, scr.thr., difden:
@ DIIS iter.   7    -361.187282201        2.31009D-03   -1.37D-05  -20    F

 (DIIS_RED) Control Parameters C2DIIS =         F NEVC =    7


 (DIIS_RED) B matrix:

               Column   1     Column   2     Column   3     Column   4     Column   5     Column   6
       1      16.54249822
       2       0.51415557     1.44033433
       3       0.86069399    -0.00446401     0.14231320
       4       0.06278805     0.07636573     0.00894950     0.00860227
       5       0.02448880     0.00753474     0.00616035     0.00086616     0.00099544
       6      -0.00479951    -0.00002879     0.00080180     0.00061654     0.00001634     0.00012525
       7       0.00010878     0.00025248    -0.00002018     0.00000757     0.00004990     0.00000126

               Column   7
       7       0.00000534
    ==== End of matrix output ====

 DIIS C vector; C2DIIS = F, LAMBDA = -1.31D-06
   -0.000233   -0.000791    0.005135    0.022271   -0.096506   -0.140740    1.210863
* Read MO coefficients from SIRIUS.RST with label "NEWORB  " and header info: 17Dec18  DIIS   7
      Virial theorem: -V/T =      2.002851
@      MULPOP N      -0.32; H       0.30; H       0.29; H       0.30; H       0.27; O      -0.68; O      -0.69; O      -0.69; O      -0.67; H       0.40; 
@             H       0.34; H       0.34; H       0.39; H       0.33; H       0.39; H       0.31; H       0.40; 

 DIIS Fock eigenvalues in symmetry 1
      -20.65718      -20.63983      -20.63920      -20.62417      -15.73506
       -1.42768       -1.42257       -1.41319       -1.38966       -1.36344
       -0.84951       -0.82096       -0.80473       -0.79588       -0.78590
       -0.77532       -0.72909       -0.66936       -0.66870       -0.65144
       -0.65056       -0.61008       -0.59979       -0.59639       -0.57043
        0.05497        0.09891        0.10635        0.11922        0.15894
        0.18210        0.18746        0.19850        0.21355        0.22483
        0.24124        0.26446        0.34238        0.36887        0.38985
        0.47949        0.48313        0.50396        0.50838        0.51578
        0.53384        0.56142        0.57737        0.62390        0.78291
        0.78979        0.80455        0.89051        0.91662        0.93238
        0.96062        0.97051        0.99546        1.01026        1.01527
        1.02108        1.05467        1.06942        1.09921        1.13312
        1.15059        1.18049        1.25487        1.28658        1.32527
        1.36897        1.39692        1.41129        1.42407        1.43875
        1.45422        1.48863        1.51367        1.53841        1.60771
        1.61297        1.62911        1.67131        1.67366        1.75574
        1.77004        1.78179        1.82798        1.86385        1.88464
        1.91997        1.97605        2.02929        2.09564        2.15211
        2.15741        2.17663        2.22642        2.23749        2.26911
        2.29760        2.30893        2.32120        2.33794        2.48144
        2.56794        2.57226        2.60204        2.62143        2.63563
        2.66106        2.68322        2.70031        2.73639        2.76077
        2.80635        2.92937        2.97839        3.11857        3.26173
        3.29610        3.32041        3.33953        3.37991        3.40513
        3.41333        3.42775        3.43393        3.44504        3.45826
        3.53055        3.55620        3.57080        3.61053        3.89185
        3.91601        3.94468        3.97231        4.08048        4.09399
        4.16201        4.16881        5.00409        5.11106        5.21813
        5.28456        5.30084        5.32003        5.32900        5.61632
        5.66958        5.72680        5.76789        5.93104        6.01632
        6.01929        6.05287       36.93485       51.41367       51.42817
       51.43632       51.44075
 Time used in FCKEIG, thr_jaco:   2.76D-01  2.80D-02  9.87D-08
 CPU and wall times used in FCKEIG, THR_FCKEIG:   2.76D-01  2.80D-02  2.31D-05
 -----------------------------------------------------------------------------

 *** DIIS iteration number    8
 RDSUPM called. NFMAT, ISYMDM(1:NFMAT)                     1
                     1

 ITDIIS, energy, error norm, change in energy, scr.thr., difden:
@ DIIS iter.   8    -361.187282788        3.88223D-04   -5.88D-07  -20    F

 (DIIS_RED) Control Parameters C2DIIS =         F NEVC =    8


 (DIIS_RED) B matrix:

               Column   1     Column   2     Column   3     Column   4     Column   5     Column   6
       1      16.54249822
       2       0.51415557     1.44033433
       3       0.86069399    -0.00446401     0.14231320
       4       0.06278805     0.07636573     0.00894950     0.00860227
       5       0.02448880     0.00753474     0.00616035     0.00086616     0.00099544
       6      -0.00479951    -0.00002879     0.00080180     0.00061654     0.00001634     0.00012525
       7       0.00010878     0.00025248    -0.00002018     0.00000757     0.00004990     0.00000126
       8       0.00013291    -0.00004292     0.00000917     0.00000200     0.00000048     0.00000167

               Column   7     Column   8
       7       0.00000534
       8       0.00000036     0.00000015
    ==== End of matrix output ====

 DIIS C vector; C2DIIS = F, LAMBDA = -9.64D-08
   -0.000009   -0.000045   -0.000398    0.001109    0.008897   -0.017588   -0.139902    1.147935
* Read MO coefficients from SIRIUS.RST with label "NEWORB  " and header info: 17Dec18  DIIS   8
      Virial theorem: -V/T =      2.002867
@      MULPOP N      -0.32; H       0.30; H       0.29; H       0.30; H       0.27; O      -0.68; O      -0.69; O      -0.69; O      -0.67; H       0.40; 
@             H       0.34; H       0.34; H       0.39; H       0.33; H       0.39; H       0.31; H       0.40; 

 DIIS Fock eigenvalues in symmetry 1
      -20.65715      -20.63976      -20.63912      -20.62427      -15.73508
       -1.42767       -1.42254       -1.41317       -1.38969       -1.36345
       -0.84951       -0.82096       -0.80474       -0.79587       -0.78587
       -0.77529       -0.72911       -0.66937       -0.66870       -0.65148
       -0.65056       -0.61007       -0.59976       -0.59636       -0.57046
        0.05497        0.09891        0.10635        0.11921        0.15894
        0.18210        0.18747        0.19850        0.21355        0.22483
        0.24124        0.26445        0.34237        0.36887        0.38985
        0.47949        0.48314        0.50396        0.50837        0.51578
        0.53384        0.56142        0.57736        0.62389        0.78290
        0.78978        0.80455        0.89051        0.91663        0.93238
        0.96062        0.97051        0.99546        1.01026        1.01528
        1.02109        1.05468        1.06942        1.09919        1.13311
        1.15059        1.18049        1.25487        1.28659        1.32527
        1.36895        1.39692        1.41129        1.42407        1.43875
        1.45423        1.48862        1.51367        1.53841        1.60771
        1.61297        1.62911        1.67130        1.67366        1.75573
        1.77004        1.78179        1.82798        1.86385        1.88464
        1.91997        1.97604        2.02929        2.09562        2.15211
        2.15741        2.17664        2.22642        2.23748        2.26911
        2.29758        2.30893        2.32120        2.33793        2.48143
        2.56793        2.57226        2.60204        2.62143        2.63562
        2.66105        2.68322        2.70030        2.73639        2.76078
        2.80634        2.92936        2.97838        3.11856        3.26172
        3.29608        3.32042        3.33954        3.37991        3.40514
        3.41330        3.42776        3.43394        3.44506        3.45823
        3.53055        3.55622        3.57077        3.61055        3.89181
        3.91603        3.94468        3.97233        4.08049        4.09402
        4.16200        4.16880        5.00407        5.11105        5.21812
        5.28453        5.30082        5.32006        5.32902        5.61635
        5.66959        5.72682        5.76785        5.93099        6.01633
        6.01933        6.05290       36.93483       51.41369       51.42824
       51.43637       51.44067
 Time used in FCKEIG, thr_jaco:   2.72D-01  2.80D-02  1.66D-08
 CPU and wall times used in FCKEIG, THR_FCKEIG:   2.73D-01  2.80D-02  3.88D-06
 -----------------------------------------------------------------------------

 *** DIIS iteration number    9
 RDSUPM called. NFMAT, ISYMDM(1:NFMAT)                     1
                     1

 ITDIIS, energy, error norm, change in energy, scr.thr., difden:
@ DIIS iter.   9    -361.187282806        1.45210D-04   -1.82D-08  -20    F

 (DIIS_RED) Control Parameters C2DIIS =         F NEVC =    8


 (DIIS_RED) B matrix:

[...]

 Principal values of diagonalized transition strength matrix:

             a.u.               
 1      -0.00000000
 2      -0.00000000
 3       0.00005692

 Principal axis of diagonalized transition strength matrix:


               Column   1     Column   2     Column   3
       1       0.90008700    -0.41475676     0.13349243
       2       0.43369475     0.82340343    -0.36594487
       3       0.04185998     0.38727719     0.92101255
    ==== End of matrix output ====


 CCSD   oscillator strength matrix for state nr. 13 of symmetry 1
 CCSD  excitation energy:15.22395124


               Column   1     Column   2     Column   3
       1     1.028909D-05  -2.822284D-05   7.102473D-05
       2    -2.822284D-05   7.735944D-05  -1.947020D-04
       3     7.102473D-05  -1.947020D-04   4.900270D-04
    ==== End of matrix output ====

 Principal values of diagonalized oscillator strength matrix:

             a.u.               
 1      -0.00000001
 2       0.00000000
 3       0.00057768

 Principal axis of diagonalized oscillator strength matrix:


               Column   1     Column   2     Column   3
       1       0.90008700    -0.41475676     0.13349243
       2       0.43369475     0.82340343    -0.36594487
       3       0.04185998     0.38727719     0.92101255
    ==== End of matrix output ====


 CCSD  Transition strength matrix for state nr. 14 of symmetry 1
 CCSD  excitation energy:15.23300317

 Gauge: length

               Column   1     Column   2     Column   3
       1     9.403603D-06   2.234130D-05   6.977396D-06
       2     2.234130D-05   5.307888D-05   1.657732D-05
       3     6.977396D-06   1.657732D-05   5.176421D-06
    ==== End of matrix output ====

 Principal values of diagonalized transition strength matrix:

             a.u.               
 1      -0.00000000
 2       0.00000000
 3       0.00006766

 Principal axis of diagonalized transition strength matrix:


               Column   1     Column   2     Column   3
       1       0.01032856     0.92785213     0.37280523
       2      -0.30205210    -0.35251409     0.88571911
       3       0.95323547    -0.12175480     0.27661872
    ==== End of matrix output ====


 CCSD   oscillator strength matrix for state nr. 14 of symmetry 1
 CCSD  excitation energy:15.23300317


               Column   1     Column   2     Column   3
       1     9.549674D-05   2.268834D-04   7.085779D-05
       2     2.268834D-04   5.390338D-04   1.683482D-04
       3     7.085779D-05   1.683482D-04   5.256829D-05
    ==== End of matrix output ====

 Principal values of diagonalized oscillator strength matrix:

             a.u.               
 1      -0.00000001
 2       0.00000000
 3       0.00068711

 Principal axis of diagonalized oscillator strength matrix:


               Column   1     Column   2     Column   3
       1       0.01032856     0.92785213     0.37280523
       2      -0.30205210    -0.35251409     0.88571911
       3       0.95323547    -0.12175480     0.27661872
    ==== End of matrix output ====


 CCSD  Transition strength matrix for state nr. 15 of symmetry 1
 CCSD  excitation energy:15.24691622

 Gauge: length

               Column   1     Column   2     Column   3
       1     2.272737D-04   1.490768D-04  -1.261617D-04
       2     1.490768D-04   9.778428D-05  -8.275457D-05
       3    -1.261617D-04  -8.275457D-05   7.003273D-05
    ==== End of matrix output ====

 Principal values of diagonalized transition strength matrix:

             a.u.               
 1      -0.00000000
 2       0.00000000
 3       0.00039509

 Principal axis of diagonalized transition strength matrix:


               Column   1     Column   2     Column   3
       1       0.02237228     0.65135018     0.75844738
       2       0.62574665    -0.60078477     0.49749250
       3       0.77970546     0.46346587    -0.42102112
    ==== End of matrix output ====


 CCSD   oscillator strength matrix for state nr. 15 of symmetry 1
 CCSD  excitation energy:15.24691622


               Column   1     Column   2     Column   3
       1       0.00231015     0.00151531    -0.00128238
       2       0.00151531     0.00099394    -0.00084117
       3      -0.00128238    -0.00084117     0.00071186
    ==== End of matrix output ====

 Principal values of diagonalized oscillator strength matrix:

             a.u.               
 1      -0.00000001
 2       0.00000000
 3       0.00401596

 Principal axis of diagonalized oscillator strength matrix:


               Column   1     Column   2     Column   3
       1       0.02237228     0.65135018     0.75844738
       2       0.62574665    -0.60078477     0.49749250
       3       0.77970546     0.46346587    -0.42102112
    ==== End of matrix output ====

  Total time for    135 linear response residues:     130.88 seconds.
  

 *******************************************************************************
 *******************************************************************************
 *                                                                             *
 *                                                                             *
 *                   SUMMARY OF COUPLED CLUSTER CALCULATION                    *
 *                                                                             *
 *                                                                             *
 *******************************************************************************
 *******************************************************************************

                                                                                
                                                                                
            Total SCF   energy:                  -361.1872828081                
            Total MP2   energy:                  -362.2898599715                
            Total CCSD  energy:                  -362.3312200806                
                                                                                
                                                                                
            Total SCF   energy:                  -361.1872828081                
            Total RSTAR energy:                  -362.3312200806                
            Total CCSD  energy:                  -362.3313634396                
                                                                                
                                                                                
            Total SCF   energy:                  -361.1872828081                
            Total RSTAR energy:                  -362.3313634396                
            Total CCSD  energy:                  -362.3313650184                
                                                                                
                                                                                
            Total SCF   energy:                  -361.1872828081                
            Total RSTAR energy:                  -362.3313650184                
            Total CCSD  energy:                  -362.3313651760                
                                                                                
                                                                                
            Total SCF   energy:                  -361.1872828081                
            Total RSTAR energy:                  -362.3313651760                
            Total CCSD  energy:                  -362.3313651829                
                                                                                
                                                                                
            Total SCF   energy:                  -361.1872828081                
            Total RSTAR energy:                  -362.3313651829                
            Total CCSD  energy:                  -362.3313651833                
            CCSD Total  energy:                  -362.7449587008                
            CCSD E(QM/MM)     :                    -0.4086337278                
                                                                                
                                                                                
                                                                                
 +=============================================================================+
 |  sym. | Exci.  |        CCSD       Excitation energies            | ||T1||  |
 |(spin, |        +------------------------------------------------------------+
 | spat) |        |     Hartree    |       eV.      |     cm-1       |    %    |
 +=============================================================================+
 | ^1A   |    1   |    14.9367603  |     406.44992  |   3278239.930  |  88.80  |
 | ^1A   |    2   |    14.9910419  |     407.92700  |   3290153.357  |  89.17  |
 | ^1A   |    3   |    15.0077227  |     408.38091  |   3293814.385  |  89.21  |
 | ^1A   |    4   |    15.0206129  |     408.73167  |   3296643.454  |  89.16  |
 | ^1A   |    5   |    15.0871614  |     410.54254  |   3311249.149  |  88.32  |
 | ^1A   |    6   |    15.0915480  |     410.66191  |   3312211.910  |  88.16  |
 | ^1A   |    7   |    15.1037826  |     410.99483  |   3314897.094  |  88.24  |
 | ^1A   |    8   |    15.1379253  |     411.92390  |   3322390.534  |  88.18  |
 | ^1A   |    9   |    15.1530019  |     412.33416  |   3325699.477  |  88.32  |
 | ^1A   |   10   |    15.1560732  |     412.41773  |   3326373.540  |  88.28  |
 | ^1A   |   11   |    15.2015125  |     413.65420  |   3336346.312  |  88.16  |
 | ^1A   |   12   |    15.2085585  |     413.84593  |   3337892.738  |  88.25  |
 | ^1A   |   13   |    15.2239512  |     414.26479  |   3341271.055  |  88.20  |
 | ^1A   |   14   |    15.2330032  |     414.51110  |   3343257.725  |  87.96  |
 | ^1A   |   15   |    15.2469162  |     414.88970  |   3346311.287  |  88.39  |
 +=============================================================================+
                                                                                
                                                                                
     Total energies in Hartree:                                                 
             1 ^1A       -347.3995646729                                        
             2 ^1A       -347.3452831059                                        
             3 ^1A       -347.3286022362                                        
             4 ^1A       -347.3157120494                                        
             5 ^1A       -347.2491636037                                        
             6 ^1A       -347.2447769428                                        
             7 ^1A       -347.2325423445                                        
             8 ^1A       -347.1983997195                                        
             9 ^1A       -347.1833230667                                        
            10 ^1A       -347.1802518067                                        
            11 ^1A       -347.1348125179                                        
            12 ^1A       -347.1277664786                                        
            13 ^1A       -347.1123737341                                        
            14 ^1A       -347.1033218005                                        
            15 ^1A       -347.0894087491                                        
                                                                                
                                                                                
 +=============================================================================+
 |  sym. | Exci.  |        CCSD       Length   Gauge Oscillator Strength       |
 |(spin, |        +------------------------------------------------------------+
 | spat) |        | Dipole Strength(a.u.) | Oscillator strength  | Direction   |
 +=============================================================================+
 | ^1A   |    1   |        0.0001444      |      0.0014376       |  (Y,Z)      |
 | ^1A   |    2   |        0.0038735      |      0.0387119       |  (Y,Z)      |
 | ^1A   |    3   |        0.0039910      |      0.0399308       |  (Y,Z)      |
 | ^1A   |    4   |        0.0038433      |      0.0384858       |  (Y,Z)      |
 | ^1A   |    5   |        0.0000268      |      0.0002691       |  (Y,Z)      |
 | ^1A   |    6   |        0.0001744      |      0.0017543       |  (Y,Z)      |
 | ^1A   |    7   |        0.0000781      |      0.0007867       |  (Y,Z)      |
 | ^1A   |    8   |        0.0001036      |      0.0010458       |  (Y,Z)      |
 | ^1A   |    9   |        0.0004803      |      0.0048521       |  (Y,Z)      |
 | ^1A   |   10   |        0.0002179      |      0.0022015       |  (Y,Z)      |
 | ^1A   |   11   |        0.0001476      |      0.0014957       |  (Y,Z)      |
 | ^1A   |   12   |        0.0002942      |      0.0029829       |  (Y,Z)      |
 | ^1A   |   13   |        0.0000569      |      0.0005777       |  (Y,Z)      |
 | ^1A   |   14   |        0.0000677      |      0.0006871       |  (Y,Z)      |
 | ^1A   |   15   |        0.0003951      |      0.0040159       |  (Y,Z)      |
 +=============================================================================+

  1 a.u. =        27.21138 eV.  
  1 a.u. =    219474.62934 cm-1.
  

 *******************************************************************************
 *******************************************************************************
 *                                                                             *
 *                                                                             *
 *                      END OF COUPLED CLUSTER CALCULATION                     *
 *                                                                             *
 *                                                                             *
 *******************************************************************************
 *******************************************************************************


 CPU and wall time for CC :  537649.433   60295.709

 
     Date and time (Linux)  : Mon Dec 17 18:31:12 2018
     Host name              : n-62-23-28                              


                      .-------------------------------------.
                      | End of Coupled Cluster Section (CC) |
                      `-------------------------------------'

  Total CPU  time used in DALTON: 149 hours 35 minutes 59 seconds
  Total wall time used in DALTON:  16 hours 47 minutes 52 seconds

 
     Date and time (Linux)  : Mon Dec 17 18:31:12 2018
     Host name              : n-62-23-28                              
  

 +---------------------------------------------------------+ 
 | List of selected calculated molecular properties (a.u.) | 
 +---------------------------------------------------------+ 

  Properties are read from unit number                      4

 CCSD       properties :
 #  1 1 CCSD/MM  Ground state Energy =    -362.7449587008
 #  2 1 E_QM/MM  Ground state Energy =      -0.4086337278
 #  3 1 Sy: 1 Sp: 1 Exc:  1 E_tot:   -347.3995646729 w:     14.9367603001 E_grs:   -362.3363249730
 #  4 1 Exctot   Excited state Energy =    -347.3995646729
 #  5 1 Sy: 1 Sp: 1 Exc:  2 E_tot:   -347.3452831059 w:     14.9910418672 E_grs:   -362.3363249730
 #  6 1 Exctot   Excited state Energy =    -347.3452831059
 #  7 1 Sy: 1 Sp: 1 Exc:  3 E_tot:   -347.3286022362 w:     15.0077227368 E_grs:   -362.3363249730
 #  8 1 Exctot   Excited state Energy =    -347.3286022362
 #  9 1 Sy: 1 Sp: 1 Exc:  4 E_tot:   -347.3157120494 w:     15.0206129236 E_grs:   -362.3363249730
 # 10 1 Exctot   Excited state Energy =    -347.3157120494
 # 11 1 Sy: 1 Sp: 1 Exc:  5 E_tot:   -347.2491636037 w:     15.0871613693 E_grs:   -362.3363249730
 # 12 1 Exctot   Excited state Energy =    -347.2491636037
 # 13 1 Sy: 1 Sp: 1 Exc:  6 E_tot:   -347.2447769428 w:     15.0915480302 E_grs:   -362.3363249730
 # 14 1 Exctot   Excited state Energy =    -347.2447769428
 # 15 1 Sy: 1 Sp: 1 Exc:  7 E_tot:   -347.2325423445 w:     15.1037826285 E_grs:   -362.3363249730
 # 16 1 Exctot   Excited state Energy =    -347.2325423445
 # 17 1 Sy: 1 Sp: 1 Exc:  8 E_tot:   -347.1983997195 w:     15.1379252535 E_grs:   -362.3363249730
 # 18 1 Exctot   Excited state Energy =    -347.1983997195
 # 19 1 Sy: 1 Sp: 1 Exc:  9 E_tot:   -347.1833230667 w:     15.1530019063 E_grs:   -362.3363249730
 # 20 1 Exctot   Excited state Energy =    -347.1833230667
 # 21 1 Sy: 1 Sp: 1 Exc: 10 E_tot:   -347.1802518067 w:     15.1560731663 E_grs:   -362.3363249730
 # 22 1 Exctot   Excited state Energy =    -347.1802518067
 # 23 1 Sy: 1 Sp: 1 Exc: 11 E_tot:   -347.1348125179 w:     15.2015124551 E_grs:   -362.3363249730
 # 24 1 Exctot   Excited state Energy =    -347.1348125179
 # 25 1 Sy: 1 Sp: 1 Exc: 12 E_tot:   -347.1277664786 w:     15.2085584944 E_grs:   -362.3363249730
 # 26 1 Exctot   Excited state Energy =    -347.1277664786
 # 27 1 Sy: 1 Sp: 1 Exc: 13 E_tot:   -347.1123737341 w:     15.2239512389 E_grs:   -362.3363249730
 # 28 1 Exctot   Excited state Energy =    -347.1123737341
 # 29 1 Sy: 1 Sp: 1 Exc: 14 E_tot:   -347.1033218005 w:     15.2330031725 E_grs:   -362.3363249730
 # 30 1 Exctot   Excited state Energy =    -347.1033218005
 # 31 1 Sy: 1 Sp: 1 Exc: 15 E_tot:   -347.0894087491 w:     15.2469162239 E_grs:   -362.3363249730
 # 32 1 Exctot   Excited state Energy =    -347.0894087491
 # 33 1 |<O|XDIPLEN |i(14.936760)>| =     0.00221821
 # 35 1 |<O|XDIPLEN |i(14.991042)>| =     0.02793470
 # 37 1 |<O|XDIPLEN |i(15.007723)>| =     0.04889757
 # 39 1 |<O|XDIPLEN |i(15.020613)>| =     0.02291493
 # 41 1 |<O|XDIPLEN |i(15.087161)>| =     0.00395004
 # 43 1 |<O|XDIPLEN |i(15.091548)>| =     0.01076425
 # 45 1 |<O|XDIPLEN |i(15.103783)>| =     0.00010630
 # 47 1 |<O|XDIPLEN |i(15.137925)>| =     0.00816248
 # 49 1 |<O|XDIPLEN |i(15.153002)>| =     0.01414671
 # 51 1 |<O|XDIPLEN |i(15.156073)>| =     0.00234842
 # 53 1 |<O|XDIPLEN |i(15.201512)>| =     0.01151123
 # 55 1 |<O|XDIPLEN |i(15.208558)>| =     0.00650149
 # 57 1 |<O|XDIPLEN |i(15.223951)>| =     0.00100686
 # 59 1 |<O|XDIPLEN |i(15.233003)>| =     0.00306653
 # 61 1 |<O|XDIPLEN |i(15.246916)>| =     0.01507560
 # 63 1 |<O|YDIPLEN |i(14.936760)>| =     0.00166762
 # 65 1 |<O|YDIPLEN |i(14.991042)>| =     0.02527336
 # 67 1 |<O|YDIPLEN |i(15.007723)>| =     0.03760943
 # 69 1 |<O|YDIPLEN |i(15.020613)>| =     0.04468125
 # 71 1 |<O|YDIPLEN |i(15.087161)>| =     0.00333577
 # 73 1 |<O|YDIPLEN |i(15.091548)>| =     0.00639661
 # 75 1 |<O|YDIPLEN |i(15.103783)>| =     0.00109713
 # 77 1 |<O|YDIPLEN |i(15.137925)>| =     0.00582434
 # 79 1 |<O|YDIPLEN |i(15.153002)>| =     0.00906635
 # 81 1 |<O|YDIPLEN |i(15.156073)>| =     0.01296005
 # 83 1 |<O|YDIPLEN |i(15.201512)>| =     0.00384251
 # 85 1 |<O|YDIPLEN |i(15.208558)>| =     0.00806384
 # 87 1 |<O|YDIPLEN |i(15.223951)>| =     0.00276082
 # 89 1 |<O|YDIPLEN |i(15.233003)>| =     0.00728553
 # 91 1 |<O|YDIPLEN |i(15.246916)>| =     0.00988859
 # 93 1 |<O|ZDIPLEN |i(14.936760)>| =     0.01169061
 # 95 1 |<O|ZDIPLEN |i(14.991042)>| =     0.04954203
 # 97 1 |<O|ZDIPLEN |i(15.007723)>| =     0.01362287
 # 99 1 |<O|ZDIPLEN |i(15.020613)>| =     0.03635644
 #101 1 |<O|ZDIPLEN |i(15.087161)>| =     0.00016854
 #103 1 |<O|ZDIPLEN |i(15.091548)>| =     0.00419308
 #105 1 |<O|ZDIPLEN |i(15.103783)>| =     0.00877021
 #107 1 |<O|ZDIPLEN |i(15.137925)>| =     0.00175470
 #109 1 |<O|ZDIPLEN |i(15.153002)>| =     0.01407056
 #111 1 |<O|ZDIPLEN |i(15.156073)>| =     0.00666353
 #113 1 |<O|ZDIPLEN |i(15.201512)>| =     0.00055743
 #115 1 |<O|ZDIPLEN |i(15.208558)>| =     0.01367128
 #117 1 |<O|ZDIPLEN |i(15.223951)>| =     0.00694851
 #119 1 |<O|ZDIPLEN |i(15.233003)>| =     0.00227517
 #121 1 |<O|ZDIPLEN |i(15.246916)>| =     0.00836856

 THE_END   
