

     ************************************************************************
     *************** Dalton - An Electronic Structure Program ***************
     ************************************************************************

    This is output from DALTON release Dalton2017.alpha (2016)
         ( Web site: http://daltonprogram.org )

   ----------------------------------------------------------------------------

    NOTE:
     
    Dalton is an experimental code for the evaluation of molecular
    properties using (MC)SCF, DFT, CI, and CC wave functions.
    The authors accept no responsibility for the performance of
    the code or for the correctness of the results.
     
    The code (in whole or part) is provided under a licence and
    is not to be reproduced for further distribution without
    the written permission of the authors or their representatives.
     
    See the home page "http://daltonprogram.org" for further information.
     
    If results obtained with this code are published,
    the appropriate citations would be both of:
     
       K. Aidas, C. Angeli, K. L. Bak, V. Bakken, R. Bast,
       L. Boman, O. Christiansen, R. Cimiraglia, S. Coriani,
       P. Dahle, E. K. Dalskov, U. Ekstroem,
       T. Enevoldsen, J. J. Eriksen, P. Ettenhuber, B. Fernandez,
       L. Ferrighi, H. Fliegl, L. Frediani, K. Hald, A. Halkier,
       C. Haettig, H. Heiberg, T. Helgaker, A. C. Hennum,
       H. Hettema, E. Hjertenaes, S. Hoest, I.-M. Hoeyvik,
       M. F. Iozzi, B. Jansik, H. J. Aa. Jensen, D. Jonsson,
       P. Joergensen, J. Kauczor, S. Kirpekar,
       T. Kjaergaard, W. Klopper, S. Knecht, R. Kobayashi, H. Koch,
       J. Kongsted, A. Krapp, K. Kristensen, A. Ligabue,
       O. B. Lutnaes, J. I. Melo, K. V. Mikkelsen, R. H. Myhre,
       C. Neiss, C. B. Nielsen, P. Norman, J. Olsen,
       J. M. H. Olsen, A. Osted, M. J. Packer, F. Pawlowski,
       T. B. Pedersen, P. F. Provasi, S. Reine, Z. Rinkevicius,
       T. A. Ruden, K. Ruud, V. Rybkin, P. Salek, C. C. M. Samson,
       A. Sanchez de Meras, T. Saue, S. P. A. Sauer,
       B. Schimmelpfennig, K. Sneskov, A. H. Steindal,
       K. O. Sylvester-Hvid, P. R. Taylor, A. M. Teale,
       E. I. Tellgren, D. P. Tew, A. J. Thorvaldsen, L. Thoegersen,
       O. Vahtras, M. A. Watson, D. J. D. Wilson, M. Ziolkowski
       and H. Agren,
       "The Dalton quantum chemistry program system",
       WIREs Comput. Mol. Sci. 2014, 4:269–284 (doi: 10.1002/wcms.1172)
     
    and
     
       Dalton, a Molecular Electronic Structure Program,
       Release Dalton2017.alpha (2016), see http://daltonprogram.org
   ----------------------------------------------------------------------------

    Authors in alphabetical order (major contribution(s) in parenthesis):

  Kestutis Aidas,           Vilnius University,           Lithuania   (QM/MM)
  Celestino Angeli,         University of Ferrara,        Italy       (NEVPT2)
  Keld L. Bak,              UNI-C,                        Denmark     (AOSOPPA, non-adiabatic coupling, magnetic properties)
  Vebjoern Bakken,          University of Oslo,           Norway      (DALTON; geometry optimizer, symmetry detection)
  Radovan Bast,             UiT The Arctic U. of Norway,  Norway      (DALTON installation and execution frameworks)
  Pablo Baudin,             University of Valencia,       Spain       (Cholesky excitation energies)
  Linus Boman,              NTNU,                         Norway      (Cholesky decomposition and subsystems)
  Ove Christiansen,         Aarhus University,            Denmark     (CC module)
  Renzo Cimiraglia,         University of Ferrara,        Italy       (NEVPT2)
  Sonia Coriani,            University of Trieste,        Italy       (CC module, MCD in RESPONS)
  Janusz Cukras,            University of Trieste,        Italy       (MChD in RESPONS)
  Paal Dahle,               University of Oslo,           Norway      (Parallelization)
  Erik K. Dalskov,          UNI-C,                        Denmark     (SOPPA)
  Thomas Enevoldsen,        Univ. of Southern Denmark,    Denmark     (SOPPA)
  Janus J. Eriksen,         Aarhus University,            Denmark     (Polarizable embedding model, TDA)
  Rasmus Faber,             University of Copenhagen,     Denmark     (Vib.avg. NMR with SOPPA, parallel AO-SOPPA)
  Berta Fernandez,          U. of Santiago de Compostela, Spain       (doublet spin, ESR in RESPONS)
  Lara Ferrighi,            Aarhus University,            Denmark     (PCM Cubic response)
  Heike Fliegl,             University of Oslo,           Norway      (CCSD(R12))
  Luca Frediani,            UiT The Arctic U. of Norway,  Norway      (PCM)
  Bin Gao,                  UiT The Arctic U. of Norway,  Norway      (Gen1Int library)
  Christof Haettig,         Ruhr-University Bochum,       Germany     (CC module)
  Kasper Hald,              Aarhus University,            Denmark     (CC module)
  Asger Halkier,            Aarhus University,            Denmark     (CC module)
  Frederik Beyer Hansen,    University of Copenhagen,     Denmark     (Parallel AO-SOPPA)
  Erik D. Hedegaard,        Univ. of Southern Denmark,    Denmark     (Polarizable embedding model, QM/MM)
  Hanne Heiberg,            University of Oslo,           Norway      (geometry analysis, selected one-electron integrals)
  Trygve Helgaker,          University of Oslo,           Norway      (DALTON; ABACUS, ERI, DFT modules, London, and much more)
  Alf Christian Hennum,     University of Oslo,           Norway      (Parity violation)
  Hinne Hettema,            University of Auckland,       New Zealand (quadratic response in RESPONS; SIRIUS supersymmetry)
  Eirik Hjertenaes,         NTNU,                         Norway      (Cholesky decomposition)
  Pi A. B. Haase,           University of Copenhagen,     Denmark     (Triplet AO-SOPPA)
  Maria Francesca Iozzi,    University of Oslo,           Norway      (RPA)
  Brano Jansik              Technical Univ. of Ostrava    Czech Rep.  (DFT cubic response)
  Hans Joergen Aa. Jensen,  Univ. of Southern Denmark,    Denmark     (DALTON; SIRIUS, RESPONS, ABACUS modules, London, and much more)
  Dan Jonsson,              UiT The Arctic U. of Norway,  Norway      (cubic response in RESPONS module)
  Poul Joergensen,          Aarhus University,            Denmark     (RESPONS, ABACUS, and CC modules)
  Maciej Kaminski,          University of Warsaw,         Poland      (CPPh in RESPONS)
  Joanna Kauczor,           Linkoeping University,        Sweden      (Complex polarization propagator (CPP) module)
  Sheela Kirpekar,          Univ. of Southern Denmark,    Denmark     (Mass-velocity & Darwin integrals)
  Wim Klopper,              KIT Karlsruhe,                Germany     (R12 code in CC, SIRIUS, and ABACUS modules)
  Stefan Knecht,            ETH Zurich,                   Switzerland (Parallel CI and MCSCF)
  Rika Kobayashi,           Australian National Univ.,    Australia   (DIIS in CC, London in MCSCF)
  Henrik Koch,              NTNU,                         Norway      (CC module, Cholesky decomposition)
  Jacob Kongsted,           Univ. of Southern Denmark,    Denmark     (Polarizable embedding model, QM/MM)
  Andrea Ligabue,           University of Modena,         Italy       (CTOCD, AOSOPPA)
  Nanna H. List             Univ. of Southern Denmark,    Denmark     (Polarizable embedding model)
  Ola B. Lutnaes,           University of Oslo,           Norway      (DFT Hessian)
  Juan I. Melo,             University of Buenos Aires,   Argentina   (LRESC, Relativistic Effects on NMR Shieldings)
  Kurt V. Mikkelsen,        University of Copenhagen,     Denmark     (MC-SCRF and QM/MM)
  Rolf H. Myhre,            NTNU,                         Norway      (Cholesky, subsystems and ECC2)
  Christian Neiss,          Univ. Erlangen-Nuernberg,     Germany     (CCSD(R12))
  Christian B. Nielsen,     University of Copenhagen,     Denmark     (QM/MM)
  Patrick Norman,           Linkoeping University,        Sweden      (Cubic response and complex frequency response in RESPONS)
  Jeppe Olsen,              Aarhus University,            Denmark     (SIRIUS CI/density modules)
  Jogvan Magnus H. Olsen,   Univ. of Southern Denmark,    Denmark     (Polarizable embedding model, QM/MM)
  Anders Osted,             Copenhagen University,        Denmark     (QM/MM)
  Martin J. Packer,         University of Sheffield,      UK          (SOPPA)
  Filip Pawlowski,          Kazimierz Wielki University,  Poland      (CC3)
  Morten N. Pedersen,       Univ. of Southern Denmark,    Denmark     (Polarizable embedding model)
  Thomas B. Pedersen,       University of Oslo,           Norway      (Cholesky decomposition)
  Patricio F. Provasi,      University of Northeastern,   Argentina   (Analysis of coupling constants in localized orbitals)
  Zilvinas Rinkevicius,     KTH Stockholm,                Sweden      (open-shell DFT, ESR)
  Elias Rudberg,            KTH Stockholm,                Sweden      (DFT grid and basis info)
  Torgeir A. Ruden,         University of Oslo,           Norway      (Numerical derivatives in ABACUS)
  Kenneth Ruud,             UiT The Arctic U. of Norway,  Norway      (DALTON; ABACUS magnetic properties and much more)
  Pawel Salek,              KTH Stockholm,                Sweden      (DALTON; DFT code)
  Claire C. M. Samson       University of Karlsruhe       Germany     (Boys localization, r12 integrals in ERI)
  Alfredo Sanchez de Meras, University of Valencia,       Spain       (CC module, Cholesky decomposition)
  Trond Saue,               Paul Sabatier University,     France      (direct Fock matrix construction)
  Stephan P. A. Sauer,      University of Copenhagen,     Denmark     (SOPPA(CCSD), SOPPA prop., AOSOPPA, vibrational g-factors)
  Bernd Schimmelpfennig,    Forschungszentrum Karlsruhe,  Germany     (AMFI module)
  Kristian Sneskov,         Aarhus University,            Denmark     (Polarizable embedding model, QM/MM)
  Arnfinn H. Steindal,      UiT The Arctic U. of Norway,  Norway      (parallel QM/MM, Polarizable embedding model)
  Casper Steinmann,         Univ. of Southern Denmark,    Denmark     (QFIT, Polarizable embedding model)
  K. O. Sylvester-Hvid,     University of Copenhagen,     Denmark     (MC-SCRF)
  Peter R. Taylor,          VLSCI/Univ. of Melbourne,     Australia   (Symmetry handling ABACUS, integral transformation)
  Andrew M. Teale,          University of Nottingham,     England     (DFT-AC, DFT-D)
  David P. Tew,             University of Bristol,        England     (CCSD(R12))
  Olav Vahtras,             KTH Stockholm,                Sweden      (triplet response, spin-orbit, ESR, TDDFT, open-shell DFT)
  David J. Wilson,          La Trobe University,          Australia   (DFT Hessian and DFT magnetizabilities)
  Hans Agren,               KTH Stockholm,                Sweden      (SIRIUS module, RESPONS, MC-SCRF solvation model)
 --------------------------------------------------------------------------------

     Date and time (Linux)  : Sun Dec  2 21:47:01 2018
     Host name              : n-62-23-14                              

 * Work memory size             :  1280000000 =  9.537 gigabytes.

 * Directories for basis set searches:
   1) /zhome/37/3/129401/NH3NH4/CCSD/AIMD_SAMPLING/nh4_4h2o_nd
   2) /zhome/9a/4/124800/source/dalton/build-mlcc/basis


Compilation information
-----------------------

 Who compiled             | rfaber
 Host                     | hpclogin1
 System                   | Linux-2.6.32-696.1.1.el6.x86_64
 CMake generator          | Unix Makefiles
 Processor                | x86_64
 64-bit integers          | ON
 MPI                      | OFF
 Fortran compiler         | /opt/intel/2016update2/compilers_and_libraries_201
                          | 6.2.181/linux/bin/intel64/ifort
 Fortran compiler version | ifort (IFORT) 16.0.2 20160204
 C compiler               | /opt/intel/2016update2/compilers_and_libraries_201
                          | 6.2.181/linux/bin/intel64/icc
 C compiler version       | icc (ICC) 16.0.2 20160204
 C++ compiler             | /opt/intel/2016update2/compilers_and_libraries_201
                          | 6.2.181/linux/bin/intel64/icpc
 C++ compiler version     | icpc (ICC) 16.0.2 20160204
 Static linking           | OFF
 Last Git revision        | bb4d1599ca5680a9f3980451fc8bbefdba436d59
 Git branch               | mlcc
 Configuration time       | 2017-06-13 16:11:03.928841


   Content of the .dal input file
 ----------------------------------

**DALTON
.RUN WAVE FUNCTIONS
*QMMM
.QMMM
**INTEGRALS
.DIPLEN
**WAVE FUNCTIONS
.CC
*PRINT
!To check the origin of excit
.PRINTL
   0 11
*SCF INP
.THRESH
1.0D-7
*CC INP
.CCSD
.THRLEQ
 1.0D-9
.THRENR
 1.0D-10
.FROIMP
4
0
.PRINT
 1
.MAX IT
 1200
.MAXRED
 1200
.MXLRV
1199
*CCSLV
.CCMM
.MXSLIT
200
.MXINIT
4 5
*CCEXCI
.NCCEXC
 15
.CVSEPARA
1
1
*CCLRSD
.DIPOLE
**END OF DALTON INPUT


   Content of the .mol file
 ----------------------------

ATOMBASIS


Atomtypes=4 Charge=1 Nosymm Angstrom
   7.00000    1    Basis=6-311G**
N          0.000000        0.000000        0.000000
   1.00000    4    Basis=6-311G**
H          0.193569        0.966699       -0.197279
H          0.825905       -0.533893       -0.355310
H         -0.894997       -0.296532       -0.550734
H         -0.165371       -0.067443        1.034469
   8.00000    4    Basis=6-311G**
O          0.099385        0.054864        2.881349
O         -2.293323       -0.740235       -1.364561
O          0.366025        2.476832       -1.741056
O          1.290647       -1.947800       -1.954509
   1.00000    8    Basis=6-311G**
H          0.904144        0.590817        2.747084
H         -0.512446        0.510737        3.497692
H         -2.157713       -0.490514       -2.342445
H         -3.054422       -1.369127       -1.362118
H          0.936082        2.893067       -1.130877
H          1.084102        2.076540       -2.266102
H          1.352485       -2.694669       -1.330109
H          2.149912       -1.515914       -1.978359


       *******************************************************************
       *********** Output from DALTON general input processing ***********
       *******************************************************************

 --------------------------------------------------------------------------------
   Overall default print level:    0
   Print level for DALTON.STAT:    1

    HERMIT 1- and 2-electron integral sections will be executed
    "Old" integral transformation used (limited to max 255 basis functions)
    Wave function sections will be executed (SIRIUS module)
 --------------------------------------------------------------------------------


 Changes of defaults for *QMMM  :
 --------------------------------

 +------------------+
 |  WORD: | CHANGE: |
 +------------------+
 |   QMMM |       T |
 +------------------+
 


   ****************************************************************************
   *************** Output of molecule and basis set information ***************
   ****************************************************************************


    The two title cards from your ".mol" input:
    ------------------------------------------------------------------------
 1:                                                                         
 2:                                                                         
    ------------------------------------------------------------------------

  Coordinates are entered in Angstrom and converted to atomic units.
          - Conversion factor : 1 bohr = 0.52917721 A

  Atomic type no.    1
  --------------------
  Nuclear charge:   7.00000
  Number of symmetry independent centers:    1
  Number of basis sets to read;    2
  The basis set is "6-311G**" from the basis set library.
  Basis set file used for this atomic type with Z =   7 :
     "/zhome/9a/4/124800/source/dalton/build-mlcc/basis/6-311G**"

  Info about the basis set file: your basis has no documentation.
  Basis set: 6-311G**                                                                        

  Atomic type no.    2
  --------------------
  Nuclear charge:   1.00000
  Number of symmetry independent centers:    4
  Number of basis sets to read;    2
  The basis set is "6-311G**" from the basis set library.
  Basis set file used for this atomic type with Z =   1 :
     "/zhome/9a/4/124800/source/dalton/build-mlcc/basis/6-311G**"

  Info about the basis set file: your basis has no documentation.
  Basis set: 6-311G**                                                                        

  Atomic type no.    3
  --------------------
  Nuclear charge:   8.00000
  Number of symmetry independent centers:    4
  Number of basis sets to read;    2
  The basis set is "6-311G**" from the basis set library.
  Basis set file used for this atomic type with Z =   8 :
     "/zhome/9a/4/124800/source/dalton/build-mlcc/basis/6-311G**"

  Info about the basis set file: your basis has no documentation.
  Basis set: 6-311G**                                                                        

  Atomic type no.    4
  --------------------
  Nuclear charge:   1.00000
  Number of symmetry independent centers:    8
  Number of basis sets to read;    2
  The basis set is "6-311G**" from the basis set library.
  Basis set file used for this atomic type with Z =   1 :
     "/zhome/9a/4/124800/source/dalton/build-mlcc/basis/6-311G**"

  Info about the basis set file: your basis has no documentation.
  Basis set: 6-311G**                                                                        


                         SYMGRP: Point group information
                         -------------------------------

@    Point group: C1 


                                 Isotopic Masses
                                 ---------------

                           N          14.003074
                           H           1.007825
                           H           1.007825
                           H           1.007825
                           H           1.007825
                           O          15.994915
                           O          15.994915
                           O          15.994915
                           O          15.994915
                           H           1.007825
                           H           1.007825
                           H           1.007825
                           H           1.007825
                           H           1.007825
                           H           1.007825
                           H           1.007825
                           H           1.007825

                       Total mass:    90.076634 amu
                       Natural abundance:  98.500 %

 Center-of-mass coordinates (a.u.):   -0.166303   -0.050986   -0.820630


  Atoms and basis sets
  --------------------

  Number of atom types :    4
  Total number of atoms:   17

  label    atoms   charge   prim   cont     basis
  ----------------------------------------------------------------------
  N           1    7.0000    31    18      [11s5p1d|4s3p1d]                                   
  H           4    1.0000     8     6      [5s1p|3s1p]                                        
  O           4    8.0000    31    18      [11s5p1d|4s3p1d]                                   
  H           8    1.0000     8     6      [5s1p|3s1p]                                        
  ----------------------------------------------------------------------
  total:     17   51.0000   251   162
  ----------------------------------------------------------------------
  Spherical harmonic basis used.

  Threshold for neglecting AO integrals:  1.00D-12


  Cartesian Coordinates (a.u.)
  ----------------------------

  Total number of coordinates:   51
  N       :     1  x   0.0000000000    2  y   0.0000000000    3  z   0.0000000000
  H       :     4  x   0.3657923963    5  y   1.8267963553    6  z  -0.3728032802
  H       :     7  x   1.5607342553    8  y  -1.0089115501    9  z  -0.6714385895
  H       :    10  x  -1.6912992127   11  y  -0.5603642673   12  z  -1.0407364277
  H       :    13  x  -0.3125058990   14  y  -0.1274487990   15  z   1.9548630948
  O       :    16  x   0.1878104309   17  y   0.1036779341   18  z   5.4449604805
  O       :    19  x  -4.3337523861   20  y  -1.3988414181   21  z  -2.5786465708
  O       :    22  x   0.6916870049   23  y   4.6805341376   24  z  -3.2901190083
  O       :    25  x   2.4389693540   26  y  -3.6808085463   27  z  -3.6934867188
  H       :    28  x   1.7085845376   29  y   1.1164823200   30  z   5.1912364024
  H       :    31  x  -0.9683825938   32  y   0.9651530519   33  z   6.6096799496
  H       :    34  x  -4.0774866263   35  y  -0.9269371205   36  z  -4.4265795129
  H       :    37  x  -5.7720210502   38  y  -2.5872750603   39  z  -2.5740299699
  H       :    40  x   1.7689386105   41  y   5.4671042913   42  z  -2.1370478111
  H       :    43  x   2.0486558716   44  y   3.9240918876   45  z  -4.2823121513
  H       :    46  x   2.5558262382   47  y  -5.0921864075   48  z  -2.5135417264
  H       :    49  x   4.0627448728   50  y  -2.8646622890   51  z  -3.7385566869

  Max    interatomic separation is    6.4174 Angstrom (   12.1271 Bohr)
  between atoms   17 and   11, "H     " and "H     ".

  Min HX interatomic separation is    0.9330 Angstrom (    1.7632 Bohr)

  Min YX interatomic separation is    2.7694 Angstrom (    5.2333 Bohr)


  Bond distances (Angstrom):
  --------------------------

                  atom 1     atom 2       distance
                  ------     ------       --------
  bond distance:  H          N            1.005433
  bond distance:  H          N            1.045661
  bond distance:  H          N            1.091906
  bond distance:  H          N            1.049772
  bond distance:  H          O            0.976171
  bond distance:  H          O            0.980834
  bond distance:  H          O            1.018336
  bond distance:  H          O            0.987311
  bond distance:  H          O            0.933025
  bond distance:  H          O            0.975470
  bond distance:  H          O            0.975455
  bond distance:  H          O            0.961993


  Bond angles (degrees):
  ----------------------

                  atom 1     atom 2     atom 3         angle
                  ------     ------     ------         -----
  bond angle:     H          N          H            105.794
  bond angle:     H          N          H            108.660
  bond angle:     H          N          H            106.586
  bond angle:     H          N          H            109.716
  bond angle:     H          N          H            115.243
  bond angle:     H          N          H            110.515
  bond angle:     H          O          H            110.212
  bond angle:     H          O          H            105.143
  bond angle:     H          O          H             94.894
  bond angle:     H          O          H            107.637




 Principal moments of inertia (u*A**2) and principal axes
 --------------------------------------------------------

   IA     329.628758          0.010356    0.140107    0.990082
   IB     435.597888          0.086495    0.986299   -0.140477
   IC     490.721372          0.996198   -0.087092    0.001904


 Rotational constants
 --------------------

               A                   B                   C

           1533.1763           1160.1962           1029.8696 MHz
            0.051141            0.038700            0.034353 cm-1


@  Nuclear repulsion energy :  197.694381824115 Hartree


                     .---------------------------------------.
                     | Starting in Integral Section (HERMIT) |
                     `---------------------------------------'



 ***************************************************************************************
 ****************** Output from **INTEGRALS input processing (HERMIT) ******************
 ***************************************************************************************



    *************************************************************************
    ****************** Output from HERMIT input processing ******************
    *************************************************************************


 Default print level:        1

 * Nuclear model: Point charge

 Calculation of one- and two-electron Hamiltonian integrals.

 The following one-electron property integrals are calculated as requested:
          - overlap integrals
          - dipole length integrals

 Center of mass  (bohr):     -0.166303366070     -0.050985807281     -0.820630234376
 Operator center (bohr):      0.000000000000      0.000000000000      0.000000000000
 Gauge origin    (bohr):      0.000000000000      0.000000000000      0.000000000000
 Dipole origin   (bohr):      0.000000000000      0.000000000000      0.000000000000
 
  *********************************** 
  QMMM electrostatic potential: 
  Multipole order                                    0
  Isotropic polarization  
  *********************************** 
 
  ---------------- 
  QMMM information 
  ---------------- 
 
  MM coordinates in au 
  -------------------- 
     1     -6.155380      3.102624     -0.307944
     2     -5.840074      1.368307     -0.959873
     3     -5.734030      4.379559     -1.528584
     4    -10.531039      4.966276     -5.537198
     5     -9.294900      6.362069     -5.018886
     6    -10.260739      3.630822     -4.278986
     7      3.913611      6.627634      1.024572
     8      2.883218      8.141681      1.277980
     9      5.482921      6.969157      0.115268
    10     -8.140942     -3.001367      0.283325
    11     -8.671462     -4.692230      0.638376
    12     -6.898103     -2.415648      1.545352
    13      1.019753     10.934507      1.283031
    14      0.270110     11.216777      2.904165
    15      1.736813     12.610522      0.731604
    16      5.233443     -7.671220     -9.192569
    17      6.444028     -6.146398     -9.250395
    18      6.267517     -9.000575     -9.895281
    19      3.429046      5.335621      6.138008
    20      5.112263      4.806932      6.989980
    21      3.812770      5.929390      4.424578
    22      8.455578      5.707515     -1.509557
    23      9.147529      4.327913     -0.545602
    24      9.559461      5.580085     -2.944819
    25     -8.462829    -10.046158      8.314612
    26     -8.772551    -11.732803      7.646164
    27     -8.720062    -10.017775     10.084004
    28      5.775897      0.684782     -9.720188
    29      4.234120     -0.357394     -9.759523
    30      7.072867     -0.561337     -9.206254
    31      6.342720    -11.347036      7.561871
    32      7.464324     -9.823668      7.257138
    33      6.698849    -11.962278      9.227206
    34     -3.320024      7.185514     -5.347902
    35     -2.282498      7.721298     -6.879796
    36     -2.171925      6.090899     -4.346389
    37    -11.599810      3.153452      1.672181
    38    -12.227514      2.297442      3.227853
    39     -9.977108      2.560830      0.955451
    40      3.116937     -9.766983     -5.396648
    41      4.301871     -8.713667     -6.393971
    42      2.853165     -9.425007     -3.633870
    43      1.606668     -2.262155     -8.366957
    44      1.508306     -3.285249     -9.840433
    45      2.095187     -3.258933     -6.811208
    46    -10.751648     -0.079707     -3.437234
    47     -9.728709     -0.614138     -4.821466
    48     -9.915756     -0.913046     -1.909793
    49      8.628297     -3.153329     -8.459605
    50      9.322512     -3.929529     -6.912522
    51     10.179320     -2.914474     -9.546594
    52      8.532854      7.715633      5.070472
    53      8.212742      7.384428      3.319856
    54      7.756572      9.321057      5.633251
    55      4.198544      8.551457     -8.118039
    56      4.763654      6.744102     -7.563714
    57      4.382481      9.657502     -6.696870
    58     -5.613658      5.199937      5.111666
    59     -4.055375      6.028601      4.930142
    60     -6.001396      4.671526      3.332838
    61      9.449455      0.897773      5.159436
    62     10.498753     -0.420902      6.084686
    63      8.459762      1.685256      6.644784
    64     -3.396633     10.649259     -1.142434
    65     -1.606906     10.636142     -0.396977
    66     -3.537093      9.400150     -2.507098
    67    -10.906137     -3.130252      7.319357
    68    -11.636745     -4.702884      6.709168
    69     -9.370781     -2.778402      6.438603
    70     -4.710687     -7.074437      6.179943
    71     -3.674671     -6.353012      7.511299
    72     -6.066042     -8.178444      6.901376
    73     -4.299631      3.579066    -10.682654
    74     -3.506534      2.488595     -9.399364
    75     -3.582702      5.241282    -10.446856
    76     10.889345     -5.847083     -3.882032
    77     10.675617     -7.530483     -4.693097
    78     12.658586     -5.404792     -3.663682
    79     -9.078996      9.921990     -3.660842
    80     -9.612925      9.827764     -1.894175
    81     -7.672277     11.087138     -3.851489
    82      5.054280     -2.032087      2.595412
    83      3.992919     -3.003393      3.878782
    84      5.977119     -0.909185      3.845464
    85     -8.121217     -9.642089     -8.721778
    86     -9.726075     -9.956729     -7.628926
    87     -6.655661     -9.627164     -7.613763
    88     -2.258994     11.411094      5.360938
    89     -1.641426     12.797790      6.419556
    90     -3.916161     12.030114      4.546345
    91     -7.652263     -4.903998     -5.139363
    92     -7.064004     -4.565163     -6.894951
    93     -6.375505     -6.199813     -4.642401
    94     -0.861481     -9.829291     -8.783987
    95     -1.310935    -11.642077     -8.984376
    96      0.700387     -9.705509     -7.644647
    97     -3.607419     -0.781149     -7.782835
    98     -4.557214     -1.907422     -8.985982
    99     -1.856346     -1.577832     -7.988946
   100     -1.504753     -4.093105     10.912331
   101     -2.072710     -5.688622     11.705992
   102     -2.867210     -3.163118     10.043445
   103     -4.386487      1.312985      8.512859
   104     -4.942140      2.080913     10.138968
   105     -4.668534      2.938520      7.448465
   106     10.301986     -8.007212      6.331340
   107     11.008892     -8.131987      4.665072
   108     11.763713     -8.618143      7.427833
   109     10.641203    -11.104707     -5.787842
   110      9.747752    -11.717776     -7.373027
   111     11.754779    -12.424208     -5.219399
   112      1.036360     -9.840853      9.631792
   113      2.734572    -10.674534      9.765449
   114      0.426290     -9.801921     11.351184
   115     11.033850      6.983989     11.212565
   116     12.110693      5.624428     11.802456
   117     11.816743      7.458312      9.598866
   118     -9.781941     -7.764939      1.802090
   119     -8.552175     -9.077033      2.109826
   120    -10.621850     -8.311730      0.277372
   121      7.400200      3.618153      9.185528
   122      8.865112      4.722847      9.695051
   123      6.849225      3.040481     10.864317
   124      1.610306     -5.490896      6.422712
   125      1.472737     -6.837201      7.708529
   126      0.841720     -3.931248      7.181173
   127     -0.802897      8.501145    -10.057716
   128     -0.529654      8.171444    -11.896981
   129      0.875597      8.317055     -9.175146
   130      7.541653     -0.696961     -2.652076
   131      7.394612     -0.907630     -0.762319
   132      9.409419     -1.024377     -3.009347
   133     -9.932334      2.984717    -10.097663
   134     -8.022394      3.136206    -10.214744
   135    -10.010136      3.914195     -8.440747
   136    -10.774139     -2.266022    -11.230036
   137    -10.597406     -0.407259    -11.044576
   138    -11.117780     -2.464732    -13.127612
   139      4.944153      3.858207     -5.891448
   140      5.286881      2.561681     -7.273716
   141      6.075018      3.488338     -4.530649
   142     -1.149910      7.327865      8.319041
   143     -1.393662      8.855415      7.138488
   144      0.298909      6.480464      7.538599
   145     -5.916895     -2.042095      4.842242
   146     -5.461386     -3.789855      5.379750
   147     -5.274248     -0.793162      6.080302
   148     -4.529520     -8.928616     -4.436816
   149     -3.962674     -9.895220     -2.800289
   150     -3.076901     -9.069081     -5.583285
   151     -6.329466     -4.630215    -10.477348
   152     -7.286204     -5.969934     -9.529146
   153     -7.761740     -3.715048    -11.177879
   154      8.012401     10.955888    -10.941065
   155      9.062074      9.551779    -11.495230
   156      6.632007     10.089614    -10.142481
   157      2.424980     -7.850935     -0.635468
   158      0.838717     -7.362233      0.600124
   159      3.979911     -7.776663      0.415547
   160     -1.316304     -5.909525      2.163122
   161     -0.352271     -5.791920      3.795366
   162     -3.051346     -6.400950      2.358246
   163      7.454420     -6.619677      0.885049
   164      8.088846     -6.402339     -0.847506
   165      7.555331     -4.918131      1.682176
   166    -10.492381      8.863834      1.160604
   167    -10.631996      7.077555      0.986114
   168    -12.236304      9.568488      1.401251
   169     -9.769693      8.796858      6.824672
   170     -8.476546      7.607387      6.188398
   171    -11.284278      8.512421      5.983249
   172      8.907617     11.735708      0.367402
   173      8.370223     11.573193     -1.380483
   174      8.288316     13.378987      0.989848
   175     -6.677789    -11.516934      2.655196
   176     -7.880893    -12.859352      2.866998
   177     -5.678223    -11.949335      1.141899
 
  MM charges 
  ---------- 
     1     -0.674440
     2      0.337220
     3      0.337220
     4     -0.674440
     5      0.337220
     6      0.337220
     7     -0.674440
     8      0.337220
     9      0.337220
    10     -0.674440
    11      0.337220
    12      0.337220
    13     -0.674440
    14      0.337220
    15      0.337220
    16     -0.674440
    17      0.337220
    18      0.337220
    19     -0.674440
    20      0.337220
    21      0.337220
    22     -0.674440
    23      0.337220
    24      0.337220
    25     -0.674440
    26      0.337220
    27      0.337220
    28     -0.674440
    29      0.337220
    30      0.337220
    31     -0.674440
    32      0.337220
    33      0.337220
    34     -0.674440
    35      0.337220
    36      0.337220
    37     -0.674440
    38      0.337220
    39      0.337220
    40     -0.674440
    41      0.337220
    42      0.337220
    43     -0.674440
    44      0.337220
    45      0.337220
    46     -0.674440
    47      0.337220
    48      0.337220
    49     -0.674440
    50      0.337220
    51      0.337220
    52     -0.674440
    53      0.337220
    54      0.337220
    55     -0.674440
    56      0.337220
    57      0.337220
    58     -0.674440
    59      0.337220
    60      0.337220
    61     -0.674440
    62      0.337220
    63      0.337220
    64     -0.674440
    65      0.337220
    66      0.337220
    67     -0.674440
    68      0.337220
    69      0.337220
    70     -0.674440
    71      0.337220
    72      0.337220
    73     -0.674440
    74      0.337220
    75      0.337220
    76     -0.674440
    77      0.337220
    78      0.337220
    79     -0.674440
    80      0.337220
    81      0.337220
    82     -0.674440
    83      0.337220
    84      0.337220
    85     -0.674440
    86      0.337220
    87      0.337220
    88     -0.674440
    89      0.337220
    90      0.337220
    91     -0.674440
    92      0.337220
    93      0.337220
    94     -0.674440
    95      0.337220
    96      0.337220
    97     -0.674440
    98      0.337220
    99      0.337220
   100     -0.674440
   101      0.337220
   102      0.337220
   103     -0.674440
   104      0.337220
   105      0.337220
   106     -0.674440
   107      0.337220
   108      0.337220
   109     -0.674440
   110      0.337220
   111      0.337220
   112     -0.674440
   113      0.337220
   114      0.337220
   115     -0.674440
   116      0.337220
   117      0.337220
   118     -0.674440
   119      0.337220
   120      0.337220
   121     -0.674440
   122      0.337220
   123      0.337220
   124     -0.674440
   125      0.337220
   126      0.337220
   127     -0.674440
   128      0.337220
   129      0.337220
   130     -0.674440
   131      0.337220
   132      0.337220
   133     -0.674440
   134      0.337220
   135      0.337220
   136     -0.674440
   137      0.337220
   138      0.337220
   139     -0.674440
   140      0.337220
   141      0.337220
   142     -0.674440
   143      0.337220
   144      0.337220
   145     -0.674440
   146      0.337220
   147      0.337220
   148     -0.674440
   149      0.337220
   150      0.337220
   151     -0.674440
   152      0.337220
   153      0.337220
   154     -0.674440
   155      0.337220
   156      0.337220
   157     -0.674440
   158      0.337220
   159      0.337220
   160     -0.674440
   161      0.337220
   162      0.337220
   163     -0.674440
   164      0.337220
   165      0.337220
   166     -0.674440
   167      0.337220
   168      0.337220
   169     -0.674440
   170      0.337220
   171      0.337220
   172     -0.674440
   173      0.337220
   174      0.337220
   175     -0.674440
   176      0.337220
   177      0.337220
 
  MM isotropic polarizabilities in au 
  ----------------------------------- 
     1      5.739350
     2      2.308390
     3      2.308390
     4      5.739350
     5      2.308390
     6      2.308390
     7      5.739350
     8      2.308390
     9      2.308390
    10      5.739350
    11      2.308390
    12      2.308390
    13      5.739350
    14      2.308390
    15      2.308390
    16      5.739350
    17      2.308390
    18      2.308390
    19      5.739350
    20      2.308390
    21      2.308390
    22      5.739350
    23      2.308390
    24      2.308390
    25      5.739350
    26      2.308390
    27      2.308390
    28      5.739350
    29      2.308390
    30      2.308390
    31      5.739350
    32      2.308390
    33      2.308390
    34      5.739350
    35      2.308390
    36      2.308390
    37      5.739350
    38      2.308390
    39      2.308390
    40      5.739350
    41      2.308390
    42      2.308390
    43      5.739350
    44      2.308390
    45      2.308390
    46      5.739350
    47      2.308390
    48      2.308390
    49      5.739350
    50      2.308390
    51      2.308390
    52      5.739350
    53      2.308390
    54      2.308390
    55      5.739350
    56      2.308390
    57      2.308390
    58      5.739350
    59      2.308390
    60      2.308390
    61      5.739350
    62      2.308390
    63      2.308390
    64      5.739350
    65      2.308390
    66      2.308390
    67      5.739350
    68      2.308390
    69      2.308390
    70      5.739350
    71      2.308390
    72      2.308390
    73      5.739350
    74      2.308390
    75      2.308390
    76      5.739350
    77      2.308390
    78      2.308390
    79      5.739350
    80      2.308390
    81      2.308390
    82      5.739350
    83      2.308390
    84      2.308390
    85      5.739350
    86      2.308390
    87      2.308390
    88      5.739350
    89      2.308390
    90      2.308390
    91      5.739350
    92      2.308390
    93      2.308390
    94      5.739350
    95      2.308390
    96      2.308390
    97      5.739350
    98      2.308390
    99      2.308390
   100      5.739350
   101      2.308390
   102      2.308390
   103      5.739350
   104      2.308390
   105      2.308390
   106      5.739350
   107      2.308390
   108      2.308390
   109      5.739350
   110      2.308390
   111      2.308390
   112      5.739350
   113      2.308390
   114      2.308390
   115      5.739350
   116      2.308390
   117      2.308390
   118      5.739350
   119      2.308390
   120      2.308390
   121      5.739350
   122      2.308390
   123      2.308390
   124      5.739350
   125      2.308390
   126      2.308390
   127      5.739350
   128      2.308390
   129      2.308390
   130      5.739350
   131      2.308390
   132      2.308390
   133      5.739350
   134      2.308390
   135      2.308390
   136      5.739350
   137      2.308390
   138      2.308390
   139      5.739350
   140      2.308390
   141      2.308390
   142      5.739350
   143      2.308390
   144      2.308390
   145      5.739350
   146      2.308390
   147      2.308390
   148      5.739350
   149      2.308390
   150      2.308390
   151      5.739350
   152      2.308390
   153      2.308390
   154      5.739350
   155      2.308390
   156      2.308390
   157      5.739350
   158      2.308390
   159      2.308390
   160      5.739350
   161      2.308390
   162      2.308390
   163      5.739350
   164      2.308390
   165      2.308390
   166      5.739350
   167      2.308390
   168      2.308390
   169      5.739350
   170      2.308390
   171      2.308390
   172      5.739350
   173      2.308390
   174      2.308390
   175      5.739350
   176      2.308390
   177      2.308390


     ************************************************************************
     ************************** Output from HERINT **************************
     ************************************************************************



                      Nuclear contribution to dipole moments
                      --------------------------------------

                 au               Debye          C m (/(10**-30)

      x     -6.87270337       -17.46866841       -58.26920574
      y     -2.23166073        -5.67231542       -18.92080760
      z    -40.93960125      -104.05808031      -347.10039408


  Time used in HUCKEL     is       0.29 seconds
  Time used in OVERLAP    is       0.14 seconds
  Time used in POPOVLP    is       0.24 seconds
  Time used in DIPLEN     is       0.20 seconds
  Time used in QUADRUP    is       0.43 seconds
  Time used in KINENE     is       0.25 seconds

 Threshold for neglecting two-electron integrals:  1.00D-12
 HERMIT - Number of two-electron integrals written:    35702060 ( 41.0% )
 HERMIT - Megabytes written:                            408.809

  Time used in TWOINT     is      17.25 seconds
  Total CPU  time used in HERMIT:  18.88 seconds
  Total wall time used in HERMIT:   7.24 seconds


                        .----------------------------------.
                        | End of Integral Section (HERMIT) |
                        `----------------------------------'



                   .--------------------------------------------.
                   | Starting in Wave Function Section (SIRIUS) |
                   `--------------------------------------------'

NCCEXCI for singlet:   15
 CCSD_INPUT: core-val requested
 Requested number of core orbs per sym
                     1
 Indices of requested core orbs
                     1

 *** Output from Huckel module :

     Using EWMO model:          T
     Using EHT  model:          F
     Number of Huckel orbitals each symmetry:   37

 EWMO - Energy Weighted Maximum Overlap - is a Huckel type method,
        which normally is better than Extended Huckel Theory.
 Reference: Linderberg and Ohrn, Propagators in Quantum Chemistry (Wiley, 1973)

 Huckel EWMO eigenvalues for symmetry :  1
          -20.685069     -20.684820     -20.684708     -20.684428     -15.675344
           -1.796175      -1.625353      -1.615964      -1.603353      -1.492666
           -0.834758      -0.796853      -0.784006      -0.770848      -0.767198
           -0.746407      -0.731095      -0.701231      -0.684831      -0.666723
           -0.625407      -0.614456      -0.585317      -0.576059      -0.563567
           -0.260161      -0.241197      -0.236531      -0.227860      -0.184812
           -0.178935      -0.173489      -0.171185      -0.167019      -0.149856
           -0.145145      -0.142976

 **********************************************************************
 *SIRIUS* a direct, restricted step, second order MCSCF program       *
 **********************************************************************

 
     Date and time (Linux)  : Sun Dec  2 21:47:09 2018
     Host name              : n-62-23-14                              

 Title lines from ".mol" input file:
                                                                             
                                                                             

 Print level on unit LUPRI =   2 is   0
 Print level on unit LUW4  =   2 is  11

@    (Integral direct) CC calculation.

@    This is a combination run starting with
@              a restricted, closed shell Hartree-Fock calculation


 Initial molecular orbitals are obtained according to
 ".MOSTART EWMO  " input option

@    QM part is embedded in an environment :

@         Model: QMMM

     Wave function specification
     ============================

     For the specification of the Coupled Cluster: see later.

@    Wave function type        --- CC ---
@    Number of closed shell electrons          50
@    Number of electrons in active shells       0
@    Total charge of the molecule               1

@    Spin multiplicity and 2 M_S                1         0
@    Total number of symmetries                 1 (point group: C1 )
@    Reference state symmetry                   1 (irrep name : A  )

     Orbital specifications
     ======================
@    Abelian symmetry species          All |    1
@                                          |  A  
                                       --- |  ---
@    Occupied SCF orbitals              25 |   25
@    Secondary orbitals                137 |  137
@    Total number of orbitals          162 |  162
@    Number of basis functions         162 |  162

     Optimization information
     ========================
@    Number of configurations                 1
@    Number of orbital rotations           3425
     ------------------------------------------
@    Total number of variables             3426

     Maximum number of Fock   iterations      0
     Maximum number of DIIS   iterations     60
     Maximum number of QC-SCF iterations     60
     Threshold for SCF convergence     1.00D-07


 Changes of defaults for CC:
 ---------------------------


 -Implicit frozen core calculation
 -Excitation energies calculated
 -One-photon absorption strengths will be calculated
 -Oscillator strengths calculated
  
* Read MO coefficients from SIRIUS.RST with label "NEWORB  " and header info:  2Dec18  REORTHO 


 ***********************************************
 ***** DIIS acceleration of SCF iterations *****
 ***********************************************

 C1-DIIS algorithm; max error vectors =    8
 -----------------------------------------------------------------------------

 *** DIIS iteration number    1
 RDSUPM called. NFMAT, ISYMDM(1:NFMAT)                     1
                     1

Calculating AOSUPINT
     (Precalculated two-electron integrals are transformed to P-supermatrix elements.
      Threshold for discarding integrals :  1.00D-12 )
  CPU  time used in FORMSUP    is   7.59 seconds
  WALL time used in FORMSUP    is   9.33 seconds

 ITDIIS, energy, error norm, change in energy, scr.thr., difden:
@ DIIS iter.   1    -360.158927965        4.09016D+00   -3.60D+02  -20    F

 (DIIS_RED) Control Parameters C2DIIS =         F NEVC =    1


 (DIIS_RED) B matrix:

               Column   1
       1      16.72938071
    ==== End of matrix output ====

 DIIS C vector; C2DIIS = F, LAMBDA = -1.67D+01
    1.000000
* Read MO coefficients from SIRIUS.RST with label "NEWORB  " and header info:  2Dec18  DIIS   1
      Virial theorem: -V/T =      2.003001
@      MULPOP N       0.14; H       0.17; H       0.16; H       0.17; H       0.16; O      -0.60; O      -0.55; O      -0.64; O      -0.62; H       0.33; 
@             H       0.32; H       0.31; H       0.30; H       0.35; H       0.34; H       0.33; H       0.34; 
   1  Level shift: doubly occupied orbital energies shifted by -2.00D-01

 DIIS Fock eigenvalues in symmetry 1
      -20.83315      -20.82112      -20.82048      -20.80144      -16.48748
       -1.73777       -1.67106       -1.65610       -1.65126       -1.60208
       -1.21628       -1.21513       -1.18878       -1.04770       -1.03341
       -1.02214       -0.97278       -0.90926       -0.89165       -0.88840
       -0.86411       -0.85774       -0.85282       -0.85022       -0.82032
       -0.02223        0.04079        0.05618        0.09044        0.11047
        0.12489        0.13565        0.16016        0.17172        0.19582
        0.21842        0.23343        0.25242        0.26933        0.30839
        0.42894        0.45141        0.46056        0.46547        0.48075
        0.50735        0.51150        0.53979        0.54874        0.67354
        0.69142        0.69866        0.82383        0.85948        0.87166
        0.90675        0.91507        0.93135        0.96901        0.97683
        0.99842        1.00809        1.03182        1.05573        1.06195
        1.06739        1.09692        1.19396        1.20356        1.25011
        1.29653        1.33015        1.35949        1.39237        1.41145
        1.41344        1.42016        1.44012        1.45833        1.50215
        1.51770        1.55548        1.57047        1.60677        1.64318
        1.67253        1.73401        1.75236        1.79279        1.82604
        1.85386        1.89336        2.02556        2.07863        2.08265
        2.10956        2.12809        2.13373        2.16281        2.18851
        2.19205        2.23227        2.26442        2.28387        2.41315
        2.46808        2.48165        2.49980        2.52650        2.53181
        2.55073        2.59539        2.62286        2.64332        2.65168
        2.69165        2.71332        2.79561        2.96748        2.98450
        3.03096        3.06923        3.30935        3.34957        3.36017
        3.37331        3.40910        3.41433        3.42650        3.43936
        3.51940        3.55947        3.56837        3.57182        3.88181
        3.89328        3.90003        3.93529        4.07189        4.09593
        4.11799        4.18377        4.67181        4.74491        4.75537
        5.23723        5.25877        5.31729        5.33508        5.63849
        5.69099        5.73995        5.78786        5.98429        5.99538
        6.02657        6.05030       36.32315       51.45760       51.46375
       51.47941       51.49505
 Time used in FCKEIG, thr_jaco:   4.70D-01  4.70D-02  1.75D-04
 CPU and wall times used in FCKEIG, THR_FCKEIG:   4.71D-01  4.70D-02  4.09D-02
 -----------------------------------------------------------------------------

 *** DIIS iteration number    2
 RDSUPM called. NFMAT, ISYMDM(1:NFMAT)                     1
                     1

 ITDIIS, energy, error norm, change in energy, scr.thr., difden:
@ DIIS iter.   2    -361.097139974        1.16742D+00   -9.38D-01  -20    F

 (DIIS_RED) Control Parameters C2DIIS =         F NEVC =    2


 (DIIS_RED) B matrix:

               Column   1     Column   2
       1      16.72938071
       2       0.67695645     1.36287796
    ==== End of matrix output ====

 DIIS C vector; C2DIIS = F, LAMBDA = -1.33D+00
    0.040979    0.959021
* Read MO coefficients from SIRIUS.RST with label "NEWORB  " and header info:  2Dec18  DIIS   2
      Virial theorem: -V/T =      2.001670
@      MULPOP N      -0.53; H       0.29; H       0.32; H       0.38; H       0.34; O      -0.53; O      -0.61; O      -0.53; O      -0.57; H       0.27; 
@             H       0.32; H       0.33; H       0.34; H       0.26; H       0.31; H       0.33; H       0.27; 
   2  Level shift: doubly occupied orbital energies shifted by -1.00D-01

 DIIS Fock eigenvalues in symmetry 1
      -20.78212      -20.76305      -20.76114      -20.73950      -15.63985
       -1.55023       -1.54712       -1.53756       -1.49766       -1.38311
       -0.92574       -0.90560       -0.88803       -0.87825       -0.87481
       -0.86086       -0.84247       -0.80405       -0.78212       -0.78084
       -0.73889       -0.72480       -0.71597       -0.71476       -0.69433
        0.05154        0.08417        0.11027        0.13994        0.15410
        0.17048        0.19142        0.21159        0.23434        0.24370
        0.25816        0.32341        0.34549        0.35832        0.39166
        0.47163        0.48843        0.49863        0.50518        0.53268
        0.55101        0.55950        0.58939        0.62175        0.82061
        0.83902        0.85125        0.86567        0.89898        0.92284
        0.93901        0.96293        0.98713        1.00899        1.01332
        1.03195        1.03872        1.07210        1.10590        1.15699
        1.18010        1.19499        1.25181        1.26711        1.31642
        1.34015        1.39613        1.42135        1.45403        1.46183
        1.47325        1.48399        1.50446        1.52681        1.58780
        1.61403        1.63748        1.65135        1.67923        1.73489
        1.76799        1.79961        1.81704        1.88073        1.91483
        1.94192        1.99740        2.10531        2.14214        2.14656
        2.18106        2.19419        2.23745        2.25042        2.28598
        2.29663        2.32710        2.36134        2.37073        2.52022
        2.55760        2.57265        2.58672        2.61175        2.62792
        2.64556        2.68350        2.70896        2.72243        2.77211
        2.81382        2.93717        2.96084        3.15376        3.24367
        3.26228        3.32923        3.36036        3.38759        3.39663
        3.40375        3.43677        3.44668        3.46824        3.48711
        3.54781        3.59670        3.60296        3.61728        3.91510
        3.91704        3.92529        3.96694        4.09554        4.12296
        4.14532        4.21037        5.07052        5.14117        5.15667
        5.24372        5.25979        5.32813        5.34708        5.64381
        5.69367        5.74865        5.79640        6.00165        6.02172
        6.04568        6.07532       37.05366       51.41120       51.42624
       51.43978       51.45869
 Time used in FCKEIG, thr_jaco:   3.30D-01  3.40D-02  4.99D-05
 CPU and wall times used in FCKEIG, THR_FCKEIG:   3.31D-01  3.40D-02  1.17D-02
 -----------------------------------------------------------------------------

 *** DIIS iteration number    3
 RDSUPM called. NFMAT, ISYMDM(1:NFMAT)                     1
                     1

 ITDIIS, energy, error norm, change in energy, scr.thr., difden:
@ DIIS iter.   3    -361.174993316        3.78136D-01   -7.79D-02  -20    F

 (DIIS_RED) Control Parameters C2DIIS =         F NEVC =    3


 (DIIS_RED) B matrix:

               Column   1     Column   2     Column   3
       1      16.72938071
       2       0.67695645     1.36287796
       3       0.82669479    -0.00248006     0.14298692
    ==== End of matrix output ====

 DIIS C vector; C2DIIS = F, LAMBDA = -9.83D-02
   -0.044898    0.096156    0.948741
* Read MO coefficients from SIRIUS.RST with label "NEWORB  " and header info:  2Dec18  DIIS   3
      Virial theorem: -V/T =      2.002779
@      MULPOP N      -0.33; H       0.24; H       0.27; H       0.36; H       0.30; O      -0.59; O      -0.69; O      -0.58; O      -0.62; H       0.29; 
@             H       0.34; H       0.36; H       0.38; H       0.28; H       0.33; H       0.36; H       0.29; 
   3  Level shift: doubly occupied orbital energies shifted by -5.00D-02

 DIIS Fock eigenvalues in symmetry 1
      -20.69029      -20.68154      -20.67734      -20.64891      -15.80529
       -1.48413       -1.47864       -1.47409       -1.42895       -1.38682
       -0.86933       -0.85505       -0.85118       -0.84024       -0.83998
       -0.81799       -0.78013       -0.73607       -0.71432       -0.71241
       -0.67517       -0.65375       -0.64586       -0.64285       -0.61660
        0.05535        0.08965        0.11561        0.14549        0.15853
        0.17411        0.19245        0.21488        0.23501        0.24659
        0.26092        0.32193        0.34324        0.35745        0.39096
        0.48210        0.49973        0.50897        0.51628        0.54101
        0.55996        0.56879        0.59822        0.62269        0.81334
        0.82167        0.83729        0.87983        0.91082        0.92142
        0.95373        0.97364        0.99909        1.02111        1.02602
        1.04483        1.05178        1.08361        1.12068        1.15754
        1.16908        1.19219        1.26013        1.27960        1.32409
        1.34890        1.41037        1.43540        1.46540        1.47580
        1.48658        1.49788        1.51388        1.53433        1.59926
        1.62070        1.64462        1.65950        1.68795        1.73917
        1.77371        1.81030        1.82883        1.88941        1.91858
        1.94713        1.99833        2.11382        2.15773        2.16219
        2.19613        2.20490        2.23778        2.26319        2.29463
        2.31227        2.32155        2.36788        2.38176        2.52473
        2.56775        2.58429        2.59646        2.61962        2.63477
        2.65347        2.69243        2.72010        2.73169        2.78298
        2.80686        2.91201        2.92757        3.14562        3.20877
        3.22947        3.30725        3.36702        3.40594        3.41552
        3.42536        3.45811        3.47046        3.48789        3.50174
        3.57356        3.61720        3.62722        3.63617        3.93760
        3.94236        3.95112        3.98660        4.12356        4.14541
        4.17293        4.23535        4.98646        5.05966        5.07278
        5.27488        5.29147        5.35122        5.37086        5.66783
        5.72392        5.77703        5.82704        6.03338        6.05020
        6.07798        6.10053       36.84462       51.45287       51.45664
       51.47578       51.49911
 Time used in FCKEIG, thr_jaco:   3.13D-01  3.10D-02  1.62D-05
 CPU and wall times used in FCKEIG, THR_FCKEIG:   3.13D-01  3.10D-02  3.78D-03
 -----------------------------------------------------------------------------

 *** DIIS iteration number    4
 RDSUPM called. NFMAT, ISYMDM(1:NFMAT)                     1
                     1

 ITDIIS, energy, error norm, change in energy, scr.thr., difden:
@ DIIS iter.   4    -361.185461875        9.49997D-02   -1.05D-02  -20    F

 (DIIS_RED) Control Parameters C2DIIS =         F NEVC =    4


 (DIIS_RED) B matrix:

               Column   1     Column   2     Column   3     Column   4
       1      16.72938071
       2       0.67695645     1.36287796
       3       0.82669479    -0.00248006     0.14298692
       4       0.05815620     0.08257418     0.00518703     0.00902495
    ==== End of matrix output ====

 DIIS C vector; C2DIIS = F, LAMBDA = -4.53D-03
   -0.000803   -0.060813   -0.003394    1.065011
* Read MO coefficients from SIRIUS.RST with label "NEWORB  " and header info:  2Dec18  DIIS   4
      Virial theorem: -V/T =      2.002567
@      MULPOP N      -0.41; H       0.25; H       0.28; H       0.38; H       0.32; O      -0.59; O      -0.70; O      -0.59; O      -0.63; H       0.29; 
@             H       0.35; H       0.37; H       0.39; H       0.28; H       0.34; H       0.37; H       0.29; 
   4  Level shift: doubly occupied orbital energies shifted by -2.50D-02

 DIIS Fock eigenvalues in symmetry 1
      -20.67967      -20.66549      -20.66318      -20.63918      -15.74456
       -1.46391       -1.45867       -1.45292       -1.40789       -1.34940
       -0.84045       -0.82143       -0.81866       -0.81690       -0.80721
       -0.79622       -0.75777       -0.71332       -0.69061       -0.68922
       -0.65096       -0.62923       -0.62025       -0.61764       -0.59182
        0.05581        0.08861        0.11453        0.14618        0.15820
        0.17453        0.19345        0.21528        0.23701        0.24826
        0.26269        0.32690        0.34888        0.36312        0.39633
        0.48180        0.49936        0.50842        0.51479        0.54118
        0.56003        0.56813        0.59687        0.62594        0.81923
        0.82979        0.84374        0.88050        0.91147        0.92508
        0.95458        0.97553        0.99869        1.02037        1.02635
        1.04410        1.05091        1.08299        1.11801        1.16082
        1.17494        1.19565        1.26122        1.27849        1.32528
        1.35063        1.40905        1.43330        1.46506        1.47458
        1.48558        1.49634        1.51369        1.53619        1.59874
        1.62323        1.64760        1.66028        1.68877        1.74325
        1.77710        1.81038        1.82723        1.89002        1.92147
        1.94807        2.00354        2.11533        2.15499        2.15990
        2.19356        2.20511        2.24337        2.26165        2.29607
        2.30966        2.32804        2.37102        2.37863        2.52794
        2.56770        2.58435        2.59662        2.62195        2.63870
        2.65545        2.69508        2.71834        2.73522        2.78120
        2.81179        2.92114        2.93850        3.15344        3.22092
        3.24041        3.31858        3.36560        3.40461        3.41335
        3.42260        3.45598        3.46752        3.48611        3.50031
        3.57017        3.61530        3.62438        3.63483        3.93468
        3.93885        3.94715        3.98436        4.11975        4.14323
        4.16966        4.23245        5.00546        5.07848        5.09178
        5.26801        5.28461        5.34717        5.36647        5.66395
        5.71758        5.77172        5.82071        6.02607        6.04423
        6.07068        6.09574       36.87987       51.43906       51.44765
       51.46516       51.48443
 Time used in FCKEIG, thr_jaco:   2.77D-01  2.80D-02  4.06D-06
 CPU and wall times used in FCKEIG, THR_FCKEIG:   2.77D-01  2.80D-02  9.50D-04
 -----------------------------------------------------------------------------

 *** DIIS iteration number    5
 RDSUPM called. NFMAT, ISYMDM(1:NFMAT)                     1
                     1

 ITDIIS, energy, error norm, change in energy, scr.thr., difden:
@ DIIS iter.   5    -361.186488059        2.84646D-02   -1.03D-03  -20    F

 (DIIS_RED) Control Parameters C2DIIS =         F NEVC =    5


 (DIIS_RED) B matrix:

               Column   1     Column   2     Column   3     Column   4     Column   5
       1      16.72938071
       2       0.67695645     1.36287796
       3       0.82669479    -0.00248006     0.14298692
       4       0.05815620     0.08257418     0.00518703     0.00902495
       5       0.02141642     0.00749423     0.00568490     0.00097014     0.00081023
    ==== End of matrix output ====

 DIIS C vector; C2DIIS = F, LAMBDA = -5.65D-04
    0.001123   -0.009231   -0.044341    0.058449    0.994000
* Read MO coefficients from SIRIUS.RST with label "NEWORB  " and header info:  2Dec18  DIIS   5
      Virial theorem: -V/T =      2.002276
@      MULPOP N      -0.39; H       0.25; H       0.28; H       0.38; H       0.31; O      -0.61; O      -0.72; O      -0.60; O      -0.64; H       0.30; 
@             H       0.35; H       0.38; H       0.40; H       0.29; H       0.35; H       0.38; H       0.30; 
   5  Level shift: doubly occupied orbital energies shifted by -1.25D-02

 DIIS Fock eigenvalues in symmetry 1
      -20.65954      -20.64854      -20.64582      -20.61768      -15.72967
       -1.44962       -1.44352       -1.43888       -1.39230       -1.33577
       -0.82637       -0.80779       -0.80493       -0.80339       -0.79339
       -0.78241       -0.74319       -0.69966       -0.67681       -0.67455
       -0.63620       -0.61366       -0.60524       -0.60259       -0.57537
        0.05618        0.08882        0.11471        0.14664        0.15846
        0.17482        0.19385        0.21555        0.23753        0.24877
        0.26327        0.32770        0.34966        0.36398        0.39714
        0.48239        0.49995        0.50890        0.51532        0.54170
        0.56058        0.56869        0.59728        0.62660        0.82031
        0.83072        0.84469        0.88211        0.91286        0.92639
        0.95651        0.97703        1.00005        1.02124        1.02780
        1.04512        1.05238        1.08433        1.11935        1.16187
        1.17599        1.19678        1.26230        1.27912        1.32634
        1.35210        1.40969        1.43348        1.46571        1.47526
        1.48634        1.49690        1.51461        1.53704        1.59930
        1.62394        1.64825        1.66082        1.68935        1.74393
        1.77790        1.81077        1.82720        1.89032        1.92200
        1.94851        2.00433        2.11633        2.15557        2.16077
        2.19390        2.20601        2.24432        2.26258        2.29700
        2.31012        2.32900        2.37196        2.37933        2.52848
        2.56819        2.58481        2.59698        2.62266        2.63939
        2.65615        2.69541        2.71812        2.73565        2.78118
        2.81220        2.92196        2.93948        3.15454        3.22229
        3.24178        3.32009        3.36827        3.40675        3.41600
        3.42440        3.45755        3.47023        3.48903        3.50209
        3.57289        3.61690        3.62608        3.63775        3.93665
        3.94188        3.94979        3.98591        4.12270        4.14493
        4.17301        4.23438        5.00695        5.08000        5.09330
        5.27330        5.28920        5.35003        5.36936        5.66644
        5.72179        5.77476        5.82510        6.03064        6.04672
        6.07460        6.09793       36.88222       51.44651       51.45221
       51.47002       51.49315
 Time used in FCKEIG, thr_jaco:   2.71D-01  2.70D-02  1.22D-06
 CPU and wall times used in FCKEIG, THR_FCKEIG:   2.72D-01  2.70D-02  2.85D-04
 -----------------------------------------------------------------------------

 *** DIIS iteration number    6
 RDSUPM called. NFMAT, ISYMDM(1:NFMAT)                     1
                     1

 ITDIIS, energy, error norm, change in energy, scr.thr., difden:
@ DIIS iter.   6    -361.186575332        1.06248D-02   -8.73D-05  -20    F

 (DIIS_RED) Control Parameters C2DIIS =         F NEVC =    6


 (DIIS_RED) B matrix:

               Column   1     Column   2     Column   3     Column   4     Column   5     Column   6
       1      16.72938071
       2       0.67695645     1.36287796
       3       0.82669479    -0.00248006     0.14298692
       4       0.05815620     0.08257418     0.00518703     0.00902495
       5       0.02141642     0.00749423     0.00568490     0.00097014     0.00081023
       6      -0.00473991    -0.00015752     0.00073793     0.00051968     0.00003444     0.00011289
    ==== End of matrix output ====

 DIIS C vector; C2DIIS = F, LAMBDA = -3.64D-05
    0.000783    0.006765   -0.010424   -0.129515    0.148071    0.984319
* Read MO coefficients from SIRIUS.RST with label "NEWORB  " and header info:  2Dec18  DIIS   6
      Virial theorem: -V/T =      2.002499
@      MULPOP N      -0.39; H       0.24; H       0.28; H       0.38; H       0.31; O      -0.60; O      -0.72; O      -0.60; O      -0.64; H       0.30; 
@             H       0.35; H       0.38; H       0.40; H       0.29; H       0.35; H       0.38; H       0.30; 

 DIIS Fock eigenvalues in symmetry 1
      -20.64955      -20.63742      -20.63475      -20.60833      -15.71901
       -1.43745       -1.43175       -1.42674       -1.38076       -1.32376
       -0.81454       -0.79580       -0.79293       -0.79141       -0.78140
       -0.77031       -0.73163       -0.68783       -0.66492       -0.66292
       -0.62480       -0.60162       -0.59291       -0.59020       -0.56353
        0.05608        0.08868        0.11460        0.14645        0.15833
        0.17470        0.19375        0.21547        0.23745        0.24862
        0.26312        0.32738        0.34955        0.36378        0.39700
        0.48217        0.49971        0.50873        0.51504        0.54147
        0.56031        0.56835        0.59707        0.62636        0.81997
        0.83042        0.84437        0.88175        0.91256        0.92610
        0.95616        0.97685        0.99958        1.02093        1.02737
        1.04482        1.05199        1.08396        1.11870        1.16165
        1.17563        1.19649        1.26202        1.27890        1.32609
        1.35167        1.40934        1.43319        1.46538        1.47478
        1.48599        1.49656        1.51420        1.53664        1.59906
        1.62370        1.64805        1.66052        1.68904        1.74370
        1.77773        1.81049        1.82694        1.88997        1.92182
        1.94832        2.00415        2.11589        2.15516        2.16021
        2.19347        2.20556        2.24403        2.26214        2.29657
        2.30972        2.32879        2.37162        2.37899        2.52816
        2.56791        2.58441        2.59671        2.62254        2.63929
        2.65598        2.69515        2.71779        2.73543        2.78090
        2.81174        2.92148        2.93899        3.15427        3.22166
        3.24118        3.31945        3.36745        3.40607        3.41508
        3.42386        3.45704        3.46933        3.48796        3.50159
        3.57204        3.61639        3.62557        3.63666        3.93609
        3.94076        3.94888        3.98538        4.12174        4.14438
        4.17180        4.23383        5.00605        5.07910        5.09242
        5.27161        5.28782        5.34929        5.36862        5.66564
        5.72041        5.77379        5.82356        6.02892        6.04590
        6.07322        6.09713       36.88041       51.44406       51.45078
       51.46858       51.49009
 Time used in FCKEIG, thr_jaco:   2.60D-01  2.60D-02  4.54D-07
 CPU and wall times used in FCKEIG, THR_FCKEIG:   2.61D-01  2.60D-02  1.06D-04
 -----------------------------------------------------------------------------

 *** DIIS iteration number    7
 RDSUPM called. NFMAT, ISYMDM(1:NFMAT)                     1
                     1

 ITDIIS, energy, error norm, change in energy, scr.thr., difden:
@ DIIS iter.   7    -361.186587089        2.35393D-03   -1.18D-05  -20    F

 (DIIS_RED) Control Parameters C2DIIS =         F NEVC =    7


 (DIIS_RED) B matrix:

               Column   1     Column   2     Column   3     Column   4     Column   5     Column   6
       1      16.72938071
       2       0.67695645     1.36287796
       3       0.82669479    -0.00248006     0.14298692
       4       0.05815620     0.08257418     0.00518703     0.00902495
       5       0.02141642     0.00749423     0.00568490     0.00097014     0.00081023
       6      -0.00473991    -0.00015752     0.00073793     0.00051968     0.00003444     0.00011289
       7       0.00034204     0.00024739    -0.00001175     0.00001323     0.00004623    -0.00000041

               Column   7
       7       0.00000554
    ==== End of matrix output ====

 DIIS C vector; C2DIIS = F, LAMBDA = -1.26D-06
   -0.000231   -0.000797    0.005702    0.021905   -0.114734   -0.098444    1.186598
* Read MO coefficients from SIRIUS.RST with label "NEWORB  " and header info:  2Dec18  DIIS   7
      Virial theorem: -V/T =      2.002438
@      MULPOP N      -0.39; H       0.24; H       0.28; H       0.38; H       0.31; O      -0.61; O      -0.72; O      -0.60; O      -0.64; H       0.30; 
@             H       0.35; H       0.38; H       0.40; H       0.29; H       0.35; H       0.38; H       0.30; 

 DIIS Fock eigenvalues in symmetry 1
      -20.64919      -20.63727      -20.63464      -20.60782      -15.71859
       -1.43737       -1.43158       -1.42663       -1.38053       -1.32356
       -0.81442       -0.79568       -0.79279       -0.79129       -0.78123
       -0.77025       -0.73148       -0.68786       -0.66491       -0.66285
       -0.62467       -0.60144       -0.59275       -0.59005       -0.56325
        0.05613        0.08870        0.11463        0.14652        0.15836
        0.17473        0.19380        0.21550        0.23751        0.24868
        0.26318        0.32749        0.34966        0.36390        0.39712
        0.48223        0.49977        0.50878        0.51508        0.54153
        0.56038        0.56839        0.59710        0.62646        0.82009
        0.83058        0.84449        0.88184        0.91264        0.92621
        0.95630        0.97696        0.99968        1.02100        1.02749
        1.04489        1.05208        1.08405        1.11878        1.16176
        1.17579        1.19661        1.26213        1.27894        1.32618
        1.35180        1.40937        1.43320        1.46544        1.47482
        1.48604        1.49659        1.51428        1.53673        1.59911
        1.62378        1.64814        1.66059        1.68910        1.74381
        1.77782        1.81053        1.82696        1.89000        1.92189
        1.94838        2.00427        2.11599        2.15519        2.16027
        2.19350        2.20564        2.24416        2.26220        2.29665
        2.30975        2.32892        2.37171        2.37902        2.52825
        2.56796        2.58444        2.59675        2.62260        2.63937
        2.65605        2.69522        2.71780        2.73553        2.78091
        2.81181        2.92163        2.93918        3.15443        3.22187
        3.24138        3.31966        3.36762        3.40622        3.41526
        3.42394        3.45713        3.46950        3.48818        3.50168
        3.57220        3.61649        3.62565        3.63689        3.93618
        3.94096        3.94904        3.98547        4.12192        4.14449
        4.17205        4.23392        5.00632        5.07937        5.09268
        5.27195        5.28806        5.34941        5.36873        5.66575
        5.72063        5.77392        5.82382        6.02921        6.04599
        6.07343        6.09724       36.88082       51.44441       51.45094
       51.46870       51.49059
 Time used in FCKEIG, thr_jaco:   2.71D-01  2.80D-02  1.01D-07
 CPU and wall times used in FCKEIG, THR_FCKEIG:   2.73D-01  2.80D-02  2.35D-05
 -----------------------------------------------------------------------------

 *** DIIS iteration number    8
 RDSUPM called. NFMAT, ISYMDM(1:NFMAT)                     1
                     1

 ITDIIS, energy, error norm, change in energy, scr.thr., difden:
@ DIIS iter.   8    -361.186587665        3.53454D-04   -5.76D-07  -20    F

 (DIIS_RED) Control Parameters C2DIIS =         F NEVC =    8


 (DIIS_RED) B matrix:

               Column   1     Column   2     Column   3     Column   4     Column   5     Column   6
       1      16.72938071
       2       0.67695645     1.36287796
       3       0.82669479    -0.00248006     0.14298692
       4       0.05815620     0.08257418     0.00518703     0.00902495
       5       0.02141642     0.00749423     0.00568490     0.00097014     0.00081023
       6      -0.00473991    -0.00015752     0.00073793     0.00051968     0.00003444     0.00011289
       7       0.00034204     0.00024739    -0.00001175     0.00001323     0.00004623    -0.00000041
       8       0.00008718    -0.00004053     0.00000657     0.00000137     0.00000042     0.00000159

               Column   7     Column   8
       7       0.00000554
       8       0.00000030     0.00000012
    ==== End of matrix output ====

 DIIS C vector; C2DIIS = F, LAMBDA = -7.25D-08
   -0.000002   -0.000033   -0.000436    0.000468    0.011709   -0.019246   -0.149627    1.157168
* Read MO coefficients from SIRIUS.RST with label "NEWORB  " and header info:  2Dec18  DIIS   8
      Virial theorem: -V/T =      2.002455
@      MULPOP N      -0.39; H       0.24; H       0.28; H       0.38; H       0.31; O      -0.61; O      -0.72; O      -0.60; O      -0.64; H       0.30; 
@             H       0.35; H       0.38; H       0.40; H       0.29; H       0.35; H       0.38; H       0.30; 

 DIIS Fock eigenvalues in symmetry 1
      -20.64919      -20.63724      -20.63458      -20.60790      -15.71860
       -1.43735       -1.43157       -1.42662       -1.38055       -1.32356
       -0.81441       -0.79567       -0.79279       -0.79129       -0.78123
       -0.77023       -0.73150       -0.68787       -0.66492       -0.66287
       -0.62471       -0.60143       -0.59273       -0.59003       -0.56328
        0.05614        0.08870        0.11463        0.14651        0.15836
        0.17473        0.19380        0.21551        0.23751        0.24868
        0.26318        0.32748        0.34966        0.36390        0.39712
        0.48224        0.49977        0.50879        0.51508        0.54153
        0.56037        0.56838        0.59710        0.62646        0.82009
        0.83057        0.84449        0.88184        0.91264        0.92621
        0.95629        0.97696        0.99969        1.02101        1.02749
        1.04490        1.05208        1.08405        1.11877        1.16176
        1.17578        1.19661        1.26213        1.27895        1.32618
        1.35180        1.40937        1.43320        1.46544        1.47481
        1.48604        1.49659        1.51428        1.53672        1.59911
        1.62378        1.64813        1.66058        1.68910        1.74380
        1.77782        1.81053        1.82696        1.89000        1.92189
        1.94838        2.00426        2.11598        2.15519        2.16027
        2.19350        2.20564        2.24415        2.26220        2.29664
        2.30975        2.32892        2.37171        2.37903        2.52824
        2.56796        2.58444        2.59675        2.62260        2.63937
        2.65605        2.69521        2.71779        2.73551        2.78091
        2.81181        2.92162        2.93917        3.15442        3.22186
        3.24137        3.31965        3.36761        3.40621        3.41524
        3.42396        3.45714        3.46949        3.48815        3.50170
        3.57220        3.61650        3.62567        3.63686        3.93619
        3.94093        3.94903        3.98548        4.12192        4.14450
        4.17201        4.23395        5.00631        5.07936        5.09267
        5.27190        5.28805        5.34943        5.36876        5.66577
        5.72063        5.77394        5.82379        6.02916        6.04602
        6.07343        6.09725       36.88081       51.44441       51.45097
       51.46876       51.49051
 Time used in FCKEIG, thr_jaco:   2.72D-01  2.70D-02  1.51D-08
 CPU and wall times used in FCKEIG, THR_FCKEIG:   2.72D-01  2.70D-02  3.53D-06
 -----------------------------------------------------------------------------

 *** DIIS iteration number    9
 RDSUPM called. NFMAT, ISYMDM(1:NFMAT)                     1
                     1

 ITDIIS, energy, error norm, change in energy, scr.thr., difden:
@ DIIS iter.   9    -361.186587680        1.13675D-04   -1.54D-08  -20    F

 (DIIS_RED) Control Parameters C2DIIS =         F NEVC =    8


 (DIIS_RED) B matrix:

[...]

 Principal values of diagonalized transition strength matrix:

             a.u.               
 1      -0.00000001
 2       0.00000000
 3       0.00023080

 Principal axis of diagonalized transition strength matrix:


               Column   1     Column   2     Column   3
       1       0.64932743    -0.61198807     0.45149140
       2       0.69198438     0.72171390    -0.01693087
       3      -0.31548613     0.32341868     0.89211482
    ==== End of matrix output ====


 CCSD   oscillator strength matrix for state nr. 13 of symmetry 1
 CCSD  excitation energy:15.19759176


               Column   1     Column   2     Column   3
       1       0.00047664    -0.00001791     0.00094189
       2      -0.00001791     0.00000063    -0.00003530
       3       0.00094189    -0.00003530     0.00186108
    ==== End of matrix output ====

 Principal values of diagonalized oscillator strength matrix:

             a.u.               
 1      -0.00000008
 2       0.00000000
 3       0.00233843

 Principal axis of diagonalized oscillator strength matrix:


               Column   1     Column   2     Column   3
       1       0.64932743    -0.61198807     0.45149140
       2       0.69198438     0.72171390    -0.01693087
       3      -0.31548613     0.32341868     0.89211482
    ==== End of matrix output ====


 CCSD  Transition strength matrix for state nr. 14 of symmetry 1
 CCSD  excitation energy:15.22736798

 Gauge: length

               Column   1     Column   2     Column   3
       1     3.261892D-06   1.338285D-05   2.794896D-05
       2     1.338285D-05   5.488784D-05   1.146286D-04
       3     2.794896D-05   1.146286D-04   2.393921D-04
    ==== End of matrix output ====

 Principal values of diagonalized transition strength matrix:

             a.u.               
 1      -0.00000000
 2       0.00000000
 3       0.00029754

 Principal axis of diagonalized transition strength matrix:


               Column   1     Column   2     Column   3
       1       0.99447901    -0.00670717     0.10472112
       2      -0.03914251     0.90221812     0.42950010
       3      -0.09736202    -0.43122788     0.89697444
    ==== End of matrix output ====


 CCSD   oscillator strength matrix for state nr. 14 of symmetry 1
 CCSD  excitation energy:15.22736798


               Column   1     Column   2     Column   3
       1       0.00003311     0.00013586     0.00028373
       2       0.00013586     0.00055720     0.00116366
       3       0.00028373     0.00116366     0.00243021
    ==== End of matrix output ====

 Principal values of diagonalized oscillator strength matrix:

             a.u.               
 1      -0.00000001
 2       0.00000000
 3       0.00302053

 Principal axis of diagonalized oscillator strength matrix:


               Column   1     Column   2     Column   3
       1       0.99447901    -0.00670717     0.10472112
       2      -0.03914251     0.90221812     0.42950010
       3      -0.09736202    -0.43122788     0.89697444
    ==== End of matrix output ====


 CCSD  Transition strength matrix for state nr. 15 of symmetry 1
 CCSD  excitation energy:15.23879689

 Gauge: length

               Column   1     Column   2     Column   3
       1     2.025126D-07   1.683048D-07  -6.937833D-06
       2     1.683048D-07   1.398492D-07  -5.764854D-06
       3    -6.937833D-06  -5.764854D-06   2.376385D-04
    ==== End of matrix output ====

 Principal values of diagonalized transition strength matrix:

             a.u.               
 1      -0.00000000
 2      -0.00000000
 3       0.00023798

 Principal axis of diagonalized transition strength matrix:


               Column   1     Column   2     Column   3
       1       0.99951249     0.01112090    -0.02917389
       2      -0.01182984     0.99963614    -0.02424147
       3       0.02889369     0.02457477     0.99928036
    ==== End of matrix output ====


 CCSD   oscillator strength matrix for state nr. 15 of symmetry 1
 CCSD  excitation energy:15.23879689


               Column   1     Column   2     Column   3
       1       0.00000206     0.00000171    -0.00007048
       2       0.00000171     0.00000142    -0.00005857
       3      -0.00007048    -0.00005857     0.00241422
    ==== End of matrix output ====

 Principal values of diagonalized oscillator strength matrix:

             a.u.               
 1      -0.00000000
 2      -0.00000000
 3       0.00241770

 Principal axis of diagonalized oscillator strength matrix:


               Column   1     Column   2     Column   3
       1       0.99951249     0.01112090    -0.02917389
       2      -0.01182984     0.99963614    -0.02424147
       3       0.02889369     0.02457477     0.99928036
    ==== End of matrix output ====

  Total time for    135 linear response residues:     245.06 seconds.
  

 *******************************************************************************
 *******************************************************************************
 *                                                                             *
 *                                                                             *
 *                   SUMMARY OF COUPLED CLUSTER CALCULATION                    *
 *                                                                             *
 *                                                                             *
 *******************************************************************************
 *******************************************************************************

                                                                                
                                                                                
            Total SCF   energy:                  -361.1865876814                
            Total MP2   energy:                  -362.2897262455                
            Total CCSD  energy:                  -362.3312207153                
                                                                                
                                                                                
            Total SCF   energy:                  -361.1865876814                
            Total RSTAR energy:                  -362.3312207153                
            Total CCSD  energy:                  -362.3313499055                
                                                                                
                                                                                
            Total SCF   energy:                  -361.1865876814                
            Total RSTAR energy:                  -362.3313499055                
            Total CCSD  energy:                  -362.3313510534                
                                                                                
                                                                                
            Total SCF   energy:                  -361.1865876814                
            Total RSTAR energy:                  -362.3313510534                
            Total CCSD  energy:                  -362.3313511523                
                                                                                
                                                                                
            Total SCF   energy:                  -361.1865876814                
            Total RSTAR energy:                  -362.3313511523                
            Total CCSD  energy:                  -362.3313511561                
                                                                                
                                                                                
            Total SCF   energy:                  -361.1865876814                
            Total RSTAR energy:                  -362.3313511561                
            Total CCSD  energy:                  -362.3313511563                
            CCSD Total  energy:                  -362.7302340500                
            CCSD E(QM/MM)     :                    -0.3949502280                
                                                                                
                                                                                
                                                                                
 +=============================================================================+
 |  sym. | Exci.  |        CCSD       Excitation energies            | ||T1||  |
 |(spin, |        +------------------------------------------------------------+
 | spat) |        |     Hartree    |       eV.      |     cm-1       |    %    |
 +=============================================================================+
 | ^1A   |    1   |    14.9183133  |     405.94796  |   3274191.289  |  88.53  |
 | ^1A   |    2   |    14.9744645  |     407.47591  |   3286515.048  |  88.87  |
 | ^1A   |    3   |    14.9993586  |     408.15331  |   3291978.676  |  88.89  |
 | ^1A   |    4   |    15.0283357  |     408.94182  |   3298338.405  |  88.83  |
 | ^1A   |    5   |    15.0595434  |     409.79102  |   3305187.700  |  88.02  |
 | ^1A   |    6   |    15.0771152  |     410.26917  |   3309044.271  |  88.00  |
 | ^1A   |    7   |    15.1029322  |     410.97169  |   3314710.448  |  87.92  |
 | ^1A   |    8   |    15.1311023  |     411.73824  |   3320893.058  |  88.09  |
 | ^1A   |    9   |    15.1355249  |     411.85858  |   3321863.707  |  88.13  |
 | ^1A   |   10   |    15.1575455  |     412.45780  |   3326696.688  |  88.04  |
 | ^1A   |   11   |    15.1592566  |     412.50436  |   3327072.219  |  87.85  |
 | ^1A   |   12   |    15.1921968  |     413.40071  |   3334301.771  |  87.98  |
 | ^1A   |   13   |    15.1975918  |     413.54751  |   3335485.819  |  87.98  |
 | ^1A   |   14   |    15.2273680  |     414.35776  |   3342020.944  |  87.95  |
 | ^1A   |   15   |    15.2387969  |     414.66876  |   3344529.298  |  87.86  |
 +=============================================================================+
                                                                                
                                                                                
     Total energies in Hartree:                                                 
             1 ^1A       -347.4169704898                                        
             2 ^1A       -347.3608193100                                        
             3 ^1A       -347.3359251892                                        
             4 ^1A       -347.3069481332                                        
             5 ^1A       -347.2757404489                                        
             6 ^1A       -347.2581686199                                        
             7 ^1A       -347.2323516141                                        
             8 ^1A       -347.2041815691                                        
             9 ^1A       -347.1997589701                                        
            10 ^1A       -347.1777382855                                        
            11 ^1A       -347.1760272397                                        
            12 ^1A       -347.1430869800                                        
            13 ^1A       -347.1376920575                                        
            14 ^1A       -347.1079158386                                        
            15 ^1A       -347.0964869369                                        
                                                                                
                                                                                
 +=============================================================================+
 |  sym. | Exci.  |        CCSD       Length   Gauge Oscillator Strength       |
 |(spin, |        +------------------------------------------------------------+
 | spat) |        | Dipole Strength(a.u.) | Oscillator strength  | Direction   |
 +=============================================================================+
 | ^1A   |    1   |        0.0004677      |      0.0046512       |  (Y,Z)      |
 | ^1A   |    2   |        0.0039196      |      0.0391293       |  (Y,Z)      |
 | ^1A   |    3   |        0.0036378      |      0.0363767       |  (Y,Z)      |
 | ^1A   |    4   |        0.0036647      |      0.0367160       |  (Y,Z)      |
 | ^1A   |    5   |        0.0005251      |      0.0052719       |  (Y,Z)      |
 | ^1A   |    6   |        0.0000566      |      0.0005692       |  (Y,Z)      |
 | ^1A   |    7   |        0.0002025      |      0.0020389       |  (Y,Z)      |
 | ^1A   |    8   |        0.0004443      |      0.0044818       |  (Y,Z)      |
 | ^1A   |    9   |        0.0004276      |      0.0043147       |  (Y,Z)      |
 | ^1A   |   10   |        0.0006258      |      0.0063238       |  (Y,Z)      |
 | ^1A   |   11   |        0.0001788      |      0.0018066       |  (Y,Z)      |
 | ^1A   |   12   |        0.0002907      |      0.0029440       |  (Y,Z)      |
 | ^1A   |   13   |        0.0002308      |      0.0023384       |  (Y,Z)      |
 | ^1A   |   14   |        0.0002975      |      0.0030205       |  (Y,Z)      |
 | ^1A   |   15   |        0.0002380      |      0.0024177       |  (Y,Z)      |
 +=============================================================================+

  1 a.u. =        27.21138 eV.  
  1 a.u. =    219474.62934 cm-1.
  

 *******************************************************************************
 *******************************************************************************
 *                                                                             *
 *                                                                             *
 *                      END OF COUPLED CLUSTER CALCULATION                     *
 *                                                                             *
 *                                                                             *
 *******************************************************************************
 *******************************************************************************


 CPU and wall time for CC :  587014.438   69965.866

 
     Date and time (Linux)  : Mon Dec  3 17:15:58 2018
     Host name              : n-62-23-14                              


                      .-------------------------------------.
                      | End of Coupled Cluster Section (CC) |
                      `-------------------------------------'

  Total CPU  time used in DALTON: 163 hours 18 minutes 42 seconds
  Total wall time used in DALTON:  19 hours 28 minutes 57 seconds

 
     Date and time (Linux)  : Mon Dec  3 17:15:58 2018
     Host name              : n-62-23-14                              
  

 +---------------------------------------------------------+ 
 | List of selected calculated molecular properties (a.u.) | 
 +---------------------------------------------------------+ 

  Properties are read from unit number                      4

 CCSD       properties :
 #  1 1 CCSD/MM  Ground state Energy =    -362.7302340500
 #  2 1 E_QM/MM  Ground state Energy =      -0.3949502280
 #  3 1 Sy: 1 Sp: 1 Exc:  1 E_tot:   -347.4169704898 w:     14.9183133322 E_grs:   -362.3352838220
 #  4 1 Exctot   Excited state Energy =    -347.4169704898
 #  5 1 Sy: 1 Sp: 1 Exc:  2 E_tot:   -347.3608193100 w:     14.9744645120 E_grs:   -362.3352838220
 #  6 1 Exctot   Excited state Energy =    -347.3608193100
 #  7 1 Sy: 1 Sp: 1 Exc:  3 E_tot:   -347.3359251892 w:     14.9993586328 E_grs:   -362.3352838220
 #  8 1 Exctot   Excited state Energy =    -347.3359251892
 #  9 1 Sy: 1 Sp: 1 Exc:  4 E_tot:   -347.3069481332 w:     15.0283356889 E_grs:   -362.3352838220
 # 10 1 Exctot   Excited state Energy =    -347.3069481332
 # 11 1 Sy: 1 Sp: 1 Exc:  5 E_tot:   -347.2757404489 w:     15.0595433731 E_grs:   -362.3352838220
 # 12 1 Exctot   Excited state Energy =    -347.2757404489
 # 13 1 Sy: 1 Sp: 1 Exc:  6 E_tot:   -347.2581686199 w:     15.0771152021 E_grs:   -362.3352838220
 # 14 1 Exctot   Excited state Energy =    -347.2581686199
 # 15 1 Sy: 1 Sp: 1 Exc:  7 E_tot:   -347.2323516141 w:     15.1029322079 E_grs:   -362.3352838220
 # 16 1 Exctot   Excited state Energy =    -347.2323516141
 # 17 1 Sy: 1 Sp: 1 Exc:  8 E_tot:   -347.2041815691 w:     15.1311022529 E_grs:   -362.3352838220
 # 18 1 Exctot   Excited state Energy =    -347.2041815691
 # 19 1 Sy: 1 Sp: 1 Exc:  9 E_tot:   -347.1997589701 w:     15.1355248519 E_grs:   -362.3352838220
 # 20 1 Exctot   Excited state Energy =    -347.1997589701
 # 21 1 Sy: 1 Sp: 1 Exc: 10 E_tot:   -347.1777382855 w:     15.1575455365 E_grs:   -362.3352838220
 # 22 1 Exctot   Excited state Energy =    -347.1777382855
 # 23 1 Sy: 1 Sp: 1 Exc: 11 E_tot:   -347.1760272397 w:     15.1592565823 E_grs:   -362.3352838220
 # 24 1 Exctot   Excited state Energy =    -347.1760272397
 # 25 1 Sy: 1 Sp: 1 Exc: 12 E_tot:   -347.1430869800 w:     15.1921968420 E_grs:   -362.3352838220
 # 26 1 Exctot   Excited state Energy =    -347.1430869800
 # 27 1 Sy: 1 Sp: 1 Exc: 13 E_tot:   -347.1376920575 w:     15.1975917645 E_grs:   -362.3352838220
 # 28 1 Exctot   Excited state Energy =    -347.1376920575
 # 29 1 Sy: 1 Sp: 1 Exc: 14 E_tot:   -347.1079158386 w:     15.2273679834 E_grs:   -362.3352838220
 # 30 1 Exctot   Excited state Energy =    -347.1079158386
 # 31 1 Sy: 1 Sp: 1 Exc: 15 E_tot:   -347.0964869369 w:     15.2387968851 E_grs:   -362.3352838220
 # 32 1 Exctot   Excited state Energy =    -347.0964869369
 # 33 1 |<O|XDIPLEN |i(14.918313)>| =     0.02133508
 # 35 1 |<O|XDIPLEN |i(14.974465)>| =     0.02954621
 # 37 1 |<O|XDIPLEN |i(14.999359)>| =     0.02853321
 # 39 1 |<O|XDIPLEN |i(15.028336)>| =     0.04545064
 # 41 1 |<O|XDIPLEN |i(15.059543)>| =     0.00297003
 # 43 1 |<O|XDIPLEN |i(15.077115)>| =     0.00566680
 # 45 1 |<O|XDIPLEN |i(15.102932)>| =     0.00521137
 # 47 1 |<O|XDIPLEN |i(15.131102)>| =     0.00105172
 # 49 1 |<O|XDIPLEN |i(15.135525)>| =     0.00162634
 # 51 1 |<O|XDIPLEN |i(15.157546)>| =     0.02337959
 # 53 1 |<O|XDIPLEN |i(15.159257)>| =     0.00540475
 # 55 1 |<O|XDIPLEN |i(15.192197)>| =     0.01174632
 # 57 1 |<O|XDIPLEN |i(15.197592)>| =     0.00685891
 # 59 1 |<O|XDIPLEN |i(15.227368)>| =     0.00180607
 # 61 1 |<O|XDIPLEN |i(15.238797)>| =     0.00045001
 # 63 1 |<O|YDIPLEN |i(14.918313)>| =     0.00321613
 # 65 1 |<O|YDIPLEN |i(14.974465)>| =     0.05452447
 # 67 1 |<O|YDIPLEN |i(14.999359)>| =     0.02537125
 # 69 1 |<O|YDIPLEN |i(15.028336)>| =     0.01723884
 # 71 1 |<O|YDIPLEN |i(15.059543)>| =     0.00821760
 # 73 1 |<O|YDIPLEN |i(15.077115)>| =     0.00047100
 # 75 1 |<O|YDIPLEN |i(15.102932)>| =     0.01322809
 # 77 1 |<O|YDIPLEN |i(15.131102)>| =     0.00824319
 # 79 1 |<O|YDIPLEN |i(15.135525)>| =     0.01989669
 # 81 1 |<O|YDIPLEN |i(15.157546)>| =     0.00734113
 # 83 1 |<O|YDIPLEN |i(15.159257)>| =     0.00036296
 # 85 1 |<O|YDIPLEN |i(15.192197)>| =     0.00589606
 # 87 1 |<O|YDIPLEN |i(15.197592)>| =     0.00025014
 # 89 1 |<O|YDIPLEN |i(15.227368)>| =     0.00740863
 # 91 1 |<O|YDIPLEN |i(15.238797)>| =     0.00037396
 # 93 1 |<O|ZDIPLEN |i(14.918313)>| =     0.00146053
 # 95 1 |<O|ZDIPLEN |i(14.974465)>| =     0.00858548
 # 97 1 |<O|ZDIPLEN |i(14.999359)>| =     0.04669028
 # 99 1 |<O|ZDIPLEN |i(15.028336)>| =     0.03607965
 #101 1 |<O|ZDIPLEN |i(15.059543)>| =     0.02118378
 #103 1 |<O|ZDIPLEN |i(15.077115)>| =     0.00492897
 #105 1 |<O|ZDIPLEN |i(15.102932)>| =     0.00059831
 #107 1 |<O|ZDIPLEN |i(15.131102)>| =     0.01937101
 #109 1 |<O|ZDIPLEN |i(15.135525)>| =     0.00539270
 #111 1 |<O|ZDIPLEN |i(15.157546)>| =     0.00503043
 #113 1 |<O|ZDIPLEN |i(15.159257)>| =     0.01222388
 #115 1 |<O|ZDIPLEN |i(15.192197)>| =     0.01085987
 #117 1 |<O|ZDIPLEN |i(15.197592)>| =     0.01355315
 #119 1 |<O|ZDIPLEN |i(15.227368)>| =     0.01547230
 #121 1 |<O|ZDIPLEN |i(15.238797)>| =     0.01541553

 THE_END   
