

     ************************************************************************
     *************** Dalton - An Electronic Structure Program ***************
     ************************************************************************

    This is output from DALTON release Dalton2017.alpha (2016)
         ( Web site: http://daltonprogram.org )

   ----------------------------------------------------------------------------

    NOTE:
     
    Dalton is an experimental code for the evaluation of molecular
    properties using (MC)SCF, DFT, CI, and CC wave functions.
    The authors accept no responsibility for the performance of
    the code or for the correctness of the results.
     
    The code (in whole or part) is provided under a licence and
    is not to be reproduced for further distribution without
    the written permission of the authors or their representatives.
     
    See the home page "http://daltonprogram.org" for further information.
     
    If results obtained with this code are published,
    the appropriate citations would be both of:
     
       K. Aidas, C. Angeli, K. L. Bak, V. Bakken, R. Bast,
       L. Boman, O. Christiansen, R. Cimiraglia, S. Coriani,
       P. Dahle, E. K. Dalskov, U. Ekstroem,
       T. Enevoldsen, J. J. Eriksen, P. Ettenhuber, B. Fernandez,
       L. Ferrighi, H. Fliegl, L. Frediani, K. Hald, A. Halkier,
       C. Haettig, H. Heiberg, T. Helgaker, A. C. Hennum,
       H. Hettema, E. Hjertenaes, S. Hoest, I.-M. Hoeyvik,
       M. F. Iozzi, B. Jansik, H. J. Aa. Jensen, D. Jonsson,
       P. Joergensen, J. Kauczor, S. Kirpekar,
       T. Kjaergaard, W. Klopper, S. Knecht, R. Kobayashi, H. Koch,
       J. Kongsted, A. Krapp, K. Kristensen, A. Ligabue,
       O. B. Lutnaes, J. I. Melo, K. V. Mikkelsen, R. H. Myhre,
       C. Neiss, C. B. Nielsen, P. Norman, J. Olsen,
       J. M. H. Olsen, A. Osted, M. J. Packer, F. Pawlowski,
       T. B. Pedersen, P. F. Provasi, S. Reine, Z. Rinkevicius,
       T. A. Ruden, K. Ruud, V. Rybkin, P. Salek, C. C. M. Samson,
       A. Sanchez de Meras, T. Saue, S. P. A. Sauer,
       B. Schimmelpfennig, K. Sneskov, A. H. Steindal,
       K. O. Sylvester-Hvid, P. R. Taylor, A. M. Teale,
       E. I. Tellgren, D. P. Tew, A. J. Thorvaldsen, L. Thoegersen,
       O. Vahtras, M. A. Watson, D. J. D. Wilson, M. Ziolkowski
       and H. Agren,
       "The Dalton quantum chemistry program system",
       WIREs Comput. Mol. Sci. 2014, 4:269–284 (doi: 10.1002/wcms.1172)
     
    and
     
       Dalton, a Molecular Electronic Structure Program,
       Release Dalton2017.alpha (2016), see http://daltonprogram.org
   ----------------------------------------------------------------------------

    Authors in alphabetical order (major contribution(s) in parenthesis):

  Kestutis Aidas,           Vilnius University,           Lithuania   (QM/MM)
  Celestino Angeli,         University of Ferrara,        Italy       (NEVPT2)
  Keld L. Bak,              UNI-C,                        Denmark     (AOSOPPA, non-adiabatic coupling, magnetic properties)
  Vebjoern Bakken,          University of Oslo,           Norway      (DALTON; geometry optimizer, symmetry detection)
  Radovan Bast,             UiT The Arctic U. of Norway,  Norway      (DALTON installation and execution frameworks)
  Pablo Baudin,             University of Valencia,       Spain       (Cholesky excitation energies)
  Linus Boman,              NTNU,                         Norway      (Cholesky decomposition and subsystems)
  Ove Christiansen,         Aarhus University,            Denmark     (CC module)
  Renzo Cimiraglia,         University of Ferrara,        Italy       (NEVPT2)
  Sonia Coriani,            University of Trieste,        Italy       (CC module, MCD in RESPONS)
  Janusz Cukras,            University of Trieste,        Italy       (MChD in RESPONS)
  Paal Dahle,               University of Oslo,           Norway      (Parallelization)
  Erik K. Dalskov,          UNI-C,                        Denmark     (SOPPA)
  Thomas Enevoldsen,        Univ. of Southern Denmark,    Denmark     (SOPPA)
  Janus J. Eriksen,         Aarhus University,            Denmark     (Polarizable embedding model, TDA)
  Rasmus Faber,             University of Copenhagen,     Denmark     (Vib.avg. NMR with SOPPA, parallel AO-SOPPA)
  Berta Fernandez,          U. of Santiago de Compostela, Spain       (doublet spin, ESR in RESPONS)
  Lara Ferrighi,            Aarhus University,            Denmark     (PCM Cubic response)
  Heike Fliegl,             University of Oslo,           Norway      (CCSD(R12))
  Luca Frediani,            UiT The Arctic U. of Norway,  Norway      (PCM)
  Bin Gao,                  UiT The Arctic U. of Norway,  Norway      (Gen1Int library)
  Christof Haettig,         Ruhr-University Bochum,       Germany     (CC module)
  Kasper Hald,              Aarhus University,            Denmark     (CC module)
  Asger Halkier,            Aarhus University,            Denmark     (CC module)
  Frederik Beyer Hansen,    University of Copenhagen,     Denmark     (Parallel AO-SOPPA)
  Erik D. Hedegaard,        Univ. of Southern Denmark,    Denmark     (Polarizable embedding model, QM/MM)
  Hanne Heiberg,            University of Oslo,           Norway      (geometry analysis, selected one-electron integrals)
  Trygve Helgaker,          University of Oslo,           Norway      (DALTON; ABACUS, ERI, DFT modules, London, and much more)
  Alf Christian Hennum,     University of Oslo,           Norway      (Parity violation)
  Hinne Hettema,            University of Auckland,       New Zealand (quadratic response in RESPONS; SIRIUS supersymmetry)
  Eirik Hjertenaes,         NTNU,                         Norway      (Cholesky decomposition)
  Pi A. B. Haase,           University of Copenhagen,     Denmark     (Triplet AO-SOPPA)
  Maria Francesca Iozzi,    University of Oslo,           Norway      (RPA)
  Brano Jansik              Technical Univ. of Ostrava    Czech Rep.  (DFT cubic response)
  Hans Joergen Aa. Jensen,  Univ. of Southern Denmark,    Denmark     (DALTON; SIRIUS, RESPONS, ABACUS modules, London, and much more)
  Dan Jonsson,              UiT The Arctic U. of Norway,  Norway      (cubic response in RESPONS module)
  Poul Joergensen,          Aarhus University,            Denmark     (RESPONS, ABACUS, and CC modules)
  Maciej Kaminski,          University of Warsaw,         Poland      (CPPh in RESPONS)
  Joanna Kauczor,           Linkoeping University,        Sweden      (Complex polarization propagator (CPP) module)
  Sheela Kirpekar,          Univ. of Southern Denmark,    Denmark     (Mass-velocity & Darwin integrals)
  Wim Klopper,              KIT Karlsruhe,                Germany     (R12 code in CC, SIRIUS, and ABACUS modules)
  Stefan Knecht,            ETH Zurich,                   Switzerland (Parallel CI and MCSCF)
  Rika Kobayashi,           Australian National Univ.,    Australia   (DIIS in CC, London in MCSCF)
  Henrik Koch,              NTNU,                         Norway      (CC module, Cholesky decomposition)
  Jacob Kongsted,           Univ. of Southern Denmark,    Denmark     (Polarizable embedding model, QM/MM)
  Andrea Ligabue,           University of Modena,         Italy       (CTOCD, AOSOPPA)
  Nanna H. List             Univ. of Southern Denmark,    Denmark     (Polarizable embedding model)
  Ola B. Lutnaes,           University of Oslo,           Norway      (DFT Hessian)
  Juan I. Melo,             University of Buenos Aires,   Argentina   (LRESC, Relativistic Effects on NMR Shieldings)
  Kurt V. Mikkelsen,        University of Copenhagen,     Denmark     (MC-SCRF and QM/MM)
  Rolf H. Myhre,            NTNU,                         Norway      (Cholesky, subsystems and ECC2)
  Christian Neiss,          Univ. Erlangen-Nuernberg,     Germany     (CCSD(R12))
  Christian B. Nielsen,     University of Copenhagen,     Denmark     (QM/MM)
  Patrick Norman,           Linkoeping University,        Sweden      (Cubic response and complex frequency response in RESPONS)
  Jeppe Olsen,              Aarhus University,            Denmark     (SIRIUS CI/density modules)
  Jogvan Magnus H. Olsen,   Univ. of Southern Denmark,    Denmark     (Polarizable embedding model, QM/MM)
  Anders Osted,             Copenhagen University,        Denmark     (QM/MM)
  Martin J. Packer,         University of Sheffield,      UK          (SOPPA)
  Filip Pawlowski,          Kazimierz Wielki University,  Poland      (CC3)
  Morten N. Pedersen,       Univ. of Southern Denmark,    Denmark     (Polarizable embedding model)
  Thomas B. Pedersen,       University of Oslo,           Norway      (Cholesky decomposition)
  Patricio F. Provasi,      University of Northeastern,   Argentina   (Analysis of coupling constants in localized orbitals)
  Zilvinas Rinkevicius,     KTH Stockholm,                Sweden      (open-shell DFT, ESR)
  Elias Rudberg,            KTH Stockholm,                Sweden      (DFT grid and basis info)
  Torgeir A. Ruden,         University of Oslo,           Norway      (Numerical derivatives in ABACUS)
  Kenneth Ruud,             UiT The Arctic U. of Norway,  Norway      (DALTON; ABACUS magnetic properties and much more)
  Pawel Salek,              KTH Stockholm,                Sweden      (DALTON; DFT code)
  Claire C. M. Samson       University of Karlsruhe       Germany     (Boys localization, r12 integrals in ERI)
  Alfredo Sanchez de Meras, University of Valencia,       Spain       (CC module, Cholesky decomposition)
  Trond Saue,               Paul Sabatier University,     France      (direct Fock matrix construction)
  Stephan P. A. Sauer,      University of Copenhagen,     Denmark     (SOPPA(CCSD), SOPPA prop., AOSOPPA, vibrational g-factors)
  Bernd Schimmelpfennig,    Forschungszentrum Karlsruhe,  Germany     (AMFI module)
  Kristian Sneskov,         Aarhus University,            Denmark     (Polarizable embedding model, QM/MM)
  Arnfinn H. Steindal,      UiT The Arctic U. of Norway,  Norway      (parallel QM/MM, Polarizable embedding model)
  Casper Steinmann,         Univ. of Southern Denmark,    Denmark     (QFIT, Polarizable embedding model)
  K. O. Sylvester-Hvid,     University of Copenhagen,     Denmark     (MC-SCRF)
  Peter R. Taylor,          VLSCI/Univ. of Melbourne,     Australia   (Symmetry handling ABACUS, integral transformation)
  Andrew M. Teale,          University of Nottingham,     England     (DFT-AC, DFT-D)
  David P. Tew,             University of Bristol,        England     (CCSD(R12))
  Olav Vahtras,             KTH Stockholm,                Sweden      (triplet response, spin-orbit, ESR, TDDFT, open-shell DFT)
  David J. Wilson,          La Trobe University,          Australia   (DFT Hessian and DFT magnetizabilities)
  Hans Agren,               KTH Stockholm,                Sweden      (SIRIUS module, RESPONS, MC-SCRF solvation model)
 --------------------------------------------------------------------------------

     Date and time (Linux)  : Mon Nov 26 17:53:43 2018
     Host name              : n-62-23-22                              

 * Work memory size             :  1280000000 =  9.537 gigabytes.

 * Directories for basis set searches:
   1) /zhome/37/3/129401/NH3NH4/CCSD/AIMD_SAMPLING/nh4_4h2o
   2) /zhome/9a/4/124800/source/dalton/build-mlcc/basis


Compilation information
-----------------------

 Who compiled             | rfaber
 Host                     | hpclogin1
 System                   | Linux-2.6.32-696.1.1.el6.x86_64
 CMake generator          | Unix Makefiles
 Processor                | x86_64
 64-bit integers          | ON
 MPI                      | OFF
 Fortran compiler         | /opt/intel/2016update2/compilers_and_libraries_201
                          | 6.2.181/linux/bin/intel64/ifort
 Fortran compiler version | ifort (IFORT) 16.0.2 20160204
 C compiler               | /opt/intel/2016update2/compilers_and_libraries_201
                          | 6.2.181/linux/bin/intel64/icc
 C compiler version       | icc (ICC) 16.0.2 20160204
 C++ compiler             | /opt/intel/2016update2/compilers_and_libraries_201
                          | 6.2.181/linux/bin/intel64/icpc
 C++ compiler version     | icpc (ICC) 16.0.2 20160204
 Static linking           | OFF
 Last Git revision        | bb4d1599ca5680a9f3980451fc8bbefdba436d59
 Git branch               | mlcc
 Configuration time       | 2017-06-13 16:11:03.928841


   Content of the .dal input file
 ----------------------------------

**DALTON
.RUN WAVE FUNCTIONS
*QMMM
.QMMM
**INTEGRALS
.DIPLEN
**WAVE FUNCTIONS
.CC
*PRINT
!To check the origin of excit
.PRINTL
   0 11
*SCF INP
.THRESH
1.0D-7
*CC INP
.CCSD
.THRLEQ
 1.0D-9
.THRENR
 1.0D-10
.FROIMP
4
0
.PRINT
 1
.MAX IT
 1200
.MAXRED
 1200
.MXLRV
1199
*CCSLV
.CCMM
.MXSLIT
200
.MXINIT
4 5
*CCEXCI
.NCCEXC
 15
.CVSEPARA
1
1
*CCLRSD
.DIPOLE
**END OF DALTON INPUT


   Content of the .mol file
 ----------------------------

ATOMBASIS


Atomtypes=4 Charge=1 Nosymm Angstrom
   7.00000    1    Basis=6-311G**
N          0.000000        0.000000        0.000000
   1.00000    4    Basis=6-311G**
H         -0.079124        0.992303       -0.262304
H          0.832793       -0.463140       -0.407261
H         -0.862264       -0.525655       -0.379696
H         -0.064578       -0.166277        0.986034
   8.00000    4    Basis=6-311G**
O         -2.273669       -1.555891       -1.018322
O         -0.806370        2.509789       -1.550522
O          0.007689       -0.599925        2.708606
O          2.091471       -1.380857       -1.169623
   1.00000    8    Basis=6-311G**
H         -2.390984       -2.463307       -0.663108
H         -3.094925       -1.007242       -0.998575
H         -0.492786        2.171261       -2.411885
H         -1.807172        2.576688       -1.607079
H          0.549634       -1.279650        3.120895
H         -0.082808        0.087553        3.397419
H          2.028223       -2.245782       -0.811096
H          3.051136       -1.131058       -1.180347


       *******************************************************************
       *********** Output from DALTON general input processing ***********
       *******************************************************************

 --------------------------------------------------------------------------------
   Overall default print level:    0
   Print level for DALTON.STAT:    1

    HERMIT 1- and 2-electron integral sections will be executed
    "Old" integral transformation used (limited to max 255 basis functions)
    Wave function sections will be executed (SIRIUS module)
 --------------------------------------------------------------------------------


 Changes of defaults for *QMMM  :
 --------------------------------

 +------------------+
 |  WORD: | CHANGE: |
 +------------------+
 |   QMMM |       T |
 +------------------+
 


   ****************************************************************************
   *************** Output of molecule and basis set information ***************
   ****************************************************************************


    The two title cards from your ".mol" input:
    ------------------------------------------------------------------------
 1:                                                                         
 2:                                                                         
    ------------------------------------------------------------------------

  Coordinates are entered in Angstrom and converted to atomic units.
          - Conversion factor : 1 bohr = 0.52917721 A

  Atomic type no.    1
  --------------------
  Nuclear charge:   7.00000
  Number of symmetry independent centers:    1
  Number of basis sets to read;    2
  The basis set is "6-311G**" from the basis set library.
  Basis set file used for this atomic type with Z =   7 :
     "/zhome/9a/4/124800/source/dalton/build-mlcc/basis/6-311G**"

  Info about the basis set file: your basis has no documentation.
  Basis set: 6-311G**                                                                        

  Atomic type no.    2
  --------------------
  Nuclear charge:   1.00000
  Number of symmetry independent centers:    4
  Number of basis sets to read;    2
  The basis set is "6-311G**" from the basis set library.
  Basis set file used for this atomic type with Z =   1 :
     "/zhome/9a/4/124800/source/dalton/build-mlcc/basis/6-311G**"

  Info about the basis set file: your basis has no documentation.
  Basis set: 6-311G**                                                                        

  Atomic type no.    3
  --------------------
  Nuclear charge:   8.00000
  Number of symmetry independent centers:    4
  Number of basis sets to read;    2
  The basis set is "6-311G**" from the basis set library.
  Basis set file used for this atomic type with Z =   8 :
     "/zhome/9a/4/124800/source/dalton/build-mlcc/basis/6-311G**"

  Info about the basis set file: your basis has no documentation.
  Basis set: 6-311G**                                                                        

  Atomic type no.    4
  --------------------
  Nuclear charge:   1.00000
  Number of symmetry independent centers:    8
  Number of basis sets to read;    2
  The basis set is "6-311G**" from the basis set library.
  Basis set file used for this atomic type with Z =   1 :
     "/zhome/9a/4/124800/source/dalton/build-mlcc/basis/6-311G**"

  Info about the basis set file: your basis has no documentation.
  Basis set: 6-311G**                                                                        


                         SYMGRP: Point group information
                         -------------------------------

@    Point group: C1 


                                 Isotopic Masses
                                 ---------------

                           N          14.003074
                           H           1.007825
                           H           1.007825
                           H           1.007825
                           H           1.007825
                           O          15.994915
                           O          15.994915
                           O          15.994915
                           O          15.994915
                           H           1.007825
                           H           1.007825
                           H           1.007825
                           H           1.007825
                           H           1.007825
                           H           1.007825
                           H           1.007825
                           H           1.007825

                       Total mass:    90.076634 amu
                       Natural abundance:  98.500 %

 Center-of-mass coordinates (a.u.):   -0.380158   -0.417615   -0.371310


  Atoms and basis sets
  --------------------

  Number of atom types :    4
  Total number of atoms:   17

  label    atoms   charge   prim   cont     basis
  ----------------------------------------------------------------------
  N           1    7.0000    31    18      [11s5p1d|4s3p1d]                                   
  H           4    1.0000     8     6      [5s1p|3s1p]                                        
  O           4    8.0000    31    18      [11s5p1d|4s3p1d]                                   
  H           8    1.0000     8     6      [5s1p|3s1p]                                        
  ----------------------------------------------------------------------
  total:     17   51.0000   251   162
  ----------------------------------------------------------------------
  Spherical harmonic basis used.

  Threshold for neglecting AO integrals:  1.00D-12


  Cartesian Coordinates (a.u.)
  ----------------------------

  Total number of coordinates:   51
  N       :     1  x   0.0000000000    2  y   0.0000000000    3  z   0.0000000000
  H       :     4  x  -0.1495226899    5  y   1.8751809030    6  z  -0.4956827215
  H       :     7  x   1.5737506888    8  y  -0.8752077575    9  z  -0.7696117514
  H       :    10  x  -1.6294428074   11  y  -0.9933439862   12  z  -0.7175214508
  H       :    13  x  -0.1220347337   14  y  -0.3142179909   15  z   1.8633342099
  O       :    16  x  -4.2966117089   17  y  -2.9402078703   18  z  -1.9243496871
  O       :    19  x  -1.5238184554   20  y   4.7428138415   21  z  -2.9300619308
  O       :    22  x   0.0145301042   23  y  -1.1336939455   24  z   5.1185235205
  O       :    25  x   3.9523073884   26  y  -2.6094415478   27  z  -2.2102671395
  H       :    28  x  -4.5183049292   29  y  -4.6549755918   30  z  -1.2530925113
  H       :    31  x  -5.8485606274   32  y  -1.9034115216   33  z  -1.8870332653
  H       :    34  x  -0.9312305782   35  y   4.1030886359   36  z  -4.5578020950
  H       :    37  x  -3.4150601408   38  y   4.8692346296   39  z  -3.0369391712
  H       :    40  x   1.0386577290   41  y  -2.4181880358   42  z   5.8976368149
  H       :    43  x  -0.1564844410   44  y   0.1654511914   45  z   6.4201914418
  H       :    46  x   3.8327859904   47  y  -4.2439129164   48  z  -1.5327493011
  H       :    49  x   5.7658114101   50  y  -2.1373898515   51  z  -2.2305325625

  Max    interatomic separation is    6.6036 Angstrom (   12.4789 Bohr)
  between atoms   14 and   12, "H     " and "H     ".

  Min HX interatomic separation is    0.9384 Angstrom (    1.7734 Bohr)

  Min YX interatomic separation is    2.7657 Angstrom (    5.2264 Bohr)


  Bond distances (Angstrom):
  --------------------------

                  atom 1     atom 2       distance
                  ------     ------       --------
  bond distance:  H          N            1.029432
  bond distance:  H          N            1.036294
  bond distance:  H          N            1.078880
  bond distance:  H          N            1.002039
  bond distance:  H          O            0.981501
  bond distance:  H          O            0.987860
  bond distance:  H          O            0.977181
  bond distance:  H          O            1.004629
  bond distance:  H          O            0.962140
  bond distance:  H          O            0.977384
  bond distance:  H          O            0.938423
  bond distance:  H          O            0.991701


  Bond angles (degrees):
  ----------------------

                  atom 1     atom 2     atom 3         angle
                  ------     ------     ------         -----
  bond angle:     H          N          H            113.106
  bond angle:     H          N          H            108.575
  bond angle:     H          N          H            113.937
  bond angle:     H          N          H            106.632
  bond angle:     H          N          H            111.368
  bond angle:     H          N          H            102.354
  bond angle:     H          O          H            114.008
  bond angle:     H          O          H            107.045
  bond angle:     H          O          H            104.305
  bond angle:     H          O          H            107.549




 Principal moments of inertia (u*A**2) and principal axes
 --------------------------------------------------------

   IA     341.400240          0.389229   -0.594615    0.703515
   IB     433.223911          0.809150   -0.144276   -0.569615
   IC     462.767166          0.440202    0.790960    0.424976


 Rotational constants
 --------------------

               A                   B                   C

           1480.3124           1166.5538           1092.0805 MHz
            0.049378            0.038912            0.036428 cm-1


@  Nuclear repulsion energy :  198.250407894108 Hartree


                     .---------------------------------------.
                     | Starting in Integral Section (HERMIT) |
                     `---------------------------------------'



 ***************************************************************************************
 ****************** Output from **INTEGRALS input processing (HERMIT) ******************
 ***************************************************************************************



    *************************************************************************
    ****************** Output from HERMIT input processing ******************
    *************************************************************************


 Default print level:        1

 * Nuclear model: Point charge

 Calculation of one- and two-electron Hamiltonian integrals.

 The following one-electron property integrals are calculated as requested:
          - overlap integrals
          - dipole length integrals

 Center of mass  (bohr):     -0.380158205108     -0.417615252427     -0.371310343439
 Operator center (bohr):      0.000000000000      0.000000000000      0.000000000000
 Gauge origin    (bohr):      0.000000000000      0.000000000000      0.000000000000
 Dipole origin   (bohr):      0.000000000000      0.000000000000      0.000000000000
 
  *********************************** 
  QMMM electrostatic potential: 
  Multipole order                                    0
  Isotropic polarization  
  *********************************** 
 
  ---------------- 
  QMMM information 
  ---------------- 
 
  MM coordinates in au 
  -------------------- 
     1      1.281153      2.592854     -7.138439
     2      1.339253      0.718071     -6.990207
     3      2.899210      3.178723     -6.573758
     4     10.859946      8.814928     -9.524720
     5      9.688031     10.258220     -9.493071
     6      9.883636      7.384955    -10.177041
     7      6.053991      4.825720     -5.598198
     8      6.882084      6.433737     -5.070339
     9      7.366254      3.918831     -6.641607
    10      9.137202      8.194204     -2.833941
    11      9.420368      6.921812     -1.461261
    12     10.831693      9.088369     -2.886948
    13    -10.605137     -7.163205     -8.627573
    14     -9.251663     -8.332592     -9.427233
    15    -10.038858     -5.432299     -9.150267
    16      4.312467      2.877142     -0.589133
    17      3.811185      4.428906      0.248361
    18      5.355987      3.496827     -1.996968
    19     -9.508248      9.148707     -5.226571
    20    -10.763583      8.831450     -6.568701
    21     -9.662616     11.006398     -5.016316
    22     -1.446797    -10.536021      0.714696
    23     -0.858493    -12.125016      0.071313
    24     -2.004807    -10.796296      2.467232
    25      6.260859     -1.232723    -10.501624
    26      5.012994     -2.227530     -9.450354
    27      7.260197     -2.348586    -11.519634
    28      7.679541      8.922786      4.755335
    29      7.793299     10.708188      5.058874
    30      7.759399      8.385325      6.540025
    31     -1.909542      5.706378    -10.039709
    32     -2.472899      5.664681    -11.798103
    33     -2.353992      4.046163     -9.403156
    34     -7.663988      0.582911     -2.075670
    35     -8.918090      0.507607     -0.554894
    36     -6.994755      2.282602     -2.166635
    37      7.983265    -10.027391     -8.603462
    38      9.604032     -9.244882     -8.510351
    39      7.251006    -10.151771     -6.923097
    40      2.633411     -2.326143     -6.960483
    41      0.982261     -3.172527     -7.071580
    42      2.908933     -2.216310     -5.087993
    43    -11.259236     -0.459037     -5.997522
    44    -10.520963     -1.477860     -7.393300
    45     -9.716907     -0.243302     -4.749050
    46      9.372492     -6.878040     -1.046846
    47      8.204618     -8.101781     -1.951231
    48      8.879940     -5.130797     -1.567397
    49     10.743764      5.512909      1.683876
    50     12.112723      6.702800      1.790593
    51      9.593599      6.573014      2.620735
    52      5.071025    -10.607989      9.483887
    53      3.540731    -11.528688      8.918115
    54      5.294620    -11.161609     11.290828
    55    -11.697099      0.786419      1.344593
    56    -11.631164     -0.151943      3.022097
    57    -12.091290      2.540718      1.652862
    58     -0.390431     11.313535     -5.969917
    59      0.879601     10.655306     -7.078230
    60     -1.976650     10.293036     -6.270843
    61     -6.594711      0.556764      9.910485
    62     -5.304592      0.568637     11.243460
    63     -6.191553     -0.689493      8.490961
    64     -5.458096     -3.664160      6.582793
    65     -4.146847     -2.915154      5.535441
    66     -4.476062     -4.764757      7.809316
    67     -9.674634     -9.323463     -4.057508
    68     -9.978674     -8.301142     -5.696715
    69    -10.883536     -8.399033     -3.006496
    70     -4.699235      9.806902     -7.888974
    71     -6.276544      9.579725     -6.862140
    72     -4.132956      8.253152     -8.736555
    73      9.867041     -3.935706      9.868418
    74      9.899514     -2.823549      8.411787
    75      8.999035     -5.501652      9.357060
    76     -2.977766     -7.809815      9.902431
    77     -4.716872     -8.353786      9.813503
    78     -2.430371     -7.881490     11.694262
    79      2.835776      7.778194      2.987855
    80      4.699471      8.176764      2.967898
    81      2.250841      8.155816      1.215056
    82     -2.520953     -3.440471     -7.002161
    83     -2.711487     -5.281939     -7.513859
    84     -3.483092     -3.243208     -5.377841
    85      5.777206      0.378947      3.736191
    86      5.479790      1.046126      2.024857
    87      4.211262      0.722087      4.704796
    88      3.833735     -6.439230    -10.222256
    89      4.426691     -7.694543    -11.486799
    90      4.866691     -6.848706     -8.798223
    91      1.455486     -2.155493     10.029952
    92      1.221098     -3.661754      8.961472
    93      2.578911     -2.802231     11.286841
    94      3.381956      3.351616     11.113056
    95      1.849288      3.215690     12.177049
    96      4.234519      1.705948     11.388639
    97     -6.251087      8.138406      6.000406
    98     -7.701783      8.416409      7.182482
    99     -5.190953      6.770524      6.871947
   100     -7.631833     -7.736097      4.674731
   101     -7.031779     -7.191821      3.002905
   102     -7.959587     -6.213784      5.640107
   103     -7.794672    -10.427473    -11.238330
   104     -8.845659    -10.946794    -12.701788
   105     -6.794918    -11.699270    -10.472182
   106      8.977783     -9.717386      6.904069
   107      7.205779     -9.774128      7.680973
   108      9.144738     -8.301975      5.749951
   109    -10.274779     10.538396      8.632331
   110    -11.238900      9.426602      9.773990
   111    -11.643706     11.635921      7.914207
   112     -5.610686     -7.698007     -0.513199
   113     -4.360930     -9.053952     -0.440336
   114     -6.805839     -8.334862     -1.919966
   115     10.221079     -0.479442      6.108668
   116     11.236858      0.804617      7.189240
   117      8.784579      0.278566      5.168724
   118      6.037325     -5.478082      3.371107
   119      7.413186     -5.466426      2.203356
   120      5.716227     -3.714788      3.632038
   121      0.997114     10.572041      7.459125
   122      2.018995     10.060146      5.933655
   123     -0.530350     11.315019      6.787118
   124      8.909017     -1.654083     -2.207168
   125      9.742744     -0.983175     -0.687783
   126     10.006551     -1.479782     -3.694386
   127     -3.394311      4.639077      8.081898
   128     -1.690377      4.142769      7.308021
   129     -4.479639      3.245019      8.483421
   130    -11.180075      3.149130      9.568248
   131    -12.042091      3.616747     11.117189
   132     -9.358487      2.529417      9.859204
   133      9.296612      2.690959     -8.979238
   134      8.097495      1.417106     -9.631974
   135     10.760671      1.788282     -8.383900
   136      1.355682      3.898832      6.388794
   137      1.844359      5.135227      5.059128
   138      2.371230      3.869252      7.955518
   139     -2.641023      0.154566    -10.572424
   140     -1.251462     -0.359859    -11.811045
   141     -2.638489     -1.007664     -9.077880
   142      1.077743     -6.121101      6.512601
   143      2.638313     -7.110263      6.233362
   144     -0.262727     -7.386677      6.774802
   145     -1.371909     -8.156226     -8.851825
   146     -1.605715     -9.588064     -7.553277
   147      0.491544     -7.799321     -8.819802
   148     -9.650297     -2.384167    -10.635639
   149    -10.944642     -3.200017    -11.772548
   150     -8.747675     -1.212388    -11.889099
   151      3.329839      8.526091     -9.249363
   152      2.238084      7.242294     -9.967253
   153      4.258158      7.526044     -8.035856
   154      7.455557      6.510003      9.682380
   155      5.789371      6.257724     10.578725
   156      7.907109      4.753910      9.354592
   157      6.593967    -10.643036     -3.241245
   158      5.057563    -10.020337     -2.339706
   159      6.973550    -12.391800     -2.616598
   160      2.413396     -7.312029     -0.939793
   161      3.135876     -7.361651      0.797213
   162      0.683070     -8.106967     -0.535556
   163    -11.103602    -10.577956      1.927177
   164    -11.635805     -9.176765      0.778218
   165     -9.692071     -9.806577      2.840640
   166     -6.282965      5.628438     -2.691580
   167     -7.023515      6.247474     -4.378966
   168     -6.849864      6.862635     -1.368088
   169     -3.405213    -11.073729      5.357615
   170     -4.413510    -12.694628      5.587606
   171     -3.962903     -9.901428      6.660111
   172     -8.281963      8.419051      1.145365
   173     -8.907965     10.174410      1.092231
   174     -7.264578      8.311873      2.803938
   175      1.078132      8.621800     -1.768307
   176      0.049862      7.102982     -2.238921
   177      0.852289      9.858620     -3.150243
 
  MM charges 
  ---------- 
     1     -0.674440
     2      0.337220
     3      0.337220
     4     -0.674440
     5      0.337220
     6      0.337220
     7     -0.674440
     8      0.337220
     9      0.337220
    10     -0.674440
    11      0.337220
    12      0.337220
    13     -0.674440
    14      0.337220
    15      0.337220
    16     -0.674440
    17      0.337220
    18      0.337220
    19     -0.674440
    20      0.337220
    21      0.337220
    22     -0.674440
    23      0.337220
    24      0.337220
    25     -0.674440
    26      0.337220
    27      0.337220
    28     -0.674440
    29      0.337220
    30      0.337220
    31     -0.674440
    32      0.337220
    33      0.337220
    34     -0.674440
    35      0.337220
    36      0.337220
    37     -0.674440
    38      0.337220
    39      0.337220
    40     -0.674440
    41      0.337220
    42      0.337220
    43     -0.674440
    44      0.337220
    45      0.337220
    46     -0.674440
    47      0.337220
    48      0.337220
    49     -0.674440
    50      0.337220
    51      0.337220
    52     -0.674440
    53      0.337220
    54      0.337220
    55     -0.674440
    56      0.337220
    57      0.337220
    58     -0.674440
    59      0.337220
    60      0.337220
    61     -0.674440
    62      0.337220
    63      0.337220
    64     -0.674440
    65      0.337220
    66      0.337220
    67     -0.674440
    68      0.337220
    69      0.337220
    70     -0.674440
    71      0.337220
    72      0.337220
    73     -0.674440
    74      0.337220
    75      0.337220
    76     -0.674440
    77      0.337220
    78      0.337220
    79     -0.674440
    80      0.337220
    81      0.337220
    82     -0.674440
    83      0.337220
    84      0.337220
    85     -0.674440
    86      0.337220
    87      0.337220
    88     -0.674440
    89      0.337220
    90      0.337220
    91     -0.674440
    92      0.337220
    93      0.337220
    94     -0.674440
    95      0.337220
    96      0.337220
    97     -0.674440
    98      0.337220
    99      0.337220
   100     -0.674440
   101      0.337220
   102      0.337220
   103     -0.674440
   104      0.337220
   105      0.337220
   106     -0.674440
   107      0.337220
   108      0.337220
   109     -0.674440
   110      0.337220
   111      0.337220
   112     -0.674440
   113      0.337220
   114      0.337220
   115     -0.674440
   116      0.337220
   117      0.337220
   118     -0.674440
   119      0.337220
   120      0.337220
   121     -0.674440
   122      0.337220
   123      0.337220
   124     -0.674440
   125      0.337220
   126      0.337220
   127     -0.674440
   128      0.337220
   129      0.337220
   130     -0.674440
   131      0.337220
   132      0.337220
   133     -0.674440
   134      0.337220
   135      0.337220
   136     -0.674440
   137      0.337220
   138      0.337220
   139     -0.674440
   140      0.337220
   141      0.337220
   142     -0.674440
   143      0.337220
   144      0.337220
   145     -0.674440
   146      0.337220
   147      0.337220
   148     -0.674440
   149      0.337220
   150      0.337220
   151     -0.674440
   152      0.337220
   153      0.337220
   154     -0.674440
   155      0.337220
   156      0.337220
   157     -0.674440
   158      0.337220
   159      0.337220
   160     -0.674440
   161      0.337220
   162      0.337220
   163     -0.674440
   164      0.337220
   165      0.337220
   166     -0.674440
   167      0.337220
   168      0.337220
   169     -0.674440
   170      0.337220
   171      0.337220
   172     -0.674440
   173      0.337220
   174      0.337220
   175     -0.674440
   176      0.337220
   177      0.337220
 
  MM isotropic polarizabilities in au 
  ----------------------------------- 
     1      5.739350
     2      2.308390
     3      2.308390
     4      5.739350
     5      2.308390
     6      2.308390
     7      5.739350
     8      2.308390
     9      2.308390
    10      5.739350
    11      2.308390
    12      2.308390
    13      5.739350
    14      2.308390
    15      2.308390
    16      5.739350
    17      2.308390
    18      2.308390
    19      5.739350
    20      2.308390
    21      2.308390
    22      5.739350
    23      2.308390
    24      2.308390
    25      5.739350
    26      2.308390
    27      2.308390
    28      5.739350
    29      2.308390
    30      2.308390
    31      5.739350
    32      2.308390
    33      2.308390
    34      5.739350
    35      2.308390
    36      2.308390
    37      5.739350
    38      2.308390
    39      2.308390
    40      5.739350
    41      2.308390
    42      2.308390
    43      5.739350
    44      2.308390
    45      2.308390
    46      5.739350
    47      2.308390
    48      2.308390
    49      5.739350
    50      2.308390
    51      2.308390
    52      5.739350
    53      2.308390
    54      2.308390
    55      5.739350
    56      2.308390
    57      2.308390
    58      5.739350
    59      2.308390
    60      2.308390
    61      5.739350
    62      2.308390
    63      2.308390
    64      5.739350
    65      2.308390
    66      2.308390
    67      5.739350
    68      2.308390
    69      2.308390
    70      5.739350
    71      2.308390
    72      2.308390
    73      5.739350
    74      2.308390
    75      2.308390
    76      5.739350
    77      2.308390
    78      2.308390
    79      5.739350
    80      2.308390
    81      2.308390
    82      5.739350
    83      2.308390
    84      2.308390
    85      5.739350
    86      2.308390
    87      2.308390
    88      5.739350
    89      2.308390
    90      2.308390
    91      5.739350
    92      2.308390
    93      2.308390
    94      5.739350
    95      2.308390
    96      2.308390
    97      5.739350
    98      2.308390
    99      2.308390
   100      5.739350
   101      2.308390
   102      2.308390
   103      5.739350
   104      2.308390
   105      2.308390
   106      5.739350
   107      2.308390
   108      2.308390
   109      5.739350
   110      2.308390
   111      2.308390
   112      5.739350
   113      2.308390
   114      2.308390
   115      5.739350
   116      2.308390
   117      2.308390
   118      5.739350
   119      2.308390
   120      2.308390
   121      5.739350
   122      2.308390
   123      2.308390
   124      5.739350
   125      2.308390
   126      2.308390
   127      5.739350
   128      2.308390
   129      2.308390
   130      5.739350
   131      2.308390
   132      2.308390
   133      5.739350
   134      2.308390
   135      2.308390
   136      5.739350
   137      2.308390
   138      2.308390
   139      5.739350
   140      2.308390
   141      2.308390
   142      5.739350
   143      2.308390
   144      2.308390
   145      5.739350
   146      2.308390
   147      2.308390
   148      5.739350
   149      2.308390
   150      2.308390
   151      5.739350
   152      2.308390
   153      2.308390
   154      5.739350
   155      2.308390
   156      2.308390
   157      5.739350
   158      2.308390
   159      2.308390
   160      5.739350
   161      2.308390
   162      2.308390
   163      5.739350
   164      2.308390
   165      2.308390
   166      5.739350
   167      2.308390
   168      2.308390
   169      5.739350
   170      2.308390
   171      2.308390
   172      5.739350
   173      2.308390
   174      2.308390
   175      5.739350
   176      2.308390
   177      2.308390


     ************************************************************************
     ************************** Output from HERINT **************************
     ************************************************************************



                      Nuclear contribution to dipole moments
                      --------------------------------------

                 au               Debye          C m (/(10**-30)

      x    -19.38837650       -49.28033439      -164.38150152
      y    -22.05192847       -56.05040776      -186.96403551
      z    -17.86904426       -45.41857726      -151.50006630


  Time used in HUCKEL     is       0.38 seconds
  Time used in OVERLAP    is       0.31 seconds
  Time used in POPOVLP    is       0.27 seconds
  Time used in DIPLEN     is       0.40 seconds
  Time used in QUADRUP    is       0.80 seconds
  Time used in KINENE     is       0.32 seconds

 Threshold for neglecting two-electron integrals:  1.00D-12
 HERMIT - Number of two-electron integrals written:    35432161 ( 40.6% )
 HERMIT - Megabytes written:                            405.717

  Time used in TWOINT     is      17.10 seconds
  Total CPU  time used in HERMIT:  19.65 seconds
  Total wall time used in HERMIT:   7.31 seconds


                        .----------------------------------.
                        | End of Integral Section (HERMIT) |
                        `----------------------------------'



                   .--------------------------------------------.
                   | Starting in Wave Function Section (SIRIUS) |
                   `--------------------------------------------'

NCCEXCI for singlet:   15
 CCSD_INPUT: core-val requested
 Requested number of core orbs per sym
                     1
 Indices of requested core orbs
                     1

 *** Output from Huckel module :

     Using EWMO model:          T
     Using EHT  model:          F
     Number of Huckel orbitals each symmetry:   37

 EWMO - Energy Weighted Maximum Overlap - is a Huckel type method,
        which normally is better than Extended Huckel Theory.
 Reference: Linderberg and Ohrn, Propagators in Quantum Chemistry (Wiley, 1973)

 Huckel EWMO eigenvalues for symmetry :  1
          -20.684991     -20.684867     -20.684619     -20.684485     -15.675751
           -1.805745      -1.622732      -1.613283      -1.593846      -1.499086
           -0.817428      -0.811600      -0.797202      -0.777613      -0.775514
           -0.769521      -0.754108      -0.681980      -0.662858      -0.651401
           -0.634321      -0.612796      -0.580805      -0.571521      -0.560335
           -0.257728      -0.242005      -0.238914      -0.233671      -0.178799
           -0.176516      -0.174352      -0.172082      -0.168582      -0.151991
           -0.140087      -0.132666

 **********************************************************************
 *SIRIUS* a direct, restricted step, second order MCSCF program       *
 **********************************************************************

 
     Date and time (Linux)  : Mon Nov 26 17:53:51 2018
     Host name              : n-62-23-22                              

 Title lines from ".mol" input file:
                                                                             
                                                                             

 Print level on unit LUPRI =   2 is   0
 Print level on unit LUW4  =   2 is  11

@    (Integral direct) CC calculation.

@    This is a combination run starting with
@              a restricted, closed shell Hartree-Fock calculation


 Initial molecular orbitals are obtained according to
 ".MOSTART EWMO  " input option

@    QM part is embedded in an environment :

@         Model: QMMM

     Wave function specification
     ============================

     For the specification of the Coupled Cluster: see later.

@    Wave function type        --- CC ---
@    Number of closed shell electrons          50
@    Number of electrons in active shells       0
@    Total charge of the molecule               1

@    Spin multiplicity and 2 M_S                1         0
@    Total number of symmetries                 1 (point group: C1 )
@    Reference state symmetry                   1 (irrep name : A  )

     Orbital specifications
     ======================
@    Abelian symmetry species          All |    1
@                                          |  A  
                                       --- |  ---
@    Occupied SCF orbitals              25 |   25
@    Secondary orbitals                137 |  137
@    Total number of orbitals          162 |  162
@    Number of basis functions         162 |  162

     Optimization information
     ========================
@    Number of configurations                 1
@    Number of orbital rotations           3425
     ------------------------------------------
@    Total number of variables             3426

     Maximum number of Fock   iterations      0
     Maximum number of DIIS   iterations     60
     Maximum number of QC-SCF iterations     60
     Threshold for SCF convergence     1.00D-07


 Changes of defaults for CC:
 ---------------------------


 -Implicit frozen core calculation
 -Excitation energies calculated
 -One-photon absorption strengths will be calculated
 -Oscillator strengths calculated
  
* Read MO coefficients from SIRIUS.RST with label "NEWORB  " and header info: 26Nov18  REORTHO 


 ***********************************************
 ***** DIIS acceleration of SCF iterations *****
 ***********************************************

 C1-DIIS algorithm; max error vectors =    8
 -----------------------------------------------------------------------------

 *** DIIS iteration number    1
 RDSUPM called. NFMAT, ISYMDM(1:NFMAT)                     1
                     1

Calculating AOSUPINT
     (Precalculated two-electron integrals are transformed to P-supermatrix elements.
      Threshold for discarding integrals :  1.00D-12 )
  CPU  time used in FORMSUP    is   7.97 seconds
  WALL time used in FORMSUP    is  12.70 seconds

 ITDIIS, energy, error norm, change in energy, scr.thr., difden:
@ DIIS iter.   1    -360.245800022        4.04683D+00   -3.60D+02  -20    F

 (DIIS_RED) Control Parameters C2DIIS =         F NEVC =    1


 (DIIS_RED) B matrix:

               Column   1
       1      16.37679451
    ==== End of matrix output ====

 DIIS C vector; C2DIIS = F, LAMBDA = -1.64D+01
    1.000000
* Read MO coefficients from SIRIUS.RST with label "NEWORB  " and header info: 26Nov18  DIIS   1
      Virial theorem: -V/T =      2.003184
@      MULPOP N       0.13; H       0.16; H       0.17; H       0.15; H       0.16; O      -0.58; O      -0.61; O      -0.57; O      -0.57; H       0.32; 
@             H       0.32; H       0.33; H       0.32; H       0.31; H       0.31; H       0.33; H       0.31; 
   1  Level shift: doubly occupied orbital energies shifted by -2.00D-01

 DIIS Fock eigenvalues in symmetry 1
      -20.86813      -20.85615      -20.82089      -20.78668      -16.46298
       -1.73043       -1.68368       -1.67806       -1.62745       -1.60085
       -1.21886       -1.20532       -1.17795       -1.05728       -1.05350
       -1.01597       -0.97503       -0.93010       -0.92148       -0.88790
       -0.87873       -0.87299       -0.85626       -0.84699       -0.81758
       -0.00170        0.05545        0.06633        0.09067        0.13768
        0.14484        0.16601        0.17637        0.18991        0.19673
        0.22014        0.24249        0.25247        0.27053        0.28666
        0.43036        0.45816        0.46884        0.48161        0.48931
        0.49051        0.50653        0.51336        0.55516        0.67980
        0.71149        0.72869        0.81155        0.82543        0.85492
        0.89740        0.92495        0.94950        0.97747        0.99129
        0.99306        1.00867        1.01849        1.02534        1.04240
        1.08084        1.09406        1.26574        1.28531        1.31846
        1.34254        1.35343        1.35696        1.37437        1.39432
        1.41551        1.45088        1.45855        1.51111        1.53054
        1.54586        1.55598        1.57231        1.59550        1.62412
        1.72017        1.75147        1.78018        1.79543        1.81223
        1.89860        2.03631        2.04567        2.07549        2.10963
        2.14962        2.15486        2.17287        2.17997        2.20071
        2.23133        2.23618        2.25107        2.27106        2.41412
        2.44504        2.46591        2.49117        2.51681        2.53929
        2.57589        2.61153        2.64572        2.66059        2.70571
        2.70775        2.72427        2.73795        2.98481        3.01062
        3.05006        3.07532        3.32391        3.34749        3.35635
        3.37448        3.37982        3.40505        3.42343        3.42574
        3.49993        3.53010        3.54532        3.56762        3.85033
        3.87001        3.92016        3.95191        4.05471        4.08653
        4.09906        4.11717        4.67624        4.80539        4.87757
        5.19337        5.21497        5.24594        5.29920        5.69576
        5.70893        5.72186        5.75097        5.99387        6.02490
        6.03808        6.05543       36.37792       51.44735       51.45603
       51.47141       51.48379
 Time used in FCKEIG, thr_jaco:   4.99D-01  5.10D-02  1.73D-04
 CPU and wall times used in FCKEIG, THR_FCKEIG:   5.00D-01  5.10D-02  4.05D-02
 -----------------------------------------------------------------------------

 *** DIIS iteration number    2
 RDSUPM called. NFMAT, ISYMDM(1:NFMAT)                     1
                     1

 ITDIIS, energy, error norm, change in energy, scr.thr., difden:
@ DIIS iter.   2    -361.171644218        1.16668D+00   -9.26D-01  -20    F

 (DIIS_RED) Control Parameters C2DIIS =         F NEVC =    2


 (DIIS_RED) B matrix:

               Column   1     Column   2
       1      16.37679451
       2       0.89130139     1.36114876
    ==== End of matrix output ====

 DIIS C vector; C2DIIS = F, LAMBDA = -1.35D+00
    0.029448    0.970552
* Read MO coefficients from SIRIUS.RST with label "NEWORB  " and header info: 26Nov18  DIIS   2
      Virial theorem: -V/T =      2.001344
@      MULPOP N      -0.54; H       0.34; H       0.35; H       0.33; H       0.32; O      -0.64; O      -0.63; O      -0.55; O      -0.61; H       0.33; 
@             H       0.37; H       0.31; H       0.36; H       0.30; H       0.31; H       0.32; H       0.35; 
   2  Level shift: doubly occupied orbital energies shifted by -1.00D-01

 DIIS Fock eigenvalues in symmetry 1
      -20.78455      -20.77269      -20.74571      -20.72656      -15.62088
       -1.56141       -1.55990       -1.51468       -1.49108       -1.38079
       -0.92317       -0.92168       -0.89720       -0.89105       -0.87788
       -0.85166       -0.84869       -0.79806       -0.78314       -0.75190
       -0.74706       -0.73961       -0.73189       -0.70327       -0.68633
        0.05706        0.09673        0.11136        0.13604        0.15826
        0.19249        0.19927        0.21232        0.24477        0.26502
        0.29361        0.30491        0.34400        0.35858        0.39590
        0.46894        0.50057        0.51595        0.52333        0.52496
        0.53696        0.54507        0.59047        0.62123        0.81593
        0.84002        0.84966        0.87576        0.88883        0.91357
        0.94651        0.97129        0.99324        1.02389        1.03813
        1.04250        1.05071        1.05848        1.07906        1.16353
        1.18922        1.20356        1.31059        1.33743        1.35568
        1.40824        1.41432        1.42385        1.42770        1.45273
        1.47085        1.50453        1.52003        1.57519        1.61627
        1.63109        1.64592        1.65396        1.69438        1.71595
        1.79101        1.81414        1.84251        1.86215        1.87420
        2.01176        2.12812        2.13504        2.14025        2.17155
        2.19614        2.21947        2.27197        2.28407        2.30233
        2.31739        2.32379        2.33461        2.37836        2.49845
        2.53779        2.57530        2.59026        2.60832        2.62924
        2.67294        2.69687        2.72896        2.74307        2.76496
        2.76931        2.94622        2.96580        3.17698        3.23284
        3.27671        3.30033        3.37398        3.40017        3.41690
        3.42871        3.44990        3.45629        3.46441        3.50944
        3.53538        3.57647        3.59699        3.60100        3.88303
        3.91237        3.94650        3.98464        4.08849        4.12774
        4.13439        4.14347        5.07731        5.18163        5.19888
        5.24673        5.26190        5.29388        5.31040        5.70805
        5.72259        5.74905        5.76621        6.02439        6.04645
        6.08196        6.08498       37.10262       51.42765       51.44439
       51.44827       51.44882
 Time used in FCKEIG, thr_jaco:   3.71D-01  3.80D-02  4.98D-05
 CPU and wall times used in FCKEIG, THR_FCKEIG:   3.72D-01  3.80D-02  1.17D-02
 -----------------------------------------------------------------------------

 *** DIIS iteration number    3
 RDSUPM called. NFMAT, ISYMDM(1:NFMAT)                     1
                     1

 ITDIIS, energy, error norm, change in energy, scr.thr., difden:
@ DIIS iter.   3    -361.251456028        3.79860D-01   -7.98D-02  -20    F

 (DIIS_RED) Control Parameters C2DIIS =         F NEVC =    3


 (DIIS_RED) B matrix:

               Column   1     Column   2     Column   3
       1      16.37679451
       2       0.89130139     1.36114876
       3       0.84396868     0.00456319     0.14429355
    ==== End of matrix output ====

 DIIS C vector; C2DIIS = F, LAMBDA = -9.65D-02
   -0.048424    0.099437    0.948987
* Read MO coefficients from SIRIUS.RST with label "NEWORB  " and header info: 26Nov18  DIIS   3
      Virial theorem: -V/T =      2.002959
@      MULPOP N      -0.35; H       0.30; H       0.32; H       0.29; H       0.28; O      -0.71; O      -0.70; O      -0.60; O      -0.67; H       0.35; 
@             H       0.40; H       0.34; H       0.40; H       0.32; H       0.33; H       0.34; H       0.37; 
   3  Level shift: doubly occupied orbital energies shifted by -5.00D-02

 DIIS Fock eigenvalues in symmetry 1
      -20.69912      -20.69656      -20.66394      -20.64756      -15.78784
       -1.49610       -1.49432       -1.44847       -1.42797       -1.38411
       -0.87505       -0.86455       -0.85380       -0.85143       -0.82933
       -0.82220       -0.78656       -0.73631       -0.72508       -0.68392
       -0.68131       -0.66711       -0.66549       -0.63240       -0.61542
        0.06204        0.10238        0.11638        0.14045        0.16323
        0.19535        0.20182        0.21615        0.24694        0.26751
        0.29529        0.30520        0.34407        0.35794        0.39194
        0.48037        0.51069        0.52572        0.53351        0.53554
        0.54558        0.55486        0.59841        0.61964        0.80543
        0.84622        0.84810        0.88061        0.88584        0.91416
        0.95389        0.98330        1.00426        1.03460        1.05070
        1.05543        1.06127        1.07008        1.09182        1.15587
        1.18639        1.19695        1.31753        1.34823        1.36695
        1.41852        1.42931        1.43492        1.44194        1.46423
        1.48341        1.51576        1.52580        1.58700        1.62427
        1.63763        1.65042        1.66036        1.69824        1.72243
        1.80001        1.82452        1.85321        1.87256        1.88401
        2.00982        2.13748        2.14455        2.14541        2.18346
        2.20897        2.23462        2.27930        2.29894        2.31409
        2.31774        2.32774        2.34287        2.37319        2.51101
        2.54387        2.57975        2.59461        2.61589        2.63522
        2.68181        2.70514        2.73755        2.75330        2.77470
        2.78041        2.91030        2.93101        3.16998        3.20929
        3.26096        3.27079        3.39234        3.41945        3.42371
        3.44818        3.45870        3.47361        3.48275        3.50353
        3.55933        3.59789        3.61682        3.61951        3.90696
        3.93333        3.96658        4.00838        4.11404        4.15168
        4.15918        4.16552        4.99131        5.11189        5.17501
        5.24507        5.27658        5.28904        5.33157        5.73101
        5.74862        5.77238        5.79418        6.05331        6.07073
        6.10615        6.11235       36.89222       51.46250       51.47277
       51.47669       51.48063
 Time used in FCKEIG, thr_jaco:   3.08D-01  3.10D-02  1.62D-05
 CPU and wall times used in FCKEIG, THR_FCKEIG:   3.08D-01  3.10D-02  3.80D-03
 -----------------------------------------------------------------------------

 *** DIIS iteration number    4
 RDSUPM called. NFMAT, ISYMDM(1:NFMAT)                     1
                     1

 ITDIIS, energy, error norm, change in energy, scr.thr., difden:
@ DIIS iter.   4    -361.262294742        9.41324D-02   -1.08D-02  -20    F

 (DIIS_RED) Control Parameters C2DIIS =         F NEVC =    4


 (DIIS_RED) B matrix:

               Column   1     Column   2     Column   3     Column   4
       1      16.37679451
       2       0.89130139     1.36114876
       3       0.84396868     0.00456319     0.14429355
       4       0.06614607     0.08071869     0.00710527     0.00886090
    ==== End of matrix output ====

 DIIS C vector; C2DIIS = F, LAMBDA = -4.53D-03
    0.000365   -0.061044   -0.022097    1.082777
* Read MO coefficients from SIRIUS.RST with label "NEWORB  " and header info: 26Nov18  DIIS   4
      Virial theorem: -V/T =      2.002587
@      MULPOP N      -0.42; H       0.32; H       0.34; H       0.31; H       0.29; O      -0.72; O      -0.72; O      -0.61; O      -0.69; H       0.36; 
@             H       0.42; H       0.35; H       0.41; H       0.32; H       0.33; H       0.35; H       0.38; 
   4  Level shift: doubly occupied orbital energies shifted by -1.25D-02

 DIIS Fock eigenvalues in symmetry 1
      -20.67386      -20.66965      -20.63851      -20.61925      -15.71342
       -1.46232       -1.46097       -1.41515       -1.39398       -1.33273
       -0.82785       -0.82374       -0.81817       -0.80875       -0.79097
       -0.77801       -0.75245       -0.69922       -0.68713       -0.64732
       -0.64484       -0.62944       -0.62706       -0.59432       -0.57683
        0.06282        0.10164        0.11605        0.14070        0.16274
        0.19621        0.20277        0.21618        0.24939        0.26894
        0.29867        0.30854        0.35063        0.36471        0.39989
        0.48034        0.51070        0.52458        0.53307        0.53469
        0.54563        0.55403        0.59815        0.62546        0.81261
        0.85093        0.85464        0.88550        0.88900        0.91760
        0.95600        0.98318        1.00400        1.03375        1.04929
        1.05348        1.06033        1.06949        1.09013        1.16421
        1.19009        1.20290        1.31958        1.35003        1.36821
        1.41834        1.42726        1.43432        1.43991        1.46382
        1.48118        1.51462        1.52718        1.58683        1.62507
        1.64004        1.65493        1.66198        1.70261        1.72678
        1.80087        1.82511        1.85197        1.87244        1.88406
        2.01605        2.14189        2.14358        2.15023        2.18235
        2.20631        2.23183        2.28155        2.29632        2.31511
        2.32117        2.33077        2.34167        2.37911        2.51041
        2.54697        2.58440        2.59892        2.61783        2.63820
        2.68456        2.70682        2.73843        2.75343        2.77276
        2.78066        2.92326        2.94364        3.17910        3.21894
        3.26938        3.28204        3.39081        3.41916        3.42364
        3.44639        3.46018        3.47173        3.48027        3.50742
        3.55636        3.59556        3.61524        3.61777        3.90367
        3.93046        3.96418        4.00491        4.11090        4.14901
        4.15633        4.16339        5.01159        5.13070        5.18803
        5.24334        5.27580        5.28348        5.32756        5.72700
        5.74340        5.76772        5.78883        6.04704        6.06576
        6.10061        6.10601       36.92866       51.45086       51.46255
       51.46742       51.46896
 Time used in FCKEIG, thr_jaco:   3.13D-01  3.10D-02  4.02D-06
 CPU and wall times used in FCKEIG, THR_FCKEIG:   3.13D-01  3.10D-02  9.41D-04
 -----------------------------------------------------------------------------

 *** DIIS iteration number    5
 RDSUPM called. NFMAT, ISYMDM(1:NFMAT)                     1
                     1

 ITDIIS, energy, error norm, change in energy, scr.thr., difden:
@ DIIS iter.   5    -361.263349497        2.85173D-02   -1.05D-03  -20    F

 (DIIS_RED) Control Parameters C2DIIS =         F NEVC =    5


 (DIIS_RED) B matrix:

               Column   1     Column   2     Column   3     Column   4     Column   5
       1      16.37679451
       2       0.89130139     1.36114876
       3       0.84396868     0.00456319     0.14429355
       4       0.06614607     0.08071869     0.00710527     0.00886090
       5       0.02125090     0.00744220     0.00560659     0.00101431     0.00081324
    ==== End of matrix output ====

 DIIS C vector; C2DIIS = F, LAMBDA = -5.74D-04
    0.001337   -0.009553   -0.045141    0.064857    0.988500
* Read MO coefficients from SIRIUS.RST with label "NEWORB  " and header info: 26Nov18  DIIS   5
      Virial theorem: -V/T =      2.002322
@      MULPOP N      -0.41; H       0.31; H       0.33; H       0.30; H       0.29; O      -0.74; O      -0.73; O      -0.62; O      -0.70; H       0.37; 
@             H       0.42; H       0.35; H       0.42; H       0.33; H       0.34; H       0.35; H       0.39; 

 DIIS Fock eigenvalues in symmetry 1
      -20.65404      -20.65023      -20.61834      -20.60132      -15.69903
       -1.44734       -1.44584       -1.39992       -1.37953       -1.31915
       -0.81405       -0.80976       -0.80384       -0.79505       -0.77677
       -0.76417       -0.73883       -0.68479       -0.67267       -0.63265
       -0.63057       -0.61365       -0.61155       -0.57839       -0.56158
        0.06329        0.10195        0.11637        0.14104        0.16301
        0.19656        0.20319        0.21642        0.24995        0.26945
        0.29936        0.30926        0.35158        0.36571        0.40091
        0.48109        0.51139        0.52515        0.53363        0.53531
        0.54633        0.55463        0.59861        0.62636        0.81369
        0.85259        0.85602        0.88701        0.89084        0.91944
        0.95750        0.98449        1.00529        1.03505        1.05058
        1.05463        1.06148        1.07073        1.09158        1.16533
        1.19122        1.20407        1.32090        1.35158        1.36986
        1.41907        1.42786        1.43506        1.44047        1.46460
        1.48141        1.51508        1.52821        1.58761        1.62578
        1.64063        1.65573        1.66264        1.70345        1.72759
        1.80139        1.82564        1.85211        1.87276        1.88438
        2.01695        2.14284        2.14452        2.15114        2.18316
        2.20677        2.23264        2.28248        2.29719        2.31596
        2.32215        2.33169        2.34238        2.38016        2.51102
        2.54763        2.58511        2.59970        2.61833        2.63881
        2.68514        2.70733        2.73885        2.75364        2.77254
        2.78091        2.92427        2.94464        3.18024        3.22054
        3.27120        3.28354        3.39308        3.42174        3.42598
        3.44885        3.46249        3.47372        3.48299        3.50953
        3.55909        3.59799        3.61745        3.62005        3.90631
        3.93288        3.96610        4.00760        4.11388        4.15171
        4.15915        4.16554        5.01298        5.13220        5.19038
        5.24720        5.27940        5.28808        5.33094        5.73022
        5.74749        5.77148        5.79283        6.05083        6.06851
        6.10412        6.10996       36.93051       51.45800       51.46913
       51.47316       51.47646
 Time used in FCKEIG, thr_jaco:   2.86D-01  2.90D-02  1.22D-06
 CPU and wall times used in FCKEIG, THR_FCKEIG:   2.87D-01  2.90D-02  2.85D-04
 -----------------------------------------------------------------------------

 *** DIIS iteration number    6
 RDSUPM called. NFMAT, ISYMDM(1:NFMAT)                     1
                     1

 ITDIIS, energy, error norm, change in energy, scr.thr., difden:
@ DIIS iter.   6    -361.263431962        1.05270D-02   -8.25D-05  -20    F

 (DIIS_RED) Control Parameters C2DIIS =         F NEVC =    6


 (DIIS_RED) B matrix:

               Column   1     Column   2     Column   3     Column   4     Column   5     Column   6
       1      16.37679451
       2       0.89130139     1.36114876
       3       0.84396868     0.00456319     0.14429355
       4       0.06614607     0.08071869     0.00710527     0.00886090
       5       0.02125090     0.00744220     0.00560659     0.00101431     0.00081324
       6      -0.00572522    -0.00017973     0.00062734     0.00051558     0.00001617     0.00011082
    ==== End of matrix output ====

 DIIS C vector; C2DIIS = F, LAMBDA = -3.30D-05
    0.000734    0.006429   -0.008435   -0.128379    0.161646    0.968006
* Read MO coefficients from SIRIUS.RST with label "NEWORB  " and header info: 26Nov18  DIIS   6
      Virial theorem: -V/T =      2.002556
@      MULPOP N      -0.41; H       0.31; H       0.33; H       0.30; H       0.29; O      -0.74; O      -0.73; O      -0.62; O      -0.70; H       0.37; 
@             H       0.42; H       0.35; H       0.42; H       0.33; H       0.34; H       0.35; H       0.39; 

 DIIS Fock eigenvalues in symmetry 1
      -20.65644      -20.65254      -20.62099      -20.60314      -15.70057
       -1.44799       -1.44651       -1.40070       -1.38003       -1.31953
       -0.81460       -0.81040       -0.80447       -0.79552       -0.77760
       -0.76456       -0.73948       -0.68563       -0.67349       -0.63344
       -0.63130       -0.61411       -0.61200       -0.57888       -0.56180
        0.06320        0.10179        0.11622        0.14092        0.16289
        0.19642        0.20307        0.21630        0.24984        0.26932
        0.29926        0.30915        0.35146        0.36556        0.40069
        0.48085        0.51112        0.52487        0.53339        0.53504
        0.54607        0.55435        0.59836        0.62621        0.81343
        0.85231        0.85576        0.88675        0.89059        0.91916
        0.95723        0.98404        1.00480        1.03458        1.05015
        1.05420        1.06104        1.07036        1.09110        1.16514
        1.19091        1.20380        1.32058        1.35117        1.36940
        1.41872        1.42753        1.43472        1.44006        1.46426
        1.48104        1.51476        1.52786        1.58724        1.62547
        1.64037        1.65553        1.66235        1.70326        1.72742
        1.80110        1.82539        1.85182        1.87251        1.88414
        2.01676        2.14235        2.14434        2.15097        2.18269
        2.20626        2.23204        2.28213        2.29667        2.31549
        2.32195        2.33134        2.34199        2.37986        2.51069
        2.54739        2.58489        2.59950        2.61806        2.63856
        2.68494        2.70709        2.73856        2.75336        2.77217
        2.78067        2.92386        2.94424        3.18006        3.21993
        3.27054        3.28297        3.39237        3.42092        3.42526
        3.44805        3.46175        3.47304        3.48206        3.50883
        3.55820        3.59720        3.61675        3.61931        3.90545
        3.93203        3.96542        4.00662        4.11287        4.15083
        4.15824        4.16484        5.01226        5.13143        5.18947
        5.24601        5.27826        5.28667        5.32997        5.72914
        5.74610        5.77021        5.79153        6.04952        6.06747
        6.10286        6.10850       36.92900       51.45565       51.46696
       51.47122       51.47386
 Time used in FCKEIG, thr_jaco:   2.67D-01  2.70D-02  4.50D-07
 CPU and wall times used in FCKEIG, THR_FCKEIG:   2.67D-01  2.70D-02  1.05D-04
 -----------------------------------------------------------------------------

 *** DIIS iteration number    7
 RDSUPM called. NFMAT, ISYMDM(1:NFMAT)                     1
                     1

 ITDIIS, energy, error norm, change in energy, scr.thr., difden:
@ DIIS iter.   7    -361.263442303        2.17832D-03   -1.03D-05  -20    F

 (DIIS_RED) Control Parameters C2DIIS =         F NEVC =    7


 (DIIS_RED) B matrix:

               Column   1     Column   2     Column   3     Column   4     Column   5     Column   6
       1      16.37679451
       2       0.89130139     1.36114876
       3       0.84396868     0.00456319     0.14429355
       4       0.06614607     0.08071869     0.00710527     0.00886090
       5       0.02125090     0.00744220     0.00560659     0.00101431     0.00081324
       6      -0.00572522    -0.00017973     0.00062734     0.00051558     0.00001617     0.00011082
       7       0.00036372     0.00023294    -0.00002700     0.00000958     0.00004263    -0.00000189

               Column   7
       7       0.00000475
    ==== End of matrix output ====

 DIIS C vector; C2DIIS = F, LAMBDA = -9.86D-07
   -0.000231   -0.000737    0.005163    0.021013   -0.107664   -0.095437    1.177894
* Read MO coefficients from SIRIUS.RST with label "NEWORB  " and header info: 26Nov18  DIIS   7
      Virial theorem: -V/T =      2.002490
@      MULPOP N      -0.41; H       0.31; H       0.33; H       0.30; H       0.29; O      -0.74; O      -0.73; O      -0.62; O      -0.70; H       0.37; 
@             H       0.42; H       0.36; H       0.42; H       0.33; H       0.34; H       0.35; H       0.39; 

 DIIS Fock eigenvalues in symmetry 1
      -20.65612      -20.65226      -20.62059      -20.60290      -15.70018
       -1.44784       -1.44635       -1.40052       -1.37990       -1.31934
       -0.81447       -0.81029       -0.80435       -0.79538       -0.77749
       -0.76442       -0.73942       -0.68556       -0.67341       -0.63336
       -0.63124       -0.61392       -0.61183       -0.57867       -0.56162
        0.06326        0.10183        0.11626        0.14096        0.16292
        0.19646        0.20312        0.21633        0.24990        0.26936
        0.29932        0.30922        0.35156        0.36568        0.40081
        0.48092        0.51118        0.52491        0.53344        0.53509
        0.54613        0.55441        0.59840        0.62632        0.81355
        0.85244        0.85590        0.88689        0.89072        0.91930
        0.95734        0.98415        1.00491        1.03467        1.05021
        1.05427        1.06112        1.07043        1.09118        1.16527
        1.19102        1.20393        1.32070        1.35129        1.36953
        1.41877        1.42755        1.43477        1.44009        1.46431
        1.48105        1.51479        1.52795        1.58731        1.62553
        1.64044        1.65563        1.66241        1.70335        1.72751
        1.80115        1.82544        1.85184        1.87255        1.88418
        2.01687        2.14241        2.14444        2.15106        2.18275
        2.20629        2.23210        2.28221        2.29673        2.31554
        2.32206        2.33142        2.34205        2.37999        2.51074
        2.54747        2.58498        2.59959        2.61811        2.63863
        2.68500        2.70714        2.73861        2.75339        2.77216
        2.78070        2.92403        2.94441        3.18019        3.22011
        3.27073        3.28316        3.39251        3.42108        3.42542
        3.44819        3.46191        3.47316        3.48223        3.50900
        3.55837        3.59734        3.61689        3.61945        3.90559
        3.93217        3.96553        4.00679        4.11306        4.15099
        4.15841        4.16497        5.01250        5.13167        5.18971
        5.24624        5.27847        5.28693        5.33014        5.72931
        5.74633        5.77039        5.79173        6.04972        6.06762
        6.10303        6.10873       36.92938       51.45596       51.46723
       51.47147       51.47425
 Time used in FCKEIG, thr_jaco:   2.78D-01  2.80D-02  9.31D-08
 CPU and wall times used in FCKEIG, THR_FCKEIG:   2.78D-01  2.80D-02  2.18D-05
 -----------------------------------------------------------------------------

 *** DIIS iteration number    8
 RDSUPM called. NFMAT, ISYMDM(1:NFMAT)                     1
                     1

 ITDIIS, energy, error norm, change in energy, scr.thr., difden:
@ DIIS iter.   8    -361.263442745        3.18744D-04   -4.42D-07  -20    F

 (DIIS_RED) Control Parameters C2DIIS =         F NEVC =    8


 (DIIS_RED) B matrix:

               Column   1     Column   2     Column   3     Column   4     Column   5     Column   6
       1      16.37679451
       2       0.89130139     1.36114876
       3       0.84396868     0.00456319     0.14429355
       4       0.06614607     0.08071869     0.00710527     0.00886090
       5       0.02125090     0.00744220     0.00560659     0.00101431     0.00081324
       6      -0.00572522    -0.00017973     0.00062734     0.00051558     0.00001617     0.00011082
       7       0.00036372     0.00023294    -0.00002700     0.00000958     0.00004263    -0.00000189
       8       0.00008374    -0.00004741     0.00001094     0.00000078     0.00000033     0.00000137

               Column   7     Column   8
       7       0.00000475
       8       0.00000026     0.00000010
    ==== End of matrix output ====

 DIIS C vector; C2DIIS = F, LAMBDA = -4.62D-08
    0.000021    0.000059   -0.000913   -0.001583    0.019635   -0.008096   -0.243145    1.234022
* Read MO coefficients from SIRIUS.RST with label "NEWORB  " and header info: 26Nov18  DIIS   8
      Virial theorem: -V/T =      2.002506
@      MULPOP N      -0.41; H       0.31; H       0.33; H       0.30; H       0.29; O      -0.74; O      -0.73; O      -0.62; O      -0.70; H       0.37; 
@             H       0.42; H       0.36; H       0.42; H       0.33; H       0.34; H       0.35; H       0.39; 

 DIIS Fock eigenvalues in symmetry 1
      -20.65611      -20.65223      -20.62064      -20.60291      -15.70022
       -1.44783       -1.44634       -1.40053       -1.37990       -1.31935
       -0.81447       -0.81028       -0.80434       -0.79539       -0.77750
       -0.76443       -0.73942       -0.68557       -0.67343       -0.63339
       -0.63127       -0.61392       -0.61182       -0.57869       -0.56162
        0.06326        0.10183        0.11626        0.14096        0.16292
        0.19646        0.20311        0.21633        0.24989        0.26936
        0.29932        0.30921        0.35155        0.36567        0.40080
        0.48092        0.51118        0.52491        0.53343        0.53508
        0.54613        0.55440        0.59839        0.62632        0.81354
        0.85243        0.85590        0.88688        0.89071        0.91928
        0.95734        0.98415        1.00491        1.03467        1.05021
        1.05426        1.06112        1.07042        1.09117        1.16525
        1.19101        1.20392        1.32069        1.35129        1.36952
        1.41877        1.42755        1.43477        1.44008        1.46431
        1.48105        1.51478        1.52794        1.58730        1.62553
        1.64043        1.65562        1.66241        1.70334        1.72750
        1.80115        1.82543        1.85184        1.87254        1.88417
        2.01686        2.14241        2.14443        2.15105        2.18275
        2.20628        2.23209        2.28220        2.29672        2.31554
        2.32205        2.33141        2.34204        2.37998        2.51074
        2.54746        2.58497        2.59958        2.61810        2.63862
        2.68499        2.70713        2.73860        2.75338        2.77216
        2.78070        2.92402        2.94439        3.18018        3.22010
        3.27071        3.28314        3.39250        3.42107        3.42541
        3.44820        3.46190        3.47315        3.48221        3.50900
        3.55834        3.59735        3.61688        3.61945        3.90559
        3.93217        3.96552        4.00676        4.11304        4.15100
        4.15841        4.16497        5.01247        5.13165        5.18969
        5.24624        5.27848        5.28690        5.33013        5.72929
        5.74630        5.77041        5.79173        6.04972        6.06761
        6.10304        6.10870       36.92934       51.45596       51.46725
       51.47147       51.47420
 Time used in FCKEIG, thr_jaco:   2.74D-01  2.80D-02  1.36D-08
 CPU and wall times used in FCKEIG, THR_FCKEIG:   2.74D-01  2.80D-02  3.19D-06
 -----------------------------------------------------------------------------

 *** DIIS iteration number    9
 RDSUPM called. NFMAT, ISYMDM(1:NFMAT)                     1
                     1

 ITDIIS, energy, error norm, change in energy, scr.thr., difden:
@ DIIS iter.   9    -361.263442758        8.72774D-05   -1.34D-08  -20    F

 (DIIS_RED) Control Parameters C2DIIS =         F NEVC =    8


 (DIIS_RED) B matrix:

[...]
    ==== End of matrix output ====


 CCSD   oscillator strength matrix for state nr. 13 of symmetry 1
 CCSD  excitation energy:15.18804163


               Column   1     Column   2     Column   3
       1       0.00010560    -0.00047157     0.00025368
       2      -0.00047157     0.00210590    -0.00113289
       3       0.00025368    -0.00113289     0.00060944
    ==== End of matrix output ====

 Principal values of diagonalized oscillator strength matrix:

             a.u.               
 1      -0.00000001
 2      -0.00000000
 3       0.00282095

 Principal axis of diagonalized oscillator strength matrix:


               Column   1     Column   2     Column   3
       1       0.49470345     0.84725152    -0.19347703
       2       0.49503565    -0.09174213     0.86401567
       3       0.71428860    -0.52320956    -0.46480486
    ==== End of matrix output ====


 CCSD  Transition strength matrix for state nr. 14 of symmetry 1
 CCSD  excitation energy:15.20066243

 Gauge: length

               Column   1     Column   2     Column   3
       1     8.810224D-05   4.921242D-06   3.651523D-05
       2     4.921242D-06   2.735266D-07   2.040182D-06
       3     3.651523D-05   2.040182D-06   1.513407D-05
    ==== End of matrix output ====

 Principal values of diagonalized transition strength matrix:

             a.u.               
 1      -0.00000000
 2      -0.00000000
 3       0.00010351

 Principal axis of diagonalized transition strength matrix:


               Column   1     Column   2     Column   3
       1       0.07751420    -0.37796253     0.92257025
       2       0.94607709     0.31981612     0.05153439
       3      -0.31453091     0.86882793     0.38237198
    ==== End of matrix output ====


 CCSD   oscillator strength matrix for state nr. 14 of symmetry 1
 CCSD  excitation energy:15.20066243


               Column   1     Column   2     Column   3
       1     8.928083D-04   4.987076D-05   3.700371D-04
       2     4.987076D-05   2.771857D-06   2.067474D-05
       3     3.700371D-04   2.067474D-05   1.533653D-04
    ==== End of matrix output ====

 Principal values of diagonalized oscillator strength matrix:

             a.u.               
 1      -0.00000002
 2      -0.00000000
 3       0.00104896

 Principal axis of diagonalized oscillator strength matrix:


               Column   1     Column   2     Column   3
       1       0.07751420    -0.37796253     0.92257025
       2       0.94607709     0.31981612     0.05153439
       3      -0.31453091     0.86882793     0.38237198
    ==== End of matrix output ====


 CCSD  Transition strength matrix for state nr. 15 of symmetry 1
 CCSD  excitation energy:15.23640698

 Gauge: length

               Column   1     Column   2     Column   3
       1     1.537985D-05  -1.147683D-05   4.299312D-07
       2    -1.147683D-05   8.564143D-06  -3.208489D-07
       3     4.299312D-07  -3.208489D-07   1.201495D-08
    ==== End of matrix output ====

 Principal values of diagonalized transition strength matrix:

             a.u.               
 1      -0.00000000
 2      -0.00000000
 3       0.00002396

 Principal axis of diagonalized transition strength matrix:


               Column   1     Column   2     Column   3
       1       0.58306375    -0.13429106     0.80125063
       2       0.78866329    -0.14322883    -0.59790946
       3       0.19505608     0.98053629     0.02239889
    ==== End of matrix output ====


 CCSD   oscillator strength matrix for state nr. 15 of symmetry 1
 CCSD  excitation energy:15.23640698


               Column   1     Column   2     Column   3
       1     1.562225D-04  -1.165771D-04   4.367071D-06
       2    -1.165771D-04   8.699118D-05  -3.259057D-06
       3     4.367071D-06  -3.259057D-06   1.220431D-07
    ==== End of matrix output ====

 Principal values of diagonalized oscillator strength matrix:

             a.u.               
 1      -0.00000000
 2      -0.00000000
 3       0.00024334

 Principal axis of diagonalized oscillator strength matrix:


               Column   1     Column   2     Column   3
       1       0.58306375    -0.13429106     0.80125063
       2       0.78866329    -0.14322883    -0.59790946
       3       0.19505608     0.98053629     0.02239889
    ==== End of matrix output ====

  Total time for    135 linear response residues:     109.03 seconds.
  

 *******************************************************************************
 *******************************************************************************
 *                                                                             *
 *                                                                             *
 *                   SUMMARY OF COUPLED CLUSTER CALCULATION                    *
 *                                                                             *
 *                                                                             *
 *******************************************************************************
 *******************************************************************************

                                                                                
                                                                                
            Total SCF   energy:                  -361.2634427591                
            Total MP2   energy:                  -362.3630013763                
            Total CCSD  energy:                  -362.4039289274                
                                                                                
                                                                                
            Total SCF   energy:                  -361.2634427591                
            Total RSTAR energy:                  -362.4039289274                
            Total CCSD  energy:                  -362.4040640020                
                                                                                
                                                                                
            Total SCF   energy:                  -361.2634427591                
            Total RSTAR energy:                  -362.4040640020                
            Total CCSD  energy:                  -362.4040658222                
                                                                                
                                                                                
            Total SCF   energy:                  -361.2634427591                
            Total RSTAR energy:                  -362.4040658222                
            Total CCSD  energy:                  -362.4040659603                
                                                                                
                                                                                
            Total SCF   energy:                  -361.2634427591                
            Total RSTAR energy:                  -362.4040659603                
            Total CCSD  energy:                  -362.4040659686                
                                                                                
                                                                                
            Total SCF   energy:                  -361.2634427591                
            Total RSTAR energy:                  -362.4040659686                
            Total CCSD  energy:                  -362.4040659691                
                                                                                
                                                                                
            Total SCF   energy:                  -361.2634427591                
            Total RSTAR energy:                  -362.4040659691                
            Total CCSD  energy:                  -362.4040659691                
            CCSD Total  energy:                  -362.8611869865                
            CCSD E(QM/MM)     :                    -0.4523599854                
                                                                                
                                                                                
                                                                                
 +=============================================================================+
 |  sym. | Exci.  |        CCSD       Excitation energies            | ||T1||  |
 |(spin, |        +------------------------------------------------------------+
 | spat) |        |     Hartree    |       eV.      |     cm-1       |    %    |
 +=============================================================================+
 | ^1A   |    1   |    14.9261810  |     406.16205  |   3275918.036  |  88.63  |
 | ^1A   |    2   |    14.9922964  |     407.96114  |   3290428.695  |  89.01  |
 | ^1A   |    3   |    15.0028338  |     408.24788  |   3292741.397  |  88.89  |
 | ^1A   |    4   |    15.0167114  |     408.62550  |   3295787.160  |  88.80  |
 | ^1A   |    5   |    15.0786430  |     410.31075  |   3309379.581  |  88.18  |
 | ^1A   |    6   |    15.0900885  |     410.62220  |   3311891.579  |  88.06  |
 | ^1A   |    7   |    15.0984475  |     410.84966  |   3313726.175  |  88.20  |
 | ^1A   |    8   |    15.1121129  |     411.22151  |   3316725.378  |  88.22  |
 | ^1A   |    9   |    15.1199673  |     411.43524  |   3318449.219  |  88.37  |
 | ^1A   |   10   |    15.1349416  |     411.84271  |   3321735.707  |  88.05  |
 | ^1A   |   11   |    15.1412869  |     412.01538  |   3323128.341  |  88.16  |
 | ^1A   |   12   |    15.1702608  |     412.80380  |   3329487.366  |  88.11  |
 | ^1A   |   13   |    15.1880416  |     413.28764  |   3333389.807  |  88.18  |
 | ^1A   |   14   |    15.2006624  |     413.63107  |   3336159.752  |  87.90  |
 | ^1A   |   15   |    15.2364070  |     414.60372  |   3344004.775  |  87.89  |
 +=============================================================================+
                                                                                
                                                                                
     Total energies in Hartree:                                                 
             1 ^1A       -347.4826460317                                        
             2 ^1A       -347.4165306023                                        
             3 ^1A       -347.4059931582                                        
             4 ^1A       -347.3921156403                                        
             5 ^1A       -347.3301840139                                        
             6 ^1A       -347.3187385059                                        
             7 ^1A       -347.3103794745                                        
             8 ^1A       -347.2967140968                                        
             9 ^1A       -347.2888597007                                        
            10 ^1A       -347.2738853599                                        
            11 ^1A       -347.2675400522                                        
            12 ^1A       -347.2385662034                                        
            13 ^1A       -347.2207853697                                        
            14 ^1A       -347.2081645755                                        
            15 ^1A       -347.1724200167                                        
                                                                                
                                                                                
 +=============================================================================+
 |  sym. | Exci.  |        CCSD       Length   Gauge Oscillator Strength       |
 |(spin, |        +------------------------------------------------------------+
 | spat) |        | Dipole Strength(a.u.) | Oscillator strength  | Direction   |
 +=============================================================================+
 | ^1A   |    1   |        0.0001123      |      0.0011177       |  (Y,Z)      |
 | ^1A   |    2   |        0.0042634      |      0.0426123       |  (Y,Z)      |
 | ^1A   |    3   |        0.0031598      |      0.0316035       |  (Y,Z)      |
 | ^1A   |    4   |        0.0026101      |      0.0261301       |  (Y,Z)      |
 | ^1A   |    5   |        0.0004845      |      0.0048702       |  (Y,Z)      |
 | ^1A   |    6   |        0.0002071      |      0.0020833       |  (Y,Z)      |
 | ^1A   |    7   |        0.0005890      |      0.0059285       |  (Y,Z)      |
 | ^1A   |    8   |        0.0007863      |      0.0079219       |  (Y,Z)      |
 | ^1A   |    9   |        0.0015181      |      0.0153022       |  (Y,Z)      |
 | ^1A   |   10   |        0.0001684      |      0.0016988       |  (Y,Z)      |
 | ^1A   |   11   |        0.0004315      |      0.0043559       |  (Y,Z)      |
 | ^1A   |   12   |        0.0003117      |      0.0031521       |  (Y,Z)      |
 | ^1A   |   13   |        0.0002786      |      0.0028209       |  (Y,Z)      |
 | ^1A   |   14   |        0.0001035      |      0.0010489       |  (Y,Z)      |
 | ^1A   |   15   |        0.0000240      |      0.0002433       |  (Y,Z)      |
 +=============================================================================+

  1 a.u. =        27.21138 eV.  
  1 a.u. =    219474.62934 cm-1.
  

 *******************************************************************************
 *******************************************************************************
 *                                                                             *
 *                                                                             *
 *                      END OF COUPLED CLUSTER CALCULATION                     *
 *                                                                             *
 *                                                                             *
 *******************************************************************************
 *******************************************************************************


 CPU and wall time for CC :  502127.833   53414.183

 
     Date and time (Linux)  : Tue Nov 27 08:46:51 2018
     Host name              : n-62-23-22                              


                      .-------------------------------------.
                      | End of Coupled Cluster Section (CC) |
                      `-------------------------------------'

  Total CPU  time used in DALTON: 139 hours 43 minutes 50 seconds
  Total wall time used in DALTON:  14 hours 53 minutes  8 seconds

 
     Date and time (Linux)  : Tue Nov 27 08:46:51 2018
     Host name              : n-62-23-22                              
  

 +---------------------------------------------------------+ 
 | List of selected calculated molecular properties (a.u.) | 
 +---------------------------------------------------------+ 

  Properties are read from unit number                      4

 CCSD       properties :
 #  1 1 CCSD/MM  Ground state Energy =    -362.8611869865
 #  2 1 E_QM/MM  Ground state Energy =      -0.4523599854
 #  3 1 Sy: 1 Sp: 1 Exc:  1 E_tot:   -347.4826460317 w:     14.9261809694 E_grs:   -362.4088270011
 #  4 1 Exctot   Excited state Energy =    -347.4826460317
 #  5 1 Sy: 1 Sp: 1 Exc:  2 E_tot:   -347.4165306023 w:     14.9922963988 E_grs:   -362.4088270011
 #  6 1 Exctot   Excited state Energy =    -347.4165306023
 #  7 1 Sy: 1 Sp: 1 Exc:  3 E_tot:   -347.4059931582 w:     15.0028338429 E_grs:   -362.4088270011
 #  8 1 Exctot   Excited state Energy =    -347.4059931582
 #  9 1 Sy: 1 Sp: 1 Exc:  4 E_tot:   -347.3921156403 w:     15.0167113608 E_grs:   -362.4088270011
 # 10 1 Exctot   Excited state Energy =    -347.3921156403
 # 11 1 Sy: 1 Sp: 1 Exc:  5 E_tot:   -347.3301840139 w:     15.0786429872 E_grs:   -362.4088270011
 # 12 1 Exctot   Excited state Energy =    -347.3301840139
 # 13 1 Sy: 1 Sp: 1 Exc:  6 E_tot:   -347.3187385059 w:     15.0900884952 E_grs:   -362.4088270011
 # 14 1 Exctot   Excited state Energy =    -347.3187385059
 # 15 1 Sy: 1 Sp: 1 Exc:  7 E_tot:   -347.3103794745 w:     15.0984475266 E_grs:   -362.4088270011
 # 16 1 Exctot   Excited state Energy =    -347.3103794745
 # 17 1 Sy: 1 Sp: 1 Exc:  8 E_tot:   -347.2967140968 w:     15.1121129043 E_grs:   -362.4088270011
 # 18 1 Exctot   Excited state Energy =    -347.2967140968
 # 19 1 Sy: 1 Sp: 1 Exc:  9 E_tot:   -347.2888597007 w:     15.1199673003 E_grs:   -362.4088270011
 # 20 1 Exctot   Excited state Energy =    -347.2888597007
 # 21 1 Sy: 1 Sp: 1 Exc: 10 E_tot:   -347.2738853599 w:     15.1349416412 E_grs:   -362.4088270011
 # 22 1 Exctot   Excited state Energy =    -347.2738853599
 # 23 1 Sy: 1 Sp: 1 Exc: 11 E_tot:   -347.2675400522 w:     15.1412869488 E_grs:   -362.4088270011
 # 24 1 Exctot   Excited state Energy =    -347.2675400522
 # 25 1 Sy: 1 Sp: 1 Exc: 12 E_tot:   -347.2385662034 w:     15.1702607976 E_grs:   -362.4088270011
 # 26 1 Exctot   Excited state Energy =    -347.2385662034
 # 27 1 Sy: 1 Sp: 1 Exc: 13 E_tot:   -347.2207853697 w:     15.1880416313 E_grs:   -362.4088270011
 # 28 1 Exctot   Excited state Energy =    -347.2207853697
 # 29 1 Sy: 1 Sp: 1 Exc: 14 E_tot:   -347.2081645755 w:     15.2006624256 E_grs:   -362.4088270011
 # 30 1 Exctot   Excited state Energy =    -347.2081645755
 # 31 1 Sy: 1 Sp: 1 Exc: 15 E_tot:   -347.1724200167 w:     15.2364069843 E_grs:   -362.4088270011
 # 32 1 Exctot   Excited state Energy =    -347.1724200167
 # 33 1 |<O|XDIPLEN |i(14.926181)>| =     0.01019202
 # 35 1 |<O|XDIPLEN |i(14.992296)>| =     0.03695929
 # 37 1 |<O|XDIPLEN |i(15.002834)>| =     0.03067162
 # 39 1 |<O|XDIPLEN |i(15.016711)>| =     0.03289794
 # 41 1 |<O|XDIPLEN |i(15.078643)>| =     0.01428559
 # 43 1 |<O|XDIPLEN |i(15.090088)>| =     0.00452262
 # 45 1 |<O|XDIPLEN |i(15.098448)>| =     0.01012301
 # 47 1 |<O|XDIPLEN |i(15.112113)>| =     0.01203835
 # 49 1 |<O|XDIPLEN |i(15.119967)>| =     0.02659489
 # 51 1 |<O|XDIPLEN |i(15.134942)>| =     0.01197656
 # 53 1 |<O|XDIPLEN |i(15.141287)>| =     0.01529427
 # 55 1 |<O|XDIPLEN |i(15.170261)>| =     0.01153156
 # 57 1 |<O|XDIPLEN |i(15.188042)>| =     0.00322938
 # 59 1 |<O|XDIPLEN |i(15.200662)>| =     0.00938628
 # 61 1 |<O|XDIPLEN |i(15.236407)>| =     0.00392172
 # 63 1 |<O|YDIPLEN |i(14.926181)>| =     0.00001317
 # 65 1 |<O|YDIPLEN |i(14.992296)>| =     0.05080304
 # 67 1 |<O|YDIPLEN |i(15.002834)>| =     0.03602965
 # 69 1 |<O|YDIPLEN |i(15.016711)>| =     0.00802276
 # 71 1 |<O|YDIPLEN |i(15.078643)>| =     0.01606819
 # 73 1 |<O|YDIPLEN |i(15.090088)>| =     0.00184365
 # 75 1 |<O|YDIPLEN |i(15.098448)>| =     0.00179229
 # 77 1 |<O|YDIPLEN |i(15.112113)>| =     0.00716648
 # 79 1 |<O|YDIPLEN |i(15.119967)>| =     0.01330815
 # 81 1 |<O|YDIPLEN |i(15.134942)>| =     0.00006390
 # 83 1 |<O|YDIPLEN |i(15.141287)>| =     0.00930613
 # 85 1 |<O|YDIPLEN |i(15.170261)>| =     0.00625871
 # 87 1 |<O|YDIPLEN |i(15.188042)>| =     0.01442161
 # 89 1 |<O|YDIPLEN |i(15.200662)>| =     0.00052300
 # 91 1 |<O|YDIPLEN |i(15.236407)>| =     0.00292646
 # 93 1 |<O|ZDIPLEN |i(14.926181)>| =     0.00290691
 # 95 1 |<O|ZDIPLEN |i(14.992296)>| =     0.01778986
 # 97 1 |<O|ZDIPLEN |i(15.002834)>| =     0.03034584
 # 99 1 |<O|ZDIPLEN |i(15.016711)>| =     0.03825526
 #101 1 |<O|ZDIPLEN |i(15.078643)>| =     0.00471369
 #103 1 |<O|ZDIPLEN |i(15.090088)>| =     0.01353652
 #105 1 |<O|ZDIPLEN |i(15.098448)>| =     0.02198405
 #107 1 |<O|ZDIPLEN |i(15.112113)>| =     0.02429065
 #109 1 |<O|ZDIPLEN |i(15.119967)>| =     0.02517312
 #111 1 |<O|ZDIPLEN |i(15.134942)>| =     0.00499270
 #113 1 |<O|ZDIPLEN |i(15.141287)>| =     0.01053617
 #115 1 |<O|ZDIPLEN |i(15.170261)>| =     0.01181186
 #117 1 |<O|ZDIPLEN |i(15.188042)>| =     0.00775822
 #119 1 |<O|ZDIPLEN |i(15.200662)>| =     0.00389025
 #121 1 |<O|ZDIPLEN |i(15.236407)>| =     0.00010961

 THE_END   
