

     ************************************************************************
     *************** Dalton - An Electronic Structure Program ***************
     ************************************************************************

    This is output from DALTON release Dalton2017.alpha (2016)
         ( Web site: http://daltonprogram.org )

   ----------------------------------------------------------------------------

    NOTE:
     
    Dalton is an experimental code for the evaluation of molecular
    properties using (MC)SCF, DFT, CI, and CC wave functions.
    The authors accept no responsibility for the performance of
    the code or for the correctness of the results.
     
    The code (in whole or part) is provided under a licence and
    is not to be reproduced for further distribution without
    the written permission of the authors or their representatives.
     
    See the home page "http://daltonprogram.org" for further information.
     
    If results obtained with this code are published,
    the appropriate citations would be both of:
     
       K. Aidas, C. Angeli, K. L. Bak, V. Bakken, R. Bast,
       L. Boman, O. Christiansen, R. Cimiraglia, S. Coriani,
       P. Dahle, E. K. Dalskov, U. Ekstroem,
       T. Enevoldsen, J. J. Eriksen, P. Ettenhuber, B. Fernandez,
       L. Ferrighi, H. Fliegl, L. Frediani, K. Hald, A. Halkier,
       C. Haettig, H. Heiberg, T. Helgaker, A. C. Hennum,
       H. Hettema, E. Hjertenaes, S. Hoest, I.-M. Hoeyvik,
       M. F. Iozzi, B. Jansik, H. J. Aa. Jensen, D. Jonsson,
       P. Joergensen, J. Kauczor, S. Kirpekar,
       T. Kjaergaard, W. Klopper, S. Knecht, R. Kobayashi, H. Koch,
       J. Kongsted, A. Krapp, K. Kristensen, A. Ligabue,
       O. B. Lutnaes, J. I. Melo, K. V. Mikkelsen, R. H. Myhre,
       C. Neiss, C. B. Nielsen, P. Norman, J. Olsen,
       J. M. H. Olsen, A. Osted, M. J. Packer, F. Pawlowski,
       T. B. Pedersen, P. F. Provasi, S. Reine, Z. Rinkevicius,
       T. A. Ruden, K. Ruud, V. Rybkin, P. Salek, C. C. M. Samson,
       A. Sanchez de Meras, T. Saue, S. P. A. Sauer,
       B. Schimmelpfennig, K. Sneskov, A. H. Steindal,
       K. O. Sylvester-Hvid, P. R. Taylor, A. M. Teale,
       E. I. Tellgren, D. P. Tew, A. J. Thorvaldsen, L. Thoegersen,
       O. Vahtras, M. A. Watson, D. J. D. Wilson, M. Ziolkowski
       and H. Agren,
       "The Dalton quantum chemistry program system",
       WIREs Comput. Mol. Sci. 2014, 4:269–284 (doi: 10.1002/wcms.1172)
     
    and
     
       Dalton, a Molecular Electronic Structure Program,
       Release Dalton2017.alpha (2016), see http://daltonprogram.org
   ----------------------------------------------------------------------------

    Authors in alphabetical order (major contribution(s) in parenthesis):

  Kestutis Aidas,           Vilnius University,           Lithuania   (QM/MM)
  Celestino Angeli,         University of Ferrara,        Italy       (NEVPT2)
  Keld L. Bak,              UNI-C,                        Denmark     (AOSOPPA, non-adiabatic coupling, magnetic properties)
  Vebjoern Bakken,          University of Oslo,           Norway      (DALTON; geometry optimizer, symmetry detection)
  Radovan Bast,             UiT The Arctic U. of Norway,  Norway      (DALTON installation and execution frameworks)
  Pablo Baudin,             University of Valencia,       Spain       (Cholesky excitation energies)
  Linus Boman,              NTNU,                         Norway      (Cholesky decomposition and subsystems)
  Ove Christiansen,         Aarhus University,            Denmark     (CC module)
  Renzo Cimiraglia,         University of Ferrara,        Italy       (NEVPT2)
  Sonia Coriani,            University of Trieste,        Italy       (CC module, MCD in RESPONS)
  Janusz Cukras,            University of Trieste,        Italy       (MChD in RESPONS)
  Paal Dahle,               University of Oslo,           Norway      (Parallelization)
  Erik K. Dalskov,          UNI-C,                        Denmark     (SOPPA)
  Thomas Enevoldsen,        Univ. of Southern Denmark,    Denmark     (SOPPA)
  Janus J. Eriksen,         Aarhus University,            Denmark     (Polarizable embedding model, TDA)
  Rasmus Faber,             University of Copenhagen,     Denmark     (Vib.avg. NMR with SOPPA, parallel AO-SOPPA)
  Berta Fernandez,          U. of Santiago de Compostela, Spain       (doublet spin, ESR in RESPONS)
  Lara Ferrighi,            Aarhus University,            Denmark     (PCM Cubic response)
  Heike Fliegl,             University of Oslo,           Norway      (CCSD(R12))
  Luca Frediani,            UiT The Arctic U. of Norway,  Norway      (PCM)
  Bin Gao,                  UiT The Arctic U. of Norway,  Norway      (Gen1Int library)
  Christof Haettig,         Ruhr-University Bochum,       Germany     (CC module)
  Kasper Hald,              Aarhus University,            Denmark     (CC module)
  Asger Halkier,            Aarhus University,            Denmark     (CC module)
  Frederik Beyer Hansen,    University of Copenhagen,     Denmark     (Parallel AO-SOPPA)
  Erik D. Hedegaard,        Univ. of Southern Denmark,    Denmark     (Polarizable embedding model, QM/MM)
  Hanne Heiberg,            University of Oslo,           Norway      (geometry analysis, selected one-electron integrals)
  Trygve Helgaker,          University of Oslo,           Norway      (DALTON; ABACUS, ERI, DFT modules, London, and much more)
  Alf Christian Hennum,     University of Oslo,           Norway      (Parity violation)
  Hinne Hettema,            University of Auckland,       New Zealand (quadratic response in RESPONS; SIRIUS supersymmetry)
  Eirik Hjertenaes,         NTNU,                         Norway      (Cholesky decomposition)
  Pi A. B. Haase,           University of Copenhagen,     Denmark     (Triplet AO-SOPPA)
  Maria Francesca Iozzi,    University of Oslo,           Norway      (RPA)
  Brano Jansik              Technical Univ. of Ostrava    Czech Rep.  (DFT cubic response)
  Hans Joergen Aa. Jensen,  Univ. of Southern Denmark,    Denmark     (DALTON; SIRIUS, RESPONS, ABACUS modules, London, and much more)
  Dan Jonsson,              UiT The Arctic U. of Norway,  Norway      (cubic response in RESPONS module)
  Poul Joergensen,          Aarhus University,            Denmark     (RESPONS, ABACUS, and CC modules)
  Maciej Kaminski,          University of Warsaw,         Poland      (CPPh in RESPONS)
  Joanna Kauczor,           Linkoeping University,        Sweden      (Complex polarization propagator (CPP) module)
  Sheela Kirpekar,          Univ. of Southern Denmark,    Denmark     (Mass-velocity & Darwin integrals)
  Wim Klopper,              KIT Karlsruhe,                Germany     (R12 code in CC, SIRIUS, and ABACUS modules)
  Stefan Knecht,            ETH Zurich,                   Switzerland (Parallel CI and MCSCF)
  Rika Kobayashi,           Australian National Univ.,    Australia   (DIIS in CC, London in MCSCF)
  Henrik Koch,              NTNU,                         Norway      (CC module, Cholesky decomposition)
  Jacob Kongsted,           Univ. of Southern Denmark,    Denmark     (Polarizable embedding model, QM/MM)
  Andrea Ligabue,           University of Modena,         Italy       (CTOCD, AOSOPPA)
  Nanna H. List             Univ. of Southern Denmark,    Denmark     (Polarizable embedding model)
  Ola B. Lutnaes,           University of Oslo,           Norway      (DFT Hessian)
  Juan I. Melo,             University of Buenos Aires,   Argentina   (LRESC, Relativistic Effects on NMR Shieldings)
  Kurt V. Mikkelsen,        University of Copenhagen,     Denmark     (MC-SCRF and QM/MM)
  Rolf H. Myhre,            NTNU,                         Norway      (Cholesky, subsystems and ECC2)
  Christian Neiss,          Univ. Erlangen-Nuernberg,     Germany     (CCSD(R12))
  Christian B. Nielsen,     University of Copenhagen,     Denmark     (QM/MM)
  Patrick Norman,           Linkoeping University,        Sweden      (Cubic response and complex frequency response in RESPONS)
  Jeppe Olsen,              Aarhus University,            Denmark     (SIRIUS CI/density modules)
  Jogvan Magnus H. Olsen,   Univ. of Southern Denmark,    Denmark     (Polarizable embedding model, QM/MM)
  Anders Osted,             Copenhagen University,        Denmark     (QM/MM)
  Martin J. Packer,         University of Sheffield,      UK          (SOPPA)
  Filip Pawlowski,          Kazimierz Wielki University,  Poland      (CC3)
  Morten N. Pedersen,       Univ. of Southern Denmark,    Denmark     (Polarizable embedding model)
  Thomas B. Pedersen,       University of Oslo,           Norway      (Cholesky decomposition)
  Patricio F. Provasi,      University of Northeastern,   Argentina   (Analysis of coupling constants in localized orbitals)
  Zilvinas Rinkevicius,     KTH Stockholm,                Sweden      (open-shell DFT, ESR)
  Elias Rudberg,            KTH Stockholm,                Sweden      (DFT grid and basis info)
  Torgeir A. Ruden,         University of Oslo,           Norway      (Numerical derivatives in ABACUS)
  Kenneth Ruud,             UiT The Arctic U. of Norway,  Norway      (DALTON; ABACUS magnetic properties and much more)
  Pawel Salek,              KTH Stockholm,                Sweden      (DALTON; DFT code)
  Claire C. M. Samson       University of Karlsruhe       Germany     (Boys localization, r12 integrals in ERI)
  Alfredo Sanchez de Meras, University of Valencia,       Spain       (CC module, Cholesky decomposition)
  Trond Saue,               Paul Sabatier University,     France      (direct Fock matrix construction)
  Stephan P. A. Sauer,      University of Copenhagen,     Denmark     (SOPPA(CCSD), SOPPA prop., AOSOPPA, vibrational g-factors)
  Bernd Schimmelpfennig,    Forschungszentrum Karlsruhe,  Germany     (AMFI module)
  Kristian Sneskov,         Aarhus University,            Denmark     (Polarizable embedding model, QM/MM)
  Arnfinn H. Steindal,      UiT The Arctic U. of Norway,  Norway      (parallel QM/MM, Polarizable embedding model)
  Casper Steinmann,         Univ. of Southern Denmark,    Denmark     (QFIT, Polarizable embedding model)
  K. O. Sylvester-Hvid,     University of Copenhagen,     Denmark     (MC-SCRF)
  Peter R. Taylor,          VLSCI/Univ. of Melbourne,     Australia   (Symmetry handling ABACUS, integral transformation)
  Andrew M. Teale,          University of Nottingham,     England     (DFT-AC, DFT-D)
  David P. Tew,             University of Bristol,        England     (CCSD(R12))
  Olav Vahtras,             KTH Stockholm,                Sweden      (triplet response, spin-orbit, ESR, TDDFT, open-shell DFT)
  David J. Wilson,          La Trobe University,          Australia   (DFT Hessian and DFT magnetizabilities)
  Hans Agren,               KTH Stockholm,                Sweden      (SIRIUS module, RESPONS, MC-SCRF solvation model)
 --------------------------------------------------------------------------------

     Date and time (Linux)  : Sun Dec  2 21:47:00 2018
     Host name              : n-62-29-23                              

 * Work memory size             :  1280000000 =  9.537 gigabytes.

 * Directories for basis set searches:
   1) /zhome/37/3/129401/NH3NH4/CCSD/AIMD_SAMPLING/nh4_4h2o_nd
   2) /zhome/9a/4/124800/source/dalton/build-mlcc/basis


Compilation information
-----------------------

 Who compiled             | rfaber
 Host                     | hpclogin1
 System                   | Linux-2.6.32-696.1.1.el6.x86_64
 CMake generator          | Unix Makefiles
 Processor                | x86_64
 64-bit integers          | ON
 MPI                      | OFF
 Fortran compiler         | /opt/intel/2016update2/compilers_and_libraries_201
                          | 6.2.181/linux/bin/intel64/ifort
 Fortran compiler version | ifort (IFORT) 16.0.2 20160204
 C compiler               | /opt/intel/2016update2/compilers_and_libraries_201
                          | 6.2.181/linux/bin/intel64/icc
 C compiler version       | icc (ICC) 16.0.2 20160204
 C++ compiler             | /opt/intel/2016update2/compilers_and_libraries_201
                          | 6.2.181/linux/bin/intel64/icpc
 C++ compiler version     | icpc (ICC) 16.0.2 20160204
 Static linking           | OFF
 Last Git revision        | bb4d1599ca5680a9f3980451fc8bbefdba436d59
 Git branch               | mlcc
 Configuration time       | 2017-06-13 16:11:03.928841


   Content of the .dal input file
 ----------------------------------

**DALTON
.RUN WAVE FUNCTIONS
*QMMM
.QMMM
**INTEGRALS
.DIPLEN
**WAVE FUNCTIONS
.CC
*PRINT
!To check the origin of excit
.PRINTL
   0 11
*SCF INP
.THRESH
1.0D-7
*CC INP
.CCSD
.THRLEQ
 1.0D-9
.THRENR
 1.0D-10
.FROIMP
4
0
.PRINT
 1
.MAX IT
 1200
.MAXRED
 1200
.MXLRV
1199
*CCSLV
.CCMM
.MXSLIT
200
.MXINIT
4 5
*CCEXCI
.NCCEXC
 15
.CVSEPARA
1
1
*CCLRSD
.DIPOLE
**END OF DALTON INPUT


   Content of the .mol file
 ----------------------------

ATOMBASIS


Atomtypes=4 Charge=1 Nosymm Angstrom
   7.00000    1    Basis=6-311G**
N          0.000000        0.000000        0.000000
   1.00000    4    Basis=6-311G**
H         -0.223541        0.870294       -0.543378
H          0.683210       -0.567482       -0.531795
H         -0.802598       -0.603119        0.131380
H          0.459836        0.279658        0.870659
   8.00000    4    Basis=6-311G**
O         -0.529703        2.824872       -1.196987
O         -2.691688       -0.653314       -0.435672
O          1.487312        0.534134        2.211613
O          2.339587       -1.136176       -1.479244
   1.00000    8    Basis=6-311G**
H         -1.177530        2.751957       -1.924395
H          0.344808        2.763341       -1.672414
H         -3.083377       -1.498471       -0.300800
H         -3.212796        0.036018        0.052744
H          1.940751        1.411795        2.236807
H          1.056711        0.473299        3.095203
H          2.272400       -1.907334       -0.896340
H          3.191397       -0.708338       -1.192496


       *******************************************************************
       *********** Output from DALTON general input processing ***********
       *******************************************************************

 --------------------------------------------------------------------------------
   Overall default print level:    0
   Print level for DALTON.STAT:    1

    HERMIT 1- and 2-electron integral sections will be executed
    "Old" integral transformation used (limited to max 255 basis functions)
    Wave function sections will be executed (SIRIUS module)
 --------------------------------------------------------------------------------


 Changes of defaults for *QMMM  :
 --------------------------------

 +------------------+
 |  WORD: | CHANGE: |
 +------------------+
 |   QMMM |       T |
 +------------------+
 


   ****************************************************************************
   *************** Output of molecule and basis set information ***************
   ****************************************************************************


    The two title cards from your ".mol" input:
    ------------------------------------------------------------------------
 1:                                                                         
 2:                                                                         
    ------------------------------------------------------------------------

  Coordinates are entered in Angstrom and converted to atomic units.
          - Conversion factor : 1 bohr = 0.52917721 A

  Atomic type no.    1
  --------------------
  Nuclear charge:   7.00000
  Number of symmetry independent centers:    1
  Number of basis sets to read;    2
  The basis set is "6-311G**" from the basis set library.
  Basis set file used for this atomic type with Z =   7 :
     "/zhome/9a/4/124800/source/dalton/build-mlcc/basis/6-311G**"

  Info about the basis set file: your basis has no documentation.
  Basis set: 6-311G**                                                                        

  Atomic type no.    2
  --------------------
  Nuclear charge:   1.00000
  Number of symmetry independent centers:    4
  Number of basis sets to read;    2
  The basis set is "6-311G**" from the basis set library.
  Basis set file used for this atomic type with Z =   1 :
     "/zhome/9a/4/124800/source/dalton/build-mlcc/basis/6-311G**"

  Info about the basis set file: your basis has no documentation.
  Basis set: 6-311G**                                                                        

  Atomic type no.    3
  --------------------
  Nuclear charge:   8.00000
  Number of symmetry independent centers:    4
  Number of basis sets to read;    2
  The basis set is "6-311G**" from the basis set library.
  Basis set file used for this atomic type with Z =   8 :
     "/zhome/9a/4/124800/source/dalton/build-mlcc/basis/6-311G**"

  Info about the basis set file: your basis has no documentation.
  Basis set: 6-311G**                                                                        

  Atomic type no.    4
  --------------------
  Nuclear charge:   1.00000
  Number of symmetry independent centers:    8
  Number of basis sets to read;    2
  The basis set is "6-311G**" from the basis set library.
  Basis set file used for this atomic type with Z =   1 :
     "/zhome/9a/4/124800/source/dalton/build-mlcc/basis/6-311G**"

  Info about the basis set file: your basis has no documentation.
  Basis set: 6-311G**                                                                        


                         SYMGRP: Point group information
                         -------------------------------

@    Point group: C1 


                                 Isotopic Masses
                                 ---------------

                           N          14.003074
                           H           1.007825
                           H           1.007825
                           H           1.007825
                           H           1.007825
                           O          15.994915
                           O          15.994915
                           O          15.994915
                           O          15.994915
                           H           1.007825
                           H           1.007825
                           H           1.007825
                           H           1.007825
                           H           1.007825
                           H           1.007825
                           H           1.007825
                           H           1.007825

                       Total mass:    90.076634 amu
                       Natural abundance:  98.500 %

 Center-of-mass coordinates (a.u.):    0.233826    0.596472   -0.316368


  Atoms and basis sets
  --------------------

  Number of atom types :    4
  Total number of atoms:   17

  label    atoms   charge   prim   cont     basis
  ----------------------------------------------------------------------
  N           1    7.0000    31    18      [11s5p1d|4s3p1d]                                   
  H           4    1.0000     8     6      [5s1p|3s1p]                                        
  O           4    8.0000    31    18      [11s5p1d|4s3p1d]                                   
  H           8    1.0000     8     6      [5s1p|3s1p]                                        
  ----------------------------------------------------------------------
  total:     17   51.0000   251   162
  ----------------------------------------------------------------------
  Spherical harmonic basis used.

  Threshold for neglecting AO integrals:  1.00D-12


  Cartesian Coordinates (a.u.)
  ----------------------------

  Total number of coordinates:   51
  N       :     1  x   0.0000000000    2  y   0.0000000000    3  z   0.0000000000
  H       :     4  x  -0.4224312677    5  y   1.6446173082    6  z  -1.0268356023
  H       :     7  x   1.2910797859    8  y  -1.0723855609    9  z  -1.0049469046
  H       :    10  x  -1.5166904085   11  y  -1.1397297308   12  z   0.2482722183
  H       :    13  x   0.8689641024   14  y   0.5284770287   15  z   1.6453070583
  O       :    16  x  -1.0009935976   17  y   5.3382344182   18  z  -2.2619776052
  O       :    19  x  -5.0865531339   20  y  -1.2345845336   21  z  -0.8233007603
  O       :    22  x   2.8106123424   23  y   1.0093669740   24  z   4.1793428645
  O       :    25  x   4.4211786756   26  y  -2.1470614698   27  z  -2.7953660320
  H       :    28  x  -2.2252092040   29  y   5.2004450378   30  z  -3.6365795063
  H       :    31  x   0.6515926857   32  y   5.2219576800   33  z  -3.1604044276
  H       :    34  x  -5.8267380701   35  y  -2.8316997962   36  z  -0.5684296184
  H       :    37  x  -6.0713045355   38  y   0.0680641556   39  z   0.0996717147
  H       :    40  x   3.6674878668   41  y   2.6679058946   42  z   4.2269526245
  H       :    43  x   1.9968943833   44  y   0.8944054852   45  z   5.8490859713
  H       :    46  x   4.2942136464   47  y  -3.6043388889   48  z  -1.6938371149
  H       :    49  x   6.0308662861   50  y  -1.3385648239   51  z  -2.2534908452

  Max    interatomic separation is    6.5665 Angstrom (   12.4088 Bohr)
  between atoms   17 and   13, "H     " and "H     ".

  Min HX interatomic separation is    0.9412 Angstrom (    1.7787 Bohr)

  Min YX interatomic separation is    2.7182 Angstrom (    5.1367 Bohr)


  Bond distances (Angstrom):
  --------------------------

                  atom 1     atom 2       distance
                  ------     ------       --------
  bond distance:  H          N            1.050068
  bond distance:  H          N            1.035190
  bond distance:  H          N            1.012510
  bond distance:  H          N            1.023575
  bond distance:  H          O            0.976790
  bond distance:  H          O            0.997290
  bond distance:  H          O            0.941223
  bond distance:  H          O            0.992614
  bond distance:  H          O            0.988196
  bond distance:  H          O            0.984809
  bond distance:  H          O            0.969008
  bond distance:  H          O            0.995415


  Bond angles (degrees):
  ----------------------

                  atom 1     atom 2     atom 3         angle
                  ------     ------     ------         -----
  bond angle:     H          N          H            109.208
  bond angle:     H          N          H            113.084
  bond angle:     H          N          H            108.021
  bond angle:     H          N          H            105.265
  bond angle:     H          N          H            106.873
  bond angle:     H          N          H            114.110
  bond angle:     H          O          H            102.824
  bond angle:     H          O          H            109.548
  bond angle:     H          O          H            103.451
  bond angle:     H          O          H            103.185




 Principal moments of inertia (u*A**2) and principal axes
 --------------------------------------------------------

   IA     322.782365          0.946543   -0.233207    0.222869
   IB     451.998010          0.142400    0.922020    0.360002
   IC     471.319428         -0.289445   -0.309021    0.905940


 Rotational constants
 --------------------

               A                   B                   C

           1565.6958           1118.1001           1072.2643 MHz
            0.052226            0.037296            0.035767 cm-1


@  Nuclear repulsion energy :  198.015924160248 Hartree


                     .---------------------------------------.
                     | Starting in Integral Section (HERMIT) |
                     `---------------------------------------'



 ***************************************************************************************
 ****************** Output from **INTEGRALS input processing (HERMIT) ******************
 ***************************************************************************************



    *************************************************************************
    ****************** Output from HERMIT input processing ******************
    *************************************************************************


 Default print level:        1

 * Nuclear model: Point charge

 Calculation of one- and two-electron Hamiltonian integrals.

 The following one-electron property integrals are calculated as requested:
          - overlap integrals
          - dipole length integrals

 Center of mass  (bohr):      0.233825854303      0.596471883100     -0.316368244317
 Operator center (bohr):      0.000000000000      0.000000000000      0.000000000000
 Gauge origin    (bohr):      0.000000000000      0.000000000000      0.000000000000
 Dipole origin   (bohr):      0.000000000000      0.000000000000      0.000000000000
 
  *********************************** 
  QMMM electrostatic potential: 
  Multipole order                                    0
  Isotropic polarization  
  *********************************** 
 
  ---------------- 
  QMMM information 
  ---------------- 
 
  MM coordinates in au 
  -------------------- 
     1     10.362338      6.338387    -10.149632
     2      9.881174      5.116188    -11.489595
     3     12.196723      6.348501    -10.123478
     4      4.202466      4.765063     -3.331421
     5      4.753706      6.617534     -3.139175
     6      5.460547      3.687173     -2.483550
     7      5.068215      9.667249     -2.605449
     8      5.707736     10.238555     -0.901333
     9      6.444966      9.940073     -3.746494
    10     10.647409     -6.320344    -11.446041
    11     12.075926     -7.388090    -10.958371
    12     10.320242     -4.874509    -10.184515
    13      5.736874      5.124240      3.100031
    14      7.085708      6.023449      3.897638
    15      6.352449      4.355496      1.607016
    16      9.501433     10.114984     -6.015091
    17      9.667860      8.610556     -7.087917
    18      9.112584     11.530175     -7.203950
    19     -2.264251     -7.332512      6.845414
    20     -3.426744     -8.814132      6.293081
    21     -3.305632     -6.591130      8.201967
    22      5.811509     -1.892723     10.620798
    23      5.242726     -2.163264     12.348808
    24      6.277394     -3.440641      9.659685
    25      9.253556     -9.751061      5.611600
    26     10.934776     -9.486618      4.766537
    27      9.482559    -11.271612      6.684938
    28     -0.914559      6.947126    -11.020832
    29      0.143725      7.965279    -12.172763
    30      0.377701      5.793296    -10.187398
    31     -7.842006      2.483132      1.685324
    32     -9.445259      2.136776      2.693124
    33     -6.907688      4.063750      2.341429
    34      6.325391     -9.531287     -9.808939
    35      7.315273     -8.159299    -10.540832
    36      5.594559     -8.913572     -8.208076
    37      2.934221     -2.408815     -8.085125
    38      2.336117     -4.147631     -8.322084
    39      3.780032     -2.529020     -6.388525
    40    -10.944098      3.316297     -3.326538
    41     -9.939370      2.225948     -4.393007
    42     -9.855897      3.670717     -1.698845
    43      9.830181     -3.619859     -5.333744
    44      8.192316     -4.517657     -5.391878
    45      9.445051     -1.863761     -5.912184
    46     10.379126      7.156990      3.811853
    47     10.684066      8.127232      2.266144
    48     10.927585      8.030051      5.342037
    49      5.767896      9.236318     11.626990
    50      5.277072      7.896636     12.733131
    51      6.047420     10.971058     12.619551
    52     -2.389920      8.546528      1.550681
    53     -0.862925      8.575708      2.572885
    54     -2.039472      7.439362      0.082379
    55     10.599905      2.164914      3.989174
    56      9.936382      1.534611      5.620078
    57     10.525234      4.123513      4.148608
    58      1.037068    -10.422945     -5.680409
    59      2.549790    -11.456667     -5.463578
    60     -0.392188    -11.490276     -6.156429
    61     -9.619405     -2.826108      5.120202
    62    -10.216368     -2.174287      3.536432
    63     -7.970239     -2.079861      5.401245
    64     -2.352407     -2.603642      4.795717
    65     -0.809309     -2.426633      5.847106
    66     -2.472098     -4.438919      4.456893
    67     -4.439505      4.391056      9.418701
    68     -3.723343      2.797467      8.992162
    69     -2.884703      5.346145     10.157662
    70     -9.369740     -7.123154     -5.477649
    71     -8.572924     -8.390819     -6.541251
    72     -9.535016     -5.517314     -6.544258
    73     -3.121792     10.054564     -6.908155
    74     -4.263492      9.099383     -5.817014
    75     -2.673902      8.702763     -8.204123
    76      9.737385     -3.895457      0.840769
    77      8.043846     -3.889230      1.758672
    78      9.741784     -2.537228     -0.473099
    79     -3.933408     -5.572872    -11.409936
    80     -4.885804     -7.125331    -10.788140
    81     -2.081924     -5.895847    -10.750939
    82      5.340606    -11.232046      1.964669
    83      6.766491    -10.733232      3.182010
    84      4.551371     -9.548669      1.525241
    85     -7.116370      0.376993     -5.401244
    86     -7.050872     -0.992701     -6.622407
    87     -6.139269     -0.357086     -4.057110
    88      1.924108     -8.674784      9.332104
    89      0.524195     -8.265983      8.209535
    90      1.828798    -10.547958      9.386179
    91     -0.960344      0.725589    -10.133106
    92     -2.241219     -0.552152    -10.593423
    93      0.241590     -0.462541     -9.185945
    94      1.176215     -0.520680      8.583731
    95      0.220181      0.245001     10.055150
    96      2.696484     -1.114770      9.598596
    97     -6.036261      7.594754      5.053209
    98     -5.615049      6.364499      6.429143
    99     -4.681813      7.715975      3.772657
   100     -9.137527     -8.435787      2.949362
   101     -8.256013     -7.831106      1.430364
   102     -9.387751     -6.803209      3.878788
   103     -6.713411     -9.684525     -9.579324
   104     -7.313522    -10.497147    -11.264414
   105     -5.566678    -10.758264     -8.576736
   106      6.279622     -6.152192      8.114970
   107      7.418216     -7.547428      7.752932
   108      4.783534     -6.941161      8.889309
   109     -8.832629     11.414076      9.962617
   110     -7.850867      9.875206     10.314762
   111     -8.020109     11.954477      8.313648
   112     -6.089916     -6.556265     -1.102612
   113     -4.512110     -7.623091     -0.810785
   114     -6.718118     -6.454936     -2.805002
   115      9.323058      2.129328     10.120305
   116     10.679617      0.983680     10.050231
   117      7.748582      1.150265      9.986103
   118      5.462815     -3.618438      3.818520
   119      5.415522     -4.486484      5.494587
   120      4.908860     -1.846106      4.123388
   121      1.587192      9.932763      9.047018
   122      1.526111      9.290606      7.236678
   123      3.328849      9.733560      9.770589
   124      8.071812      1.236644     -1.373668
   125      8.472239      1.584872      0.478112
   126      9.607430      1.855178     -2.142511
   127     -7.694135      6.338385    -10.828875
   128     -6.856680      5.354290    -12.237796
   129     -6.628271      5.895152     -9.333869
   130     -9.984532     -1.234399      9.999544
   131     -8.158617     -1.074109      9.417830
   132    -10.648274     -2.542063      8.908927
   133      8.000894      1.502151     -7.472937
   134      8.407104      1.036390     -9.195077
   135      9.097395      2.931198     -7.189329
   136      2.151402      8.761596      3.482115
   137      3.133005     10.291303      3.145820
   138      3.260840      7.403416      3.051254
   139     -4.117679      4.580324     -6.681187
   140     -3.138752      3.149947     -7.166325
   141     -5.609663      3.657470     -6.049936
   142     -4.722892     -1.077356      9.024703
   143     -4.232660     -2.637442      9.881522
   144     -4.034388     -1.537098      7.316662
   145      0.738660     -6.806109     -9.206235
   146      0.929046     -8.132503     -7.932031
   147      1.363751     -7.559526    -10.852935
   148     -7.706401     -3.010829     -9.089106
   149     -6.126490     -3.581834     -9.803066
   150     -8.614434     -2.394472    -10.632423
   151      3.665900      5.240194     -8.683326
   152      3.953498      5.193451     -6.900486
   153      4.693084      3.710481     -9.120208
   154     10.145297      9.610076      8.359022
   155     11.663788      9.943920      9.379641
   156      9.089694      8.823880      9.687592
   157      5.775865     -7.615105     -5.059594
   158      4.084862     -7.886409     -4.191244
   159      7.351288     -8.230385     -4.024801
   160      2.721882     -6.692588      0.434837
   161      3.366976     -5.832600      2.016674
   162      1.015790     -7.248579      0.853767
   163     10.256364     -8.399218     -2.387202
   164     11.570056     -7.807952     -3.704564
   165     10.119655     -6.859430     -1.451846
   166     -7.659646      8.106963     -3.328817
   167     -8.255841      8.760181     -1.717869
   168     -9.257838      7.724577     -4.321205
   169     -5.935688    -10.935894      5.997915
   170     -5.846278    -12.844748      5.724406
   171     -7.057915    -10.302745      4.608598
   172     11.616986      9.942631     -0.738834
   173     10.601930      9.447525     -2.234635
   174     11.243099     11.903064     -0.655945
   175     -1.863911     -9.677408     -0.522454
   176     -2.362509    -11.368411      0.095766
   177     -0.830926    -10.018281     -1.916256
 
  MM charges 
  ---------- 
     1     -0.674440
     2      0.337220
     3      0.337220
     4     -0.674440
     5      0.337220
     6      0.337220
     7     -0.674440
     8      0.337220
     9      0.337220
    10     -0.674440
    11      0.337220
    12      0.337220
    13     -0.674440
    14      0.337220
    15      0.337220
    16     -0.674440
    17      0.337220
    18      0.337220
    19     -0.674440
    20      0.337220
    21      0.337220
    22     -0.674440
    23      0.337220
    24      0.337220
    25     -0.674440
    26      0.337220
    27      0.337220
    28     -0.674440
    29      0.337220
    30      0.337220
    31     -0.674440
    32      0.337220
    33      0.337220
    34     -0.674440
    35      0.337220
    36      0.337220
    37     -0.674440
    38      0.337220
    39      0.337220
    40     -0.674440
    41      0.337220
    42      0.337220
    43     -0.674440
    44      0.337220
    45      0.337220
    46     -0.674440
    47      0.337220
    48      0.337220
    49     -0.674440
    50      0.337220
    51      0.337220
    52     -0.674440
    53      0.337220
    54      0.337220
    55     -0.674440
    56      0.337220
    57      0.337220
    58     -0.674440
    59      0.337220
    60      0.337220
    61     -0.674440
    62      0.337220
    63      0.337220
    64     -0.674440
    65      0.337220
    66      0.337220
    67     -0.674440
    68      0.337220
    69      0.337220
    70     -0.674440
    71      0.337220
    72      0.337220
    73     -0.674440
    74      0.337220
    75      0.337220
    76     -0.674440
    77      0.337220
    78      0.337220
    79     -0.674440
    80      0.337220
    81      0.337220
    82     -0.674440
    83      0.337220
    84      0.337220
    85     -0.674440
    86      0.337220
    87      0.337220
    88     -0.674440
    89      0.337220
    90      0.337220
    91     -0.674440
    92      0.337220
    93      0.337220
    94     -0.674440
    95      0.337220
    96      0.337220
    97     -0.674440
    98      0.337220
    99      0.337220
   100     -0.674440
   101      0.337220
   102      0.337220
   103     -0.674440
   104      0.337220
   105      0.337220
   106     -0.674440
   107      0.337220
   108      0.337220
   109     -0.674440
   110      0.337220
   111      0.337220
   112     -0.674440
   113      0.337220
   114      0.337220
   115     -0.674440
   116      0.337220
   117      0.337220
   118     -0.674440
   119      0.337220
   120      0.337220
   121     -0.674440
   122      0.337220
   123      0.337220
   124     -0.674440
   125      0.337220
   126      0.337220
   127     -0.674440
   128      0.337220
   129      0.337220
   130     -0.674440
   131      0.337220
   132      0.337220
   133     -0.674440
   134      0.337220
   135      0.337220
   136     -0.674440
   137      0.337220
   138      0.337220
   139     -0.674440
   140      0.337220
   141      0.337220
   142     -0.674440
   143      0.337220
   144      0.337220
   145     -0.674440
   146      0.337220
   147      0.337220
   148     -0.674440
   149      0.337220
   150      0.337220
   151     -0.674440
   152      0.337220
   153      0.337220
   154     -0.674440
   155      0.337220
   156      0.337220
   157     -0.674440
   158      0.337220
   159      0.337220
   160     -0.674440
   161      0.337220
   162      0.337220
   163     -0.674440
   164      0.337220
   165      0.337220
   166     -0.674440
   167      0.337220
   168      0.337220
   169     -0.674440
   170      0.337220
   171      0.337220
   172     -0.674440
   173      0.337220
   174      0.337220
   175     -0.674440
   176      0.337220
   177      0.337220
 
  MM isotropic polarizabilities in au 
  ----------------------------------- 
     1      5.739350
     2      2.308390
     3      2.308390
     4      5.739350
     5      2.308390
     6      2.308390
     7      5.739350
     8      2.308390
     9      2.308390
    10      5.739350
    11      2.308390
    12      2.308390
    13      5.739350
    14      2.308390
    15      2.308390
    16      5.739350
    17      2.308390
    18      2.308390
    19      5.739350
    20      2.308390
    21      2.308390
    22      5.739350
    23      2.308390
    24      2.308390
    25      5.739350
    26      2.308390
    27      2.308390
    28      5.739350
    29      2.308390
    30      2.308390
    31      5.739350
    32      2.308390
    33      2.308390
    34      5.739350
    35      2.308390
    36      2.308390
    37      5.739350
    38      2.308390
    39      2.308390
    40      5.739350
    41      2.308390
    42      2.308390
    43      5.739350
    44      2.308390
    45      2.308390
    46      5.739350
    47      2.308390
    48      2.308390
    49      5.739350
    50      2.308390
    51      2.308390
    52      5.739350
    53      2.308390
    54      2.308390
    55      5.739350
    56      2.308390
    57      2.308390
    58      5.739350
    59      2.308390
    60      2.308390
    61      5.739350
    62      2.308390
    63      2.308390
    64      5.739350
    65      2.308390
    66      2.308390
    67      5.739350
    68      2.308390
    69      2.308390
    70      5.739350
    71      2.308390
    72      2.308390
    73      5.739350
    74      2.308390
    75      2.308390
    76      5.739350
    77      2.308390
    78      2.308390
    79      5.739350
    80      2.308390
    81      2.308390
    82      5.739350
    83      2.308390
    84      2.308390
    85      5.739350
    86      2.308390
    87      2.308390
    88      5.739350
    89      2.308390
    90      2.308390
    91      5.739350
    92      2.308390
    93      2.308390
    94      5.739350
    95      2.308390
    96      2.308390
    97      5.739350
    98      2.308390
    99      2.308390
   100      5.739350
   101      2.308390
   102      2.308390
   103      5.739350
   104      2.308390
   105      2.308390
   106      5.739350
   107      2.308390
   108      2.308390
   109      5.739350
   110      2.308390
   111      2.308390
   112      5.739350
   113      2.308390
   114      2.308390
   115      5.739350
   116      2.308390
   117      2.308390
   118      5.739350
   119      2.308390
   120      2.308390
   121      5.739350
   122      2.308390
   123      2.308390
   124      5.739350
   125      2.308390
   126      2.308390
   127      5.739350
   128      2.308390
   129      2.308390
   130      5.739350
   131      2.308390
   132      2.308390
   133      5.739350
   134      2.308390
   135      2.308390
   136      5.739350
   137      2.308390
   138      2.308390
   139      5.739350
   140      2.308390
   141      2.308390
   142      5.739350
   143      2.308390
   144      2.308390
   145      5.739350
   146      2.308390
   147      2.308390
   148      5.739350
   149      2.308390
   150      2.308390
   151      5.739350
   152      2.308390
   153      2.308390
   154      5.739350
   155      2.308390
   156      2.308390
   157      5.739350
   158      2.308390
   159      2.308390
   160      5.739350
   161      2.308390
   162      2.308390
   163      5.739350
   164      2.308390
   165      2.308390
   166      5.739350
   167      2.308390
   168      2.308390
   169      5.739350
   170      2.308390
   171      2.308390
   172      5.739350
   173      2.308390
   174      2.308390
   175      5.739350
   176      2.308390
   177      2.308390


     ************************************************************************
     ************************** Output from HERINT **************************
     ************************************************************************



                      Nuclear contribution to dipole moments
                      --------------------------------------

                 au               Debye          C m (/(10**-30)

      x     11.89267956        30.22817437       100.83033632
      y     29.96679690        76.16799537       254.06908460
      z    -14.88564670       -37.83553753      -126.20576842


  Time used in HUCKEL     is       0.77 seconds
  Time used in OVERLAP    is       0.13 seconds
  Time used in POPOVLP    is       0.26 seconds
  Time used in DIPLEN     is       0.24 seconds
  Time used in QUADRUP    is       0.93 seconds
  Time used in KINENE     is       0.26 seconds

 Threshold for neglecting two-electron integrals:  1.00D-12
 HERMIT - Number of two-electron integrals written:    36034455 ( 41.3% )
 HERMIT - Megabytes written:                            412.615

  Time used in TWOINT     is      17.91 seconds
  Total CPU  time used in HERMIT:  20.57 seconds
  Total wall time used in HERMIT:   7.77 seconds


                        .----------------------------------.
                        | End of Integral Section (HERMIT) |
                        `----------------------------------'



                   .--------------------------------------------.
                   | Starting in Wave Function Section (SIRIUS) |
                   `--------------------------------------------'

NCCEXCI for singlet:   15
 CCSD_INPUT: core-val requested
 Requested number of core orbs per sym
                     1
 Indices of requested core orbs
                     1

 *** Output from Huckel module :

     Using EWMO model:          T
     Using EHT  model:          F
     Number of Huckel orbitals each symmetry:   37

 EWMO - Energy Weighted Maximum Overlap - is a Huckel type method,
        which normally is better than Extended Huckel Theory.
 Reference: Linderberg and Ohrn, Propagators in Quantum Chemistry (Wiley, 1973)

 Huckel EWMO eigenvalues for symmetry :  1
          -20.684892     -20.684691     -20.684599     -20.684542     -15.675949
           -1.808802      -1.620300      -1.608397      -1.602664      -1.498780
           -0.809942      -0.806380      -0.789273      -0.782490      -0.771768
           -0.742114      -0.730484      -0.689894      -0.686554      -0.674606
           -0.650961      -0.611301      -0.580965      -0.565785      -0.557310
           -0.255866      -0.239845      -0.237273      -0.235224      -0.179240
           -0.177699      -0.177682      -0.174183      -0.168821      -0.147147
           -0.144091      -0.135285

 **********************************************************************
 *SIRIUS* a direct, restricted step, second order MCSCF program       *
 **********************************************************************

 
     Date and time (Linux)  : Sun Dec  2 21:47:09 2018
     Host name              : n-62-29-23                              

 Title lines from ".mol" input file:
                                                                             
                                                                             

 Print level on unit LUPRI =   2 is   0
 Print level on unit LUW4  =   2 is  11

@    (Integral direct) CC calculation.

@    This is a combination run starting with
@              a restricted, closed shell Hartree-Fock calculation


 Initial molecular orbitals are obtained according to
 ".MOSTART EWMO  " input option

@    QM part is embedded in an environment :

@         Model: QMMM

     Wave function specification
     ============================

     For the specification of the Coupled Cluster: see later.

@    Wave function type        --- CC ---
@    Number of closed shell electrons          50
@    Number of electrons in active shells       0
@    Total charge of the molecule               1

@    Spin multiplicity and 2 M_S                1         0
@    Total number of symmetries                 1 (point group: C1 )
@    Reference state symmetry                   1 (irrep name : A  )

     Orbital specifications
     ======================
@    Abelian symmetry species          All |    1
@                                          |  A  
                                       --- |  ---
@    Occupied SCF orbitals              25 |   25
@    Secondary orbitals                137 |  137
@    Total number of orbitals          162 |  162
@    Number of basis functions         162 |  162

     Optimization information
     ========================
@    Number of configurations                 1
@    Number of orbital rotations           3425
     ------------------------------------------
@    Total number of variables             3426

     Maximum number of Fock   iterations      0
     Maximum number of DIIS   iterations     60
     Maximum number of QC-SCF iterations     60
     Threshold for SCF convergence     1.00D-07


 Changes of defaults for CC:
 ---------------------------


 -Implicit frozen core calculation
 -Excitation energies calculated
 -One-photon absorption strengths will be calculated
 -Oscillator strengths calculated
  
* Read MO coefficients from SIRIUS.RST with label "NEWORB  " and header info:  2Dec18  REORTHO 


 ***********************************************
 ***** DIIS acceleration of SCF iterations *****
 ***********************************************

 C1-DIIS algorithm; max error vectors =    8
 -----------------------------------------------------------------------------

 *** DIIS iteration number    1
 RDSUPM called. NFMAT, ISYMDM(1:NFMAT)                     1
                     1

Calculating AOSUPINT
     (Precalculated two-electron integrals are transformed to P-supermatrix elements.
      Threshold for discarding integrals :  1.00D-12 )
  CPU  time used in FORMSUP    is   7.76 seconds
  WALL time used in FORMSUP    is   8.96 seconds

 ITDIIS, energy, error norm, change in energy, scr.thr., difden:
@ DIIS iter.   1    -360.164750742        4.08800D+00   -3.60D+02  -20    F

 (DIIS_RED) Control Parameters C2DIIS =         F NEVC =    1


 (DIIS_RED) B matrix:

               Column   1
       1      16.71172349
    ==== End of matrix output ====

 DIIS C vector; C2DIIS = F, LAMBDA = -1.67D+01
    1.000000
* Read MO coefficients from SIRIUS.RST with label "NEWORB  " and header info:  2Dec18  DIIS   1
      Virial theorem: -V/T =      2.002885
@      MULPOP N       0.13; H       0.15; H       0.17; H       0.16; H       0.17; O      -0.62; O      -0.59; O      -0.57; O      -0.62; H       0.33; 
@             H       0.34; H       0.32; H       0.32; H       0.32; H       0.32; H       0.34; H       0.33; 
   1  Level shift: doubly occupied orbital energies shifted by -2.00D-01

 DIIS Fock eigenvalues in symmetry 1
      -20.87558      -20.83626      -20.82877      -20.78882      -16.50755
       -1.76661       -1.68834       -1.66678       -1.65450       -1.60966
       -1.25188       -1.22995       -1.22688       -1.05541       -1.03916
       -1.03816       -0.98196       -0.94103       -0.90848       -0.90038
       -0.89094       -0.86761       -0.86192       -0.85825       -0.81584
       -0.02693        0.04021        0.04314        0.06796        0.10257
        0.12871        0.14070        0.15774        0.16506        0.17347
        0.18883        0.21495        0.22899        0.25452        0.28798
        0.41864        0.43080        0.44207        0.47325        0.47565
        0.47849        0.49996        0.50180        0.55402        0.64593
        0.69426        0.70099        0.79284        0.84926        0.86436
        0.88860        0.90322        0.91106        0.94118        0.97188
        0.98434        0.99425        1.00897        1.03603        1.04621
        1.06851        1.09960        1.21654        1.23522        1.27279
        1.27713        1.33845        1.34814        1.35362        1.36243
        1.37292        1.40146        1.43326        1.45547        1.49813
        1.52638        1.55176        1.55689        1.56450        1.58888
        1.66227        1.75426        1.76987        1.78392        1.81431
        1.87291        1.91399        1.97750        2.05027        2.06202
        2.10842        2.12017        2.14812        2.16275        2.17966
        2.19557        2.21251        2.23221        2.26021        2.35449
        2.42052        2.47697        2.48483        2.50396        2.52216
        2.56096        2.59194        2.60566        2.63927        2.66208
        2.69279        2.71468        2.73673        2.96415        3.01396
        3.02800        3.06119        3.31558        3.33163        3.33544
        3.37692        3.38174        3.38302        3.41339        3.41961
        3.49954        3.53269        3.54705        3.57528        3.81784
        3.85292        3.90780        3.91098        4.06765        4.09765
        4.10272        4.13743        4.69762        4.72503        4.83142
        5.21284        5.25336        5.28837        5.37118        5.67613
        5.69095        5.72970        5.74590        5.92508        5.96441
        6.00137        6.07281       36.34018       51.41959       51.44479
       51.46774       51.48481
 Time used in FCKEIG, thr_jaco:   5.08D-01  5.10D-02  1.75D-04
 CPU and wall times used in FCKEIG, THR_FCKEIG:   5.08D-01  5.10D-02  4.09D-02
 -----------------------------------------------------------------------------

 *** DIIS iteration number    2
 RDSUPM called. NFMAT, ISYMDM(1:NFMAT)                     1
                     1

 ITDIIS, energy, error norm, change in energy, scr.thr., difden:
@ DIIS iter.   2    -361.102868304        1.16805D+00   -9.38D-01  -20    F

 (DIIS_RED) Control Parameters C2DIIS =         F NEVC =    2


 (DIIS_RED) B matrix:

               Column   1     Column   2
       1      16.71172349
       2       0.70767653     1.36434013
    ==== End of matrix output ====

 DIIS C vector; C2DIIS = F, LAMBDA = -1.34D+00
    0.039414    0.960586
* Read MO coefficients from SIRIUS.RST with label "NEWORB  " and header info:  2Dec18  DIIS   2
      Virial theorem: -V/T =      2.001577
@      MULPOP N      -0.52; H       0.33; H       0.31; H       0.33; H       0.34; O      -0.57; O      -0.58; O      -0.60; O      -0.53; H       0.32; 
@             H       0.31; H       0.29; H       0.34; H       0.33; H       0.33; H       0.27; H       0.31; 
   2  Level shift: doubly occupied orbital energies shifted by -1.00D-01

 DIIS Fock eigenvalues in symmetry 1
      -20.80122      -20.79796      -20.75797      -20.74511      -15.65537
       -1.57101       -1.56011       -1.53898       -1.50569       -1.41321
       -0.92448       -0.92187       -0.91847       -0.90944       -0.88902
       -0.88140       -0.86000       -0.81120       -0.80794       -0.77557
       -0.76314       -0.75092       -0.73933       -0.71971       -0.69186
        0.03978        0.08445        0.08907        0.12167        0.14018
        0.17180        0.17980        0.19632        0.22581        0.23515
        0.24764        0.27831        0.33030        0.36006        0.36219
        0.45561        0.47680        0.48368        0.51639        0.51915
        0.53138        0.53843        0.57778        0.60469        0.79810
        0.81502        0.84898        0.85833        0.89932        0.90753
        0.91895        0.96620        0.97359        0.99482        0.99946
        1.02645        1.03686        1.04444        1.08182        1.13694
        1.16252        1.17874        1.26473        1.29137        1.32725
        1.33646        1.39573        1.40662        1.41026        1.41934
        1.43484        1.45749        1.49265        1.52577        1.58141
        1.60981        1.63073        1.65116        1.67559        1.69968
        1.74114        1.81534        1.83138        1.85065        1.87208
        1.98296        2.02703        2.08650        2.10149        2.11062
        2.15778        2.19502        2.25368        2.26569        2.26769
        2.29428        2.30896        2.32999        2.33369        2.45689
        2.52110        2.56549        2.58978        2.60087        2.61379
        2.64492        2.68985        2.71139        2.72311        2.73065
        2.77624        2.91210        2.96571        3.15427        3.24025
        3.28312        3.34072        3.34430        3.36374        3.37446
        3.41135        3.41941        3.43071        3.45159        3.49808
        3.54199        3.55484        3.58363        3.59716        3.85191
        3.87204        3.92935        3.94325        4.10181        4.11915
        4.13258        4.15428        5.10132        5.10378        5.18948
        5.25013        5.28427        5.28930        5.38011        5.68462
        5.69467        5.74416        5.75242        5.95540        5.97558
        6.01282        6.10281       37.07466       51.38567       51.39618
       51.43041       51.44143
 Time used in FCKEIG, thr_jaco:   3.63D-01  3.60D-02  4.99D-05
 CPU and wall times used in FCKEIG, THR_FCKEIG:   3.63D-01  3.60D-02  1.17D-02
 -----------------------------------------------------------------------------

 *** DIIS iteration number    3
 RDSUPM called. NFMAT, ISYMDM(1:NFMAT)                     1
                     1

 ITDIIS, energy, error norm, change in energy, scr.thr., difden:
@ DIIS iter.   3    -361.180792043        3.74593D-01   -7.79D-02  -20    F

 (DIIS_RED) Control Parameters C2DIIS =         F NEVC =    3


 (DIIS_RED) B matrix:

               Column   1     Column   2     Column   3
       1      16.71172349
       2       0.70767653     1.36434013
       3       0.82664384     0.00108309     0.14031966
    ==== End of matrix output ====

 DIIS C vector; C2DIIS = F, LAMBDA = -9.63D-02
   -0.045281    0.093281    0.952000
* Read MO coefficients from SIRIUS.RST with label "NEWORB  " and header info:  2Dec18  DIIS   3
      Virial theorem: -V/T =      2.002646
@      MULPOP N      -0.32; H       0.29; H       0.26; H       0.28; H       0.31; O      -0.62; O      -0.64; O      -0.67; O      -0.59; H       0.34; 
@             H       0.33; H       0.31; H       0.37; H       0.35; H       0.36; H       0.29; H       0.34; 
   3  Level shift: doubly occupied orbital energies shifted by -5.00D-02

 DIIS Fock eigenvalues in symmetry 1
      -20.71415      -20.70163      -20.67961      -20.65736      -15.81669
       -1.50349       -1.48945       -1.47557       -1.43946       -1.41474
       -0.90055       -0.87390       -0.87130       -0.85433       -0.84446
       -0.84062       -0.79281       -0.74744       -0.73594       -0.70961
       -0.69423       -0.68050       -0.66381       -0.64927       -0.61806
        0.04497        0.09096        0.09381        0.12639        0.14411
        0.17547        0.18519        0.19998        0.22782        0.23798
        0.24928        0.27702        0.33206        0.35981        0.36084
        0.46806        0.48590        0.49276        0.52758        0.52980
        0.54158        0.54767        0.58233        0.60854        0.78568
        0.81216        0.84251        0.86159        0.90654        0.91976
        0.92403        0.97886        0.98293        1.00682        1.01162
        1.04038        1.04979        1.05651        1.08996        1.13852
        1.16143        1.17744        1.27477        1.29871        1.33647
        1.35045        1.41095        1.42099        1.42342        1.43287
        1.44717        1.47124        1.50434        1.53284        1.59221
        1.61667        1.64084        1.65645        1.67891        1.70282
        1.74827        1.82951        1.84230        1.86131        1.88370
        1.98365        2.02691        2.08840        2.11783        2.12875
        2.17319        2.20911        2.25898        2.27329        2.28357
        2.30801        2.31737        2.32831        2.33865        2.46495
        2.52921        2.57614        2.59787        2.60888        2.62023
        2.65348        2.69619        2.72076        2.73418        2.74061
        2.78754        2.87757        2.93418        3.14809        3.21787
        3.24562        3.30890        3.36824        3.38529        3.39668
        3.43084        3.43462        3.45488        3.47289        3.49385
        3.56571        3.58357        3.60446        3.62172        3.87641
        3.89957        3.95161        3.96408        4.12839        4.14844
        4.15553        4.17970        5.02047        5.03191        5.13897
        5.26705        5.29534        5.31750        5.40183        5.71278
        5.72329        5.77096        5.78003        5.98527        6.01050
        6.04211        6.12767       36.86977       51.43141       51.43400
       51.46710       51.47146
 Time used in FCKEIG, thr_jaco:   3.44D-01  3.50D-02  1.60D-05
 CPU and wall times used in FCKEIG, THR_FCKEIG:   3.45D-01  3.50D-02  3.75D-03
 -----------------------------------------------------------------------------

 *** DIIS iteration number    4
 RDSUPM called. NFMAT, ISYMDM(1:NFMAT)                     1
                     1

 ITDIIS, energy, error norm, change in energy, scr.thr., difden:
@ DIIS iter.   4    -361.191126224        9.31938D-02   -1.03D-02  -20    F

 (DIIS_RED) Control Parameters C2DIIS =         F NEVC =    4


 (DIIS_RED) B matrix:

               Column   1     Column   2     Column   3     Column   4
       1      16.71172349
       2       0.70767653     1.36434013
       3       0.82664384     0.00108309     0.14031966
       4       0.05813203     0.07998395     0.00603261     0.00868508
    ==== End of matrix output ====

 DIIS C vector; C2DIIS = F, LAMBDA = -4.47D-03
   -0.000376   -0.059323   -0.011545    1.071243
* Read MO coefficients from SIRIUS.RST with label "NEWORB  " and header info:  2Dec18  DIIS   4
      Virial theorem: -V/T =      2.002478
@      MULPOP N      -0.39; H       0.30; H       0.27; H       0.30; H       0.32; O      -0.64; O      -0.66; O      -0.68; O      -0.59; H       0.35; 
@             H       0.34; H       0.32; H       0.38; H       0.36; H       0.37; H       0.29; H       0.34; 
   4  Level shift: doubly occupied orbital energies shifted by -1.25D-02

 DIIS Fock eigenvalues in symmetry 1
      -20.69102      -20.67867      -20.65140      -20.63243      -15.74477
       -1.47076       -1.45700       -1.44144       -1.40649       -1.36461
       -0.85212       -0.82633       -0.82494       -0.81933       -0.81016
       -0.80361       -0.75909       -0.71140       -0.70078       -0.67262
       -0.65914       -0.64313       -0.62681       -0.61066       -0.58058
        0.04586        0.08994        0.09363        0.12635        0.14432
        0.17591        0.18509        0.20013        0.23046        0.23923
        0.25183        0.28189        0.33727        0.36566        0.36688
        0.46760        0.48630        0.49278        0.52652        0.52819
        0.54116        0.54690        0.58457        0.61008        0.79337
        0.81705        0.85034        0.86313        0.90839        0.92170
        0.92559        0.97834        0.98440        1.00656        1.01130
        1.03929        1.04881        1.05562        1.09107        1.14214
        1.16438        1.18003        1.27616        1.30069        1.33821
        1.35019        1.40960        1.41887        1.42193        1.43107
        1.44678        1.46932        1.50385        1.53311        1.59355
        1.61861        1.64034        1.66052        1.68432        1.70812
        1.75036        1.82815        1.84152        1.86099        1.88219
        1.98875        2.03251        2.09412        2.11481        2.12572
        2.17025        2.20673        2.26562        2.27190        2.28184
        2.30723        2.31864        2.33492        2.33778        2.46720
        2.53264        2.57813        2.60006        2.61309        2.62467
        2.65430        2.69796        2.72120        2.73266        2.74069
        2.78571        2.88970        2.94581        3.15618        3.22736
        3.25761        3.32146        3.36585        3.38335        3.39335
        3.42839        3.43281        3.45158        3.47094        3.49719
        3.56246        3.58011        3.60273        3.61853        3.87240
        3.89576        3.94834        3.96174        4.12457        4.14483
        4.15346        4.17638        5.03911        5.04899        5.15398
        5.26246        5.29243        5.31107        5.39708        5.70813
        5.71743        5.76531        5.77425        5.97784        6.00313
        6.03547        6.12290       36.90376       51.41728       51.42001
       51.45564       51.46161
 Time used in FCKEIG, thr_jaco:   3.09D-01  3.00D-02  3.98D-06
 CPU and wall times used in FCKEIG, THR_FCKEIG:   3.09D-01  3.00D-02  9.32D-04
 -----------------------------------------------------------------------------

 *** DIIS iteration number    5
 RDSUPM called. NFMAT, ISYMDM(1:NFMAT)                     1
                     1

 ITDIIS, energy, error norm, change in energy, scr.thr., difden:
@ DIIS iter.   5    -361.192136936        2.87818D-02   -1.01D-03  -20    F

 (DIIS_RED) Control Parameters C2DIIS =         F NEVC =    5


 (DIIS_RED) B matrix:

               Column   1     Column   2     Column   3     Column   4     Column   5
       1      16.71172349
       2       0.70767653     1.36434013
       3       0.82664384     0.00108309     0.14031966
       4       0.05813203     0.07998395     0.00603261     0.00868508
       5       0.02177308     0.00707836     0.00561263     0.00087499     0.00082839
    ==== End of matrix output ====

 DIIS C vector; C2DIIS = F, LAMBDA = -5.77D-04
    0.001124   -0.010242   -0.044846    0.087019    0.966945
* Read MO coefficients from SIRIUS.RST with label "NEWORB  " and header info:  2Dec18  DIIS   5
      Virial theorem: -V/T =      2.002160
@      MULPOP N      -0.37; H       0.30; H       0.27; H       0.29; H       0.32; O      -0.65; O      -0.67; O      -0.69; O      -0.61; H       0.36; 
@             H       0.34; H       0.33; H       0.38; H       0.37; H       0.38; H       0.30; H       0.35; 

 DIIS Fock eigenvalues in symmetry 1
      -20.67040      -20.65840      -20.63381      -20.61347      -15.72940
       -1.45541       -1.44166       -1.42716       -1.39175       -1.35076
       -0.83831       -0.81231       -0.81078       -0.80503       -0.79639
       -0.78937       -0.74510       -0.69669       -0.68595       -0.65861
       -0.64491       -0.62721       -0.61083       -0.59555       -0.56501
        0.04638        0.09027        0.09390        0.12667        0.14466
        0.17623        0.18549        0.20043        0.23103        0.23975
        0.25246        0.28284        0.33822        0.36649        0.36806
        0.46844        0.48705        0.49339        0.52711        0.52877
        0.54171        0.54735        0.58523        0.61079        0.79443
        0.81850        0.85142        0.86517        0.90986        0.92317
        0.92721        0.97987        0.98588        1.00803        1.01270
        1.04066        1.05037        1.05686        1.09235        1.14342
        1.16551        1.18132        1.27778        1.30194        1.33941
        1.35127        1.41046        1.41942        1.42277        1.43138
        1.44761        1.46974        1.50445        1.53390        1.59437
        1.61923        1.64084        1.66142        1.68530        1.70910
        1.75107        1.82847        1.84167        1.86127        1.88224
        1.98975        2.03364        2.09517        2.11574        2.12674
        2.17085        2.20716        2.26674        2.27298        2.28307
        2.30783        2.31955        2.33599        2.33853        2.46786
        2.53344        2.57886        2.60064        2.61388        2.62548
        2.65475        2.69849        2.72149        2.73258        2.74093
        2.78557        2.89094        2.94713        3.15741        3.22920
        3.25923        3.32312        3.36823        3.38585        3.39624
        3.43073        3.43560        3.45391        3.47274        3.49970
        3.56532        3.58302        3.60454        3.62080        3.87530
        3.89869        3.95065        3.96348        4.12771        4.14791
        4.15550        4.17887        5.04095        5.05094        5.15622
        5.26687        5.29574        5.31557        5.40084        5.71155
        5.72137        5.76910        5.77814        5.98201        6.00723
        6.03876        6.12544       36.90658       51.42504       51.42790
       51.46178       51.46691
 Time used in FCKEIG, thr_jaco:   2.98D-01  3.00D-02  1.23D-06
 CPU and wall times used in FCKEIG, THR_FCKEIG:   2.99D-01  3.00D-02  2.88D-04
 -----------------------------------------------------------------------------

 *** DIIS iteration number    6
 RDSUPM called. NFMAT, ISYMDM(1:NFMAT)                     1
                     1

 ITDIIS, energy, error norm, change in energy, scr.thr., difden:
@ DIIS iter.   6    -361.192220707        1.06618D-02   -8.38D-05  -20    F

 (DIIS_RED) Control Parameters C2DIIS =         F NEVC =    6


 (DIIS_RED) B matrix:

               Column   1     Column   2     Column   3     Column   4     Column   5     Column   6
       1      16.71172349
       2       0.70767653     1.36434013
       3       0.82664384     0.00108309     0.14031966
       4       0.05813203     0.07998395     0.00603261     0.00868508
       5       0.02177308     0.00707836     0.00561263     0.00087499     0.00082839
       6      -0.00521835    -0.00011581     0.00068095     0.00053007     0.00001901     0.00011367
    ==== End of matrix output ====

 DIIS C vector; C2DIIS = F, LAMBDA = -3.51D-05
    0.000749    0.006645   -0.009113   -0.130625    0.142893    0.989452
* Read MO coefficients from SIRIUS.RST with label "NEWORB  " and header info:  2Dec18  DIIS   6
      Virial theorem: -V/T =      2.002402
@      MULPOP N      -0.37; H       0.30; H       0.27; H       0.29; H       0.32; O      -0.65; O      -0.67; O      -0.70; O      -0.61; H       0.36; 
@             H       0.34; H       0.33; H       0.38; H       0.37; H       0.38; H       0.30; H       0.35; 

 DIIS Fock eigenvalues in symmetry 1
      -20.67300      -20.66073      -20.63535      -20.61562      -15.73120
       -1.45616       -1.44227       -1.42759       -1.39238       -1.35120
       -0.83882       -0.81275       -0.81131       -0.80569       -0.79698
       -0.78991       -0.74581       -0.69762       -0.68679       -0.65926
       -0.64579       -0.62770       -0.61120       -0.59571       -0.56531
        0.04629        0.09009        0.09377        0.12652        0.14455
        0.17611        0.18537        0.20028        0.23096        0.23963
        0.25235        0.28269        0.33809        0.36642        0.36785
        0.46821        0.48682        0.49314        0.52687        0.52846
        0.54148        0.54710        0.58503        0.61056        0.79410
        0.81818        0.85111        0.86487        0.90948        0.92298
        0.92686        0.97940        0.98556        1.00763        1.01232
        1.04030        1.04998        1.05641        1.09203        1.14316
        1.16522        1.18099        1.27745        1.30163        1.33911
        1.35094        1.41014        1.41902        1.42237        1.43103
        1.44728        1.46935        1.50414        1.53356        1.59416
        1.61898        1.64049        1.66124        1.68518        1.70897
        1.75081        1.82824        1.84139        1.86099        1.88191
        1.98960        2.03347        2.09504        2.11518        2.12623
        2.17030        2.20667        2.26648        2.27263        2.28261
        2.30745        2.31920        2.33576        2.33810        2.46761
        2.53327        2.57867        2.60039        2.61381        2.62539
        2.65444        2.69820        2.72122        2.73222        2.74066
        2.78518        2.89049        2.94667        3.15724        3.22855
        3.25865        3.32252        3.36759        3.38521        3.39531
        3.42997        3.43483        3.45310        3.47215        3.49892
        3.56441        3.58225        3.60399        3.62002        3.87436
        3.89789        3.94984        3.96287        4.12672        4.14708
        4.15486        4.17803        5.04014        5.05006        5.15530
        5.26558        5.29483        5.31439        5.39969        5.71053
        5.72018        5.76784        5.77689        5.98058        6.00598
        6.03753        6.12455       36.90481       51.42267       51.42541
       51.45977       51.46525
 Time used in FCKEIG, thr_jaco:   2.53D-01  2.60D-02  4.55D-07
 CPU and wall times used in FCKEIG, THR_FCKEIG:   2.53D-01  2.60D-02  1.07D-04
 -----------------------------------------------------------------------------

 *** DIIS iteration number    7
 RDSUPM called. NFMAT, ISYMDM(1:NFMAT)                     1
                     1

 ITDIIS, energy, error norm, change in energy, scr.thr., difden:
@ DIIS iter.   7    -361.192232372        2.25553D-03   -1.17D-05  -20    F

 (DIIS_RED) Control Parameters C2DIIS =         F NEVC =    7


 (DIIS_RED) B matrix:

               Column   1     Column   2     Column   3     Column   4     Column   5     Column   6
       1      16.71172349
       2       0.70767653     1.36434013
       3       0.82664384     0.00108309     0.14031966
       4       0.05813203     0.07998395     0.00603261     0.00868508
       5       0.02177308     0.00707836     0.00561263     0.00087499     0.00082839
       6      -0.00521835    -0.00011581     0.00068095     0.00053007     0.00001901     0.00011367
       7       0.00025820     0.00024526    -0.00002291     0.00001165     0.00004474     0.00000000

               Column   7
       7       0.00000509
    ==== End of matrix output ====

 DIIS C vector; C2DIIS = F, LAMBDA = -1.11D-06
   -0.000232   -0.000890    0.005558    0.022953   -0.109118   -0.123861    1.205589
* Read MO coefficients from SIRIUS.RST with label "NEWORB  " and header info:  2Dec18  DIIS   7
      Virial theorem: -V/T =      2.002338
@      MULPOP N      -0.37; H       0.30; H       0.27; H       0.29; H       0.32; O      -0.65; O      -0.67; O      -0.70; O      -0.61; H       0.36; 
@             H       0.34; H       0.33; H       0.38; H       0.37; H       0.38; H       0.30; H       0.35; 

 DIIS Fock eigenvalues in symmetry 1
      -20.67265      -20.66039      -20.63522      -20.61531      -15.73076
       -1.45599       -1.44210       -1.42749       -1.39223       -1.35098
       -0.83865       -0.81259       -0.81116       -0.80556       -0.79692
       -0.78978       -0.74573       -0.69755       -0.68673       -0.65924
       -0.64576       -0.62749       -0.61100       -0.59555       -0.56510
        0.04635        0.09012        0.09381        0.12656        0.14459
        0.17615        0.18541        0.20031        0.23102        0.23968
        0.25242        0.28279        0.33820        0.36653        0.36799
        0.46828        0.48690        0.49320        0.52692        0.52849
        0.54153        0.54713        0.58510        0.61064        0.79425
        0.81830        0.85125        0.86501        0.90957        0.92307
        0.92697        0.97951        0.98566        1.00773        1.01243
        1.04038        1.05008        1.05650        1.09214        1.14328
        1.16533        1.18112        1.27758        1.30175        1.33922
        1.35102        1.41019        1.41904        1.42243        1.43104
        1.44734        1.46936        1.50418        1.53363        1.59423
        1.61905        1.64053        1.66135        1.68530        1.70908
        1.75089        1.82826        1.84141        1.86103        1.88191
        1.98972        2.03361        2.09517        2.11523        2.12629
        2.17033        2.20669        2.26659        2.27272        2.28268
        2.30747        2.31928        2.33590        2.33816        2.46768
        2.53336        2.57874        2.60045        2.61391        2.62548
        2.65449        2.69826        2.72126        2.73222        2.74069
        2.78517        2.89069        2.94688        3.15740        3.22876
        3.25886        3.32274        3.36771        3.38535        3.39547
        3.43011        3.43500        3.45323        3.47224        3.49911
        3.56458        3.58241        3.60408        3.62016        3.87451
        3.89804        3.94996        3.96295        4.12690        4.14725
        4.15497        4.17818        5.04041        5.05034        5.15558
        5.26582        5.29498        5.31460        5.39989        5.71068
        5.72037        5.76804        5.77708        5.98079        6.00618
        6.03771        6.12464       36.90524       51.42301       51.42575
       51.46004       51.46542
 Time used in FCKEIG, thr_jaco:   3.02D-01  3.00D-02  9.64D-08
 CPU and wall times used in FCKEIG, THR_FCKEIG:   3.02D-01  3.00D-02  2.26D-05
 -----------------------------------------------------------------------------

 *** DIIS iteration number    8
 RDSUPM called. NFMAT, ISYMDM(1:NFMAT)                     1
                     1

 ITDIIS, energy, error norm, change in energy, scr.thr., difden:
@ DIIS iter.   8    -361.192232916        3.45633D-04   -5.44D-07  -20    F

 (DIIS_RED) Control Parameters C2DIIS =         F NEVC =    8


 (DIIS_RED) B matrix:

               Column   1     Column   2     Column   3     Column   4     Column   5     Column   6
       1      16.71172349
       2       0.70767653     1.36434013
       3       0.82664384     0.00108309     0.14031966
       4       0.05813203     0.07998395     0.00603261     0.00868508
       5       0.02177308     0.00707836     0.00561263     0.00087499     0.00082839
       6      -0.00521835    -0.00011581     0.00068095     0.00053007     0.00001901     0.00011367
       7       0.00025820     0.00024526    -0.00002291     0.00001165     0.00004474     0.00000000
       8       0.00010512    -0.00004512     0.00000777     0.00000173     0.00000022     0.00000156

               Column   7     Column   8
       7       0.00000509
       8       0.00000031     0.00000012
    ==== End of matrix output ====

 DIIS C vector; C2DIIS = F, LAMBDA = -5.69D-08
    0.000015    0.000082   -0.000882   -0.001843    0.019685   -0.004949   -0.240978    1.228870
* Read MO coefficients from SIRIUS.RST with label "NEWORB  " and header info:  2Dec18  DIIS   8
      Virial theorem: -V/T =      2.002355
@      MULPOP N      -0.37; H       0.29; H       0.27; H       0.29; H       0.32; O      -0.65; O      -0.67; O      -0.70; O      -0.61; H       0.36; 
@             H       0.34; H       0.33; H       0.38; H       0.37; H       0.38; H       0.30; H       0.35; 

 DIIS Fock eigenvalues in symmetry 1
      -20.67265      -20.66041      -20.63516      -20.61537      -15.73079
       -1.45598       -1.44210       -1.42747       -1.39225       -1.35099
       -0.83866       -0.81259       -0.81116       -0.80555       -0.79690
       -0.78977       -0.74574       -0.69757       -0.68675       -0.65924
       -0.64581       -0.62749       -0.61100       -0.59553       -0.56511
        0.04635        0.09012        0.09381        0.12656        0.14459
        0.17615        0.18541        0.20031        0.23102        0.23968
        0.25242        0.28279        0.33820        0.36652        0.36798
        0.46828        0.48690        0.49320        0.52691        0.52849
        0.54154        0.54713        0.58509        0.61064        0.79424
        0.81829        0.85124        0.86500        0.90956        0.92307
        0.92695        0.97952        0.98566        1.00773        1.01243
        1.04038        1.05008        1.05649        1.09213        1.14328
        1.16533        1.18111        1.27757        1.30174        1.33922
        1.35102        1.41019        1.41904        1.42242        1.43104
        1.44733        1.46935        1.50418        1.53363        1.59423
        1.61905        1.64052        1.66135        1.68529        1.70908
        1.75089        1.82826        1.84141        1.86103        1.88190
        1.98972        2.03360        2.09517        2.11523        2.12629
        2.17031        2.20669        2.26658        2.27272        2.28268
        2.30748        2.31927        2.33589        2.33814        2.46768
        2.53335        2.57874        2.60045        2.61390        2.62547
        2.65448        2.69825        2.72126        2.73222        2.74068
        2.78516        2.89068        2.94687        3.15739        3.22874
        3.25885        3.32273        3.36771        3.38535        3.39547
        3.43008        3.43499        3.45320        3.47226        3.49910
        3.56458        3.58241        3.60409        3.62013        3.87451
        3.89803        3.94993        3.96296        4.12690        4.14725
        4.15499        4.17815        5.04040        5.05032        5.15556
        5.26581        5.29500        5.31460        5.39985        5.71069
        5.72036        5.76801        5.77707        5.98079        6.00617
        6.03767        6.12467       36.90521       51.42299       51.42575
       51.46001       51.46546
 Time used in FCKEIG, thr_jaco:   2.49D-01  2.60D-02  1.48D-08
 CPU and wall times used in FCKEIG, THR_FCKEIG:   2.49D-01  2.60D-02  3.46D-06
 -----------------------------------------------------------------------------

 *** DIIS iteration number    9
 RDSUPM called. NFMAT, ISYMDM(1:NFMAT)                     1
                     1

 ITDIIS, energy, error norm, change in energy, scr.thr., difden:
@ DIIS iter.   9    -361.192232932        9.91375D-05   -1.55D-08  -20    F

 (DIIS_RED) Control Parameters C2DIIS =         F NEVC =    8


 (DIIS_RED) B matrix:

[...]

 Principal values of diagonalized transition strength matrix:

             a.u.               
 1      -0.00000000
 2       0.00000000
 3       0.00018611

 Principal axis of diagonalized transition strength matrix:


               Column   1     Column   2     Column   3
       1       0.85657983    -0.49986799     0.12807415
       2       0.47581970     0.66910362    -0.57087298
       3       0.19966625     0.54993848     0.81098770
    ==== End of matrix output ====


 CCSD   oscillator strength matrix for state nr. 13 of symmetry 1
 CCSD  excitation energy:15.19482235


               Column   1     Column   2     Column   3
       1       0.00003092    -0.00013784     0.00019581
       2      -0.00013784     0.00061439    -0.00087282
       3       0.00019581    -0.00087282     0.00123993
    ==== End of matrix output ====

 Principal values of diagonalized oscillator strength matrix:

             a.u.               
 1      -0.00000001
 2       0.00000000
 3       0.00188525

 Principal axis of diagonalized oscillator strength matrix:


               Column   1     Column   2     Column   3
       1       0.85657983    -0.49986799     0.12807415
       2       0.47581970     0.66910362    -0.57087298
       3       0.19966625     0.54993848     0.81098770
    ==== End of matrix output ====


 CCSD  Transition strength matrix for state nr. 14 of symmetry 1
 CCSD  excitation energy:15.22305506

 Gauge: length

               Column   1     Column   2     Column   3
       1     2.648700D-04  -5.788162D-05   3.637440D-05
       2    -5.788162D-05   1.264846D-05  -7.948354D-06
       3     3.637440D-05  -7.948354D-06   4.994536D-06
    ==== End of matrix output ====

 Principal values of diagonalized transition strength matrix:

             a.u.               
 1      -0.00000000
 2      -0.00000000
 3       0.00028251

 Principal axis of diagonalized transition strength matrix:


               Column   1     Column   2     Column   3
       1      -0.22665639     0.10526274     0.96826992
       2      -0.51943557     0.82789772    -0.21159407
       3       0.82390143     0.55091299     0.13297110
    ==== End of matrix output ====


 CCSD   oscillator strength matrix for state nr. 14 of symmetry 1
 CCSD  excitation energy:15.22305506


               Column   1     Column   2     Column   3
       1       0.00268809    -0.00058742     0.00036915
       2      -0.00058742     0.00012837    -0.00008067
       3       0.00036915    -0.00008067     0.00005069
    ==== End of matrix output ====

 Principal values of diagonalized oscillator strength matrix:

             a.u.               
 1      -0.00000001
 2      -0.00000000
 3       0.00286715

 Principal axis of diagonalized oscillator strength matrix:


               Column   1     Column   2     Column   3
       1      -0.22665639     0.10526274     0.96826992
       2      -0.51943557     0.82789772    -0.21159407
       3       0.82390143     0.55091299     0.13297110
    ==== End of matrix output ====


 CCSD  Transition strength matrix for state nr. 15 of symmetry 1
 CCSD  excitation energy:15.24259881

 Gauge: length

               Column   1     Column   2     Column   3
       1     2.161322D-04  -7.018517D-05   3.450323D-05
       2    -7.018517D-05   2.279125D-05  -1.120432D-05
       3     3.450323D-05  -1.120432D-05   5.508078D-06
    ==== End of matrix output ====

 Principal values of diagonalized transition strength matrix:

             a.u.               
 1      -0.00000000
 2       0.00000000
 3       0.00024443

 Principal axis of diagonalized transition strength matrix:


               Column   1     Column   2     Column   3
       1       0.30296263    -0.15488782     0.94033154
       2       0.95219865     0.00868115    -0.30535613
       3       0.03913278     0.98789392     0.15011404
    ==== End of matrix output ====


 CCSD   oscillator strength matrix for state nr. 15 of symmetry 1
 CCSD  excitation energy:15.24259881


               Column   1     Column   2     Column   3
       1       0.00219628    -0.00071320     0.00035061
       2      -0.00071320     0.00023160    -0.00011386
       3       0.00035061    -0.00011386     0.00005597
    ==== End of matrix output ====

 Principal values of diagonalized oscillator strength matrix:

             a.u.               
 1      -0.00000000
 2      -0.00000000
 3       0.00248385

 Principal axis of diagonalized oscillator strength matrix:


               Column   1     Column   2     Column   3
       1       0.30296263    -0.15488782     0.94033154
       2       0.95219865     0.00868115    -0.30535613
       3       0.03913278     0.98789392     0.15011404
    ==== End of matrix output ====

  Total time for    135 linear response residues:     249.06 seconds.
  

 *******************************************************************************
 *******************************************************************************
 *                                                                             *
 *                                                                             *
 *                   SUMMARY OF COUPLED CLUSTER CALCULATION                    *
 *                                                                             *
 *                                                                             *
 *******************************************************************************
 *******************************************************************************

                                                                                
                                                                                
            Total SCF   energy:                  -361.1922329325                
            Total MP2   energy:                  -362.2949663794                
            Total CCSD  energy:                  -362.3362411118                
                                                                                
                                                                                
            Total SCF   energy:                  -361.1922329325                
            Total RSTAR energy:                  -362.3362411118                
            Total CCSD  energy:                  -362.3363610329                
                                                                                
                                                                                
            Total SCF   energy:                  -361.1922329325                
            Total RSTAR energy:                  -362.3363610329                
            Total CCSD  energy:                  -362.3363611558                
                                                                                
                                                                                
            Total SCF   energy:                  -361.1922329325                
            Total RSTAR energy:                  -362.3363611558                
            Total CCSD  energy:                  -362.3363612458                
                                                                                
                                                                                
            Total SCF   energy:                  -361.1922329325                
            Total RSTAR energy:                  -362.3363612458                
            Total CCSD  energy:                  -362.3363612459                
                                                                                
                                                                                
            Total SCF   energy:                  -361.1922329325                
            Total RSTAR energy:                  -362.3363612459                
            Total CCSD  energy:                  -362.3363612459                
            CCSD Total  energy:                  -362.7237861542                
            CCSD E(QM/MM)     :                    -0.3834480110                
                                                                                
                                                                                
                                                                                
 +=============================================================================+
 |  sym. | Exci.  |        CCSD       Excitation energies            | ||T1||  |
 |(spin, |        +------------------------------------------------------------+
 | spat) |        |     Hartree    |       eV.      |     cm-1       |    %    |
 +=============================================================================+
 | ^1A   |    1   |    14.9271222  |     406.18766  |   3276124.612  |  88.66  |
 | ^1A   |    2   |    14.9921534  |     407.95725  |   3290397.312  |  88.94  |
 | ^1A   |    3   |    15.0003155  |     408.17935  |   3292188.674  |  89.18  |
 | ^1A   |    4   |    15.0195450  |     408.70261  |   3296409.062  |  88.80  |
 | ^1A   |    5   |    15.0805374  |     410.36230  |   3309795.350  |  88.05  |
 | ^1A   |    6   |    15.0959021  |     410.78039  |   3313167.510  |  88.11  |
 | ^1A   |    7   |    15.1111926  |     411.19647  |   3316523.399  |  88.18  |
 | ^1A   |    8   |    15.1215268  |     411.47768  |   3318791.487  |  88.25  |
 | ^1A   |    9   |    15.1281951  |     411.65913  |   3320255.019  |  88.36  |
 | ^1A   |   10   |    15.1600112  |     412.52489  |   3327237.832  |  87.94  |
 | ^1A   |   11   |    15.1710464  |     412.82517  |   3329659.782  |  87.91  |
 | ^1A   |   12   |    15.1835730  |     413.16604  |   3332409.053  |  88.25  |
 | ^1A   |   13   |    15.1948224  |     413.47215  |   3334878.004  |  88.07  |
 | ^1A   |   14   |    15.2230551  |     414.24040  |   3341074.366  |  88.14  |
 | ^1A   |   15   |    15.2425988  |     414.77221  |   3345363.724  |  88.01  |
 +=============================================================================+
                                                                                
                                                                                
     Total energies in Hartree:                                                 
             1 ^1A       -347.4132159412                                        
             2 ^1A       -347.3481847377                                        
             3 ^1A       -347.3400226915                                        
             4 ^1A       -347.3207931868                                        
             5 ^1A       -347.2598007735                                        
             6 ^1A       -347.2444360808                                        
             7 ^1A       -347.2291455239                                        
             8 ^1A       -347.2188113530                                        
             9 ^1A       -347.2121430124                                        
            10 ^1A       -347.1803269755                                        
            11 ^1A       -347.1692917604                                        
            12 ^1A       -347.1567651599                                        
            13 ^1A       -347.1455157883                                        
            14 ^1A       -347.1172830867                                        
            15 ^1A       -347.0977393340                                        
                                                                                
                                                                                
 +=============================================================================+
 |  sym. | Exci.  |        CCSD       Length   Gauge Oscillator Strength       |
 |(spin, |        +------------------------------------------------------------+
 | spat) |        | Dipole Strength(a.u.) | Oscillator strength  | Direction   |
 +=============================================================================+
 | ^1A   |    1   |        0.0002319      |      0.0023075       |  (Y,Z)      |
 | ^1A   |    2   |        0.0038897      |      0.0388768       |  (Y,Z)      |
 | ^1A   |    3   |        0.0041538      |      0.0415391       |  (Y,Z)      |
 | ^1A   |    4   |        0.0026904      |      0.0269391       |  (Y,Z)      |
 | ^1A   |    5   |        0.0002074      |      0.0020855       |  (Y,Z)      |
 | ^1A   |    6   |        0.0000811      |      0.0008157       |  (Y,Z)      |
 | ^1A   |    7   |        0.0003595      |      0.0036215       |  (Y,Z)      |
 | ^1A   |    8   |        0.0009736      |      0.0098145       |  (Y,Z)      |
 | ^1A   |    9   |        0.0006630      |      0.0066871       |  (Y,Z)      |
 | ^1A   |   10   |        0.0002938      |      0.0029691       |  (Y,Z)      |
 | ^1A   |   11   |        0.0000897      |      0.0009070       |  (Y,Z)      |
 | ^1A   |   12   |        0.0006020      |      0.0060938       |  (Y,Z)      |
 | ^1A   |   13   |        0.0001861      |      0.0018852       |  (Y,Z)      |
 | ^1A   |   14   |        0.0002825      |      0.0028671       |  (Y,Z)      |
 | ^1A   |   15   |        0.0002444      |      0.0024838       |  (Y,Z)      |
 +=============================================================================+

  1 a.u. =        27.21138 eV.  
  1 a.u. =    219474.62934 cm-1.
  

 *******************************************************************************
 *******************************************************************************
 *                                                                             *
 *                                                                             *
 *                      END OF COUPLED CLUSTER CALCULATION                     *
 *                                                                             *
 *                                                                             *
 *******************************************************************************
 *******************************************************************************


 CPU and wall time for CC :  549710.753   67888.237

 
     Date and time (Linux)  : Mon Dec  3 16:40:51 2018
     Host name              : n-62-29-23                              


                      .-------------------------------------.
                      | End of Coupled Cluster Section (CC) |
                      `-------------------------------------'

  Total CPU  time used in DALTON: 152 hours 54 minutes 57 seconds
  Total wall time used in DALTON:  18 hours 53 minutes 50 seconds

 
     Date and time (Linux)  : Mon Dec  3 16:40:51 2018
     Host name              : n-62-29-23                              
  

 +---------------------------------------------------------+ 
 | List of selected calculated molecular properties (a.u.) | 
 +---------------------------------------------------------+ 

  Properties are read from unit number                      4

 CCSD       properties :
 #  1 1 CCSD/MM  Ground state Energy =    -362.7237861542
 #  2 1 E_QM/MM  Ground state Energy =      -0.3834480110
 #  3 1 Sy: 1 Sp: 1 Exc:  1 E_tot:   -347.4132159412 w:     14.9271222020 E_grs:   -362.3403381432
 #  4 1 Exctot   Excited state Energy =    -347.4132159412
 #  5 1 Sy: 1 Sp: 1 Exc:  2 E_tot:   -347.3481847377 w:     14.9921534056 E_grs:   -362.3403381432
 #  6 1 Exctot   Excited state Energy =    -347.3481847377
 #  7 1 Sy: 1 Sp: 1 Exc:  3 E_tot:   -347.3400226915 w:     15.0003154517 E_grs:   -362.3403381432
 #  8 1 Exctot   Excited state Energy =    -347.3400226915
 #  9 1 Sy: 1 Sp: 1 Exc:  4 E_tot:   -347.3207931868 w:     15.0195449564 E_grs:   -362.3403381432
 # 10 1 Exctot   Excited state Energy =    -347.3207931868
 # 11 1 Sy: 1 Sp: 1 Exc:  5 E_tot:   -347.2598007735 w:     15.0805373698 E_grs:   -362.3403381432
 # 12 1 Exctot   Excited state Energy =    -347.2598007735
 # 13 1 Sy: 1 Sp: 1 Exc:  6 E_tot:   -347.2444360808 w:     15.0959020625 E_grs:   -362.3403381432
 # 14 1 Exctot   Excited state Energy =    -347.2444360808
 # 15 1 Sy: 1 Sp: 1 Exc:  7 E_tot:   -347.2291455239 w:     15.1111926193 E_grs:   -362.3403381432
 # 16 1 Exctot   Excited state Energy =    -347.2291455239
 # 17 1 Sy: 1 Sp: 1 Exc:  8 E_tot:   -347.2188113530 w:     15.1215267903 E_grs:   -362.3403381432
 # 18 1 Exctot   Excited state Energy =    -347.2188113530
 # 19 1 Sy: 1 Sp: 1 Exc:  9 E_tot:   -347.2121430124 w:     15.1281951308 E_grs:   -362.3403381432
 # 20 1 Exctot   Excited state Energy =    -347.2121430124
 # 21 1 Sy: 1 Sp: 1 Exc: 10 E_tot:   -347.1803269755 w:     15.1600111677 E_grs:   -362.3403381432
 # 22 1 Exctot   Excited state Energy =    -347.1803269755
 # 23 1 Sy: 1 Sp: 1 Exc: 11 E_tot:   -347.1692917604 w:     15.1710463829 E_grs:   -362.3403381432
 # 24 1 Exctot   Excited state Energy =    -347.1692917604
 # 25 1 Sy: 1 Sp: 1 Exc: 12 E_tot:   -347.1567651599 w:     15.1835729834 E_grs:   -362.3403381432
 # 26 1 Exctot   Excited state Energy =    -347.1567651599
 # 27 1 Sy: 1 Sp: 1 Exc: 13 E_tot:   -347.1455157883 w:     15.1948223550 E_grs:   -362.3403381432
 # 28 1 Exctot   Excited state Energy =    -347.1455157883
 # 29 1 Sy: 1 Sp: 1 Exc: 14 E_tot:   -347.1172830867 w:     15.2230550566 E_grs:   -362.3403381432
 # 30 1 Exctot   Excited state Energy =    -347.1172830867
 # 31 1 Sy: 1 Sp: 1 Exc: 15 E_tot:   -347.0977393340 w:     15.2425988092 E_grs:   -362.3403381432
 # 32 1 Exctot   Excited state Energy =    -347.0977393340
 # 33 1 |<O|XDIPLEN |i(14.927122)>| =     0.00307960
 # 35 1 |<O|XDIPLEN |i(14.992153)>| =     0.04649391
 # 37 1 |<O|XDIPLEN |i(15.000315)>| =     0.02599340
 # 39 1 |<O|XDIPLEN |i(15.019545)>| =     0.02426019
 # 41 1 |<O|XDIPLEN |i(15.080537)>| =     0.01423034
 # 43 1 |<O|XDIPLEN |i(15.095902)>| =     0.00550609
 # 45 1 |<O|XDIPLEN |i(15.111193)>| =     0.00851789
 # 47 1 |<O|XDIPLEN |i(15.121527)>| =     0.01005060
 # 49 1 |<O|XDIPLEN |i(15.128195)>| =     0.00196728
 # 51 1 |<O|XDIPLEN |i(15.160011)>| =     0.00143971
 # 53 1 |<O|XDIPLEN |i(15.171046)>| =     0.00656364
 # 55 1 |<O|XDIPLEN |i(15.183573)>| =     0.02340179
 # 57 1 |<O|XDIPLEN |i(15.194822)>| =     0.00174697
 # 59 1 |<O|XDIPLEN |i(15.223055)>| =     0.01627483
 # 61 1 |<O|XDIPLEN |i(15.242599)>| =     0.01470143
 # 63 1 |<O|YDIPLEN |i(14.927122)>| =     0.00846568
 # 65 1 |<O|YDIPLEN |i(14.992153)>| =     0.03942361
 # 67 1 |<O|YDIPLEN |i(15.000315)>| =     0.04860046
 # 69 1 |<O|YDIPLEN |i(15.019545)>| =     0.01302257
 # 71 1 |<O|YDIPLEN |i(15.080537)>| =     0.00171273
 # 73 1 |<O|YDIPLEN |i(15.095902)>| =     0.00623010
 # 75 1 |<O|YDIPLEN |i(15.111193)>| =     0.01565625
 # 77 1 |<O|YDIPLEN |i(15.121527)>| =     0.01303479
 # 79 1 |<O|YDIPLEN |i(15.128195)>| =     0.00590018
 # 81 1 |<O|YDIPLEN |i(15.160011)>| =     0.01432151
 # 83 1 |<O|YDIPLEN |i(15.171046)>| =     0.00253594
 # 85 1 |<O|YDIPLEN |i(15.183573)>| =     0.00622769
 # 87 1 |<O|YDIPLEN |i(15.194822)>| =     0.00778791
 # 89 1 |<O|YDIPLEN |i(15.223055)>| =     0.00355647
 # 91 1 |<O|YDIPLEN |i(15.242599)>| =     0.00477402
 # 93 1 |<O|ZDIPLEN |i(14.927122)>| =     0.01227708
 # 95 1 |<O|ZDIPLEN |i(14.992153)>| =     0.01318363
 # 97 1 |<O|ZDIPLEN |i(15.000315)>| =     0.03340893
 # 99 1 |<O|ZDIPLEN |i(15.019545)>| =     0.04395753
 #101 1 |<O|ZDIPLEN |i(15.080537)>| =     0.00141285
 #103 1 |<O|ZDIPLEN |i(15.095902)>| =     0.00345289
 #105 1 |<O|ZDIPLEN |i(15.111193)>| =     0.00646636
 #107 1 |<O|ZDIPLEN |i(15.121527)>| =     0.02650741
 #109 1 |<O|ZDIPLEN |i(15.128195)>| =     0.02498720
 #111 1 |<O|ZDIPLEN |i(15.160011)>| =     0.00930568
 #113 1 |<O|ZDIPLEN |i(15.171046)>| =     0.00633723
 #115 1 |<O|ZDIPLEN |i(15.183573)>| =     0.00394832
 #117 1 |<O|ZDIPLEN |i(15.194822)>| =     0.01106361
 #119 1 |<O|ZDIPLEN |i(15.223055)>| =     0.00223485
 #121 1 |<O|ZDIPLEN |i(15.242599)>| =     0.00234693

 THE_END   
