

     ************************************************************************
     *************** Dalton - An Electronic Structure Program ***************
     ************************************************************************

    This is output from DALTON release Dalton2017.alpha (2016)
         ( Web site: http://daltonprogram.org )

   ----------------------------------------------------------------------------

    NOTE:
     
    Dalton is an experimental code for the evaluation of molecular
    properties using (MC)SCF, DFT, CI, and CC wave functions.
    The authors accept no responsibility for the performance of
    the code or for the correctness of the results.
     
    The code (in whole or part) is provided under a licence and
    is not to be reproduced for further distribution without
    the written permission of the authors or their representatives.
     
    See the home page "http://daltonprogram.org" for further information.
     
    If results obtained with this code are published,
    the appropriate citations would be both of:
     
       K. Aidas, C. Angeli, K. L. Bak, V. Bakken, R. Bast,
       L. Boman, O. Christiansen, R. Cimiraglia, S. Coriani,
       P. Dahle, E. K. Dalskov, U. Ekstroem,
       T. Enevoldsen, J. J. Eriksen, P. Ettenhuber, B. Fernandez,
       L. Ferrighi, H. Fliegl, L. Frediani, K. Hald, A. Halkier,
       C. Haettig, H. Heiberg, T. Helgaker, A. C. Hennum,
       H. Hettema, E. Hjertenaes, S. Hoest, I.-M. Hoeyvik,
       M. F. Iozzi, B. Jansik, H. J. Aa. Jensen, D. Jonsson,
       P. Joergensen, J. Kauczor, S. Kirpekar,
       T. Kjaergaard, W. Klopper, S. Knecht, R. Kobayashi, H. Koch,
       J. Kongsted, A. Krapp, K. Kristensen, A. Ligabue,
       O. B. Lutnaes, J. I. Melo, K. V. Mikkelsen, R. H. Myhre,
       C. Neiss, C. B. Nielsen, P. Norman, J. Olsen,
       J. M. H. Olsen, A. Osted, M. J. Packer, F. Pawlowski,
       T. B. Pedersen, P. F. Provasi, S. Reine, Z. Rinkevicius,
       T. A. Ruden, K. Ruud, V. Rybkin, P. Salek, C. C. M. Samson,
       A. Sanchez de Meras, T. Saue, S. P. A. Sauer,
       B. Schimmelpfennig, K. Sneskov, A. H. Steindal,
       K. O. Sylvester-Hvid, P. R. Taylor, A. M. Teale,
       E. I. Tellgren, D. P. Tew, A. J. Thorvaldsen, L. Thoegersen,
       O. Vahtras, M. A. Watson, D. J. D. Wilson, M. Ziolkowski
       and H. Agren,
       "The Dalton quantum chemistry program system",
       WIREs Comput. Mol. Sci. 2014, 4:269–284 (doi: 10.1002/wcms.1172)
     
    and
     
       Dalton, a Molecular Electronic Structure Program,
       Release Dalton2017.alpha (2016), see http://daltonprogram.org
   ----------------------------------------------------------------------------

    Authors in alphabetical order (major contribution(s) in parenthesis):

  Kestutis Aidas,           Vilnius University,           Lithuania   (QM/MM)
  Celestino Angeli,         University of Ferrara,        Italy       (NEVPT2)
  Keld L. Bak,              UNI-C,                        Denmark     (AOSOPPA, non-adiabatic coupling, magnetic properties)
  Vebjoern Bakken,          University of Oslo,           Norway      (DALTON; geometry optimizer, symmetry detection)
  Radovan Bast,             UiT The Arctic U. of Norway,  Norway      (DALTON installation and execution frameworks)
  Pablo Baudin,             University of Valencia,       Spain       (Cholesky excitation energies)
  Linus Boman,              NTNU,                         Norway      (Cholesky decomposition and subsystems)
  Ove Christiansen,         Aarhus University,            Denmark     (CC module)
  Renzo Cimiraglia,         University of Ferrara,        Italy       (NEVPT2)
  Sonia Coriani,            University of Trieste,        Italy       (CC module, MCD in RESPONS)
  Janusz Cukras,            University of Trieste,        Italy       (MChD in RESPONS)
  Paal Dahle,               University of Oslo,           Norway      (Parallelization)
  Erik K. Dalskov,          UNI-C,                        Denmark     (SOPPA)
  Thomas Enevoldsen,        Univ. of Southern Denmark,    Denmark     (SOPPA)
  Janus J. Eriksen,         Aarhus University,            Denmark     (Polarizable embedding model, TDA)
  Rasmus Faber,             University of Copenhagen,     Denmark     (Vib.avg. NMR with SOPPA, parallel AO-SOPPA)
  Berta Fernandez,          U. of Santiago de Compostela, Spain       (doublet spin, ESR in RESPONS)
  Lara Ferrighi,            Aarhus University,            Denmark     (PCM Cubic response)
  Heike Fliegl,             University of Oslo,           Norway      (CCSD(R12))
  Luca Frediani,            UiT The Arctic U. of Norway,  Norway      (PCM)
  Bin Gao,                  UiT The Arctic U. of Norway,  Norway      (Gen1Int library)
  Christof Haettig,         Ruhr-University Bochum,       Germany     (CC module)
  Kasper Hald,              Aarhus University,            Denmark     (CC module)
  Asger Halkier,            Aarhus University,            Denmark     (CC module)
  Frederik Beyer Hansen,    University of Copenhagen,     Denmark     (Parallel AO-SOPPA)
  Erik D. Hedegaard,        Univ. of Southern Denmark,    Denmark     (Polarizable embedding model, QM/MM)
  Hanne Heiberg,            University of Oslo,           Norway      (geometry analysis, selected one-electron integrals)
  Trygve Helgaker,          University of Oslo,           Norway      (DALTON; ABACUS, ERI, DFT modules, London, and much more)
  Alf Christian Hennum,     University of Oslo,           Norway      (Parity violation)
  Hinne Hettema,            University of Auckland,       New Zealand (quadratic response in RESPONS; SIRIUS supersymmetry)
  Eirik Hjertenaes,         NTNU,                         Norway      (Cholesky decomposition)
  Pi A. B. Haase,           University of Copenhagen,     Denmark     (Triplet AO-SOPPA)
  Maria Francesca Iozzi,    University of Oslo,           Norway      (RPA)
  Brano Jansik              Technical Univ. of Ostrava    Czech Rep.  (DFT cubic response)
  Hans Joergen Aa. Jensen,  Univ. of Southern Denmark,    Denmark     (DALTON; SIRIUS, RESPONS, ABACUS modules, London, and much more)
  Dan Jonsson,              UiT The Arctic U. of Norway,  Norway      (cubic response in RESPONS module)
  Poul Joergensen,          Aarhus University,            Denmark     (RESPONS, ABACUS, and CC modules)
  Maciej Kaminski,          University of Warsaw,         Poland      (CPPh in RESPONS)
  Joanna Kauczor,           Linkoeping University,        Sweden      (Complex polarization propagator (CPP) module)
  Sheela Kirpekar,          Univ. of Southern Denmark,    Denmark     (Mass-velocity & Darwin integrals)
  Wim Klopper,              KIT Karlsruhe,                Germany     (R12 code in CC, SIRIUS, and ABACUS modules)
  Stefan Knecht,            ETH Zurich,                   Switzerland (Parallel CI and MCSCF)
  Rika Kobayashi,           Australian National Univ.,    Australia   (DIIS in CC, London in MCSCF)
  Henrik Koch,              NTNU,                         Norway      (CC module, Cholesky decomposition)
  Jacob Kongsted,           Univ. of Southern Denmark,    Denmark     (Polarizable embedding model, QM/MM)
  Andrea Ligabue,           University of Modena,         Italy       (CTOCD, AOSOPPA)
  Nanna H. List             Univ. of Southern Denmark,    Denmark     (Polarizable embedding model)
  Ola B. Lutnaes,           University of Oslo,           Norway      (DFT Hessian)
  Juan I. Melo,             University of Buenos Aires,   Argentina   (LRESC, Relativistic Effects on NMR Shieldings)
  Kurt V. Mikkelsen,        University of Copenhagen,     Denmark     (MC-SCRF and QM/MM)
  Rolf H. Myhre,            NTNU,                         Norway      (Cholesky, subsystems and ECC2)
  Christian Neiss,          Univ. Erlangen-Nuernberg,     Germany     (CCSD(R12))
  Christian B. Nielsen,     University of Copenhagen,     Denmark     (QM/MM)
  Patrick Norman,           Linkoeping University,        Sweden      (Cubic response and complex frequency response in RESPONS)
  Jeppe Olsen,              Aarhus University,            Denmark     (SIRIUS CI/density modules)
  Jogvan Magnus H. Olsen,   Univ. of Southern Denmark,    Denmark     (Polarizable embedding model, QM/MM)
  Anders Osted,             Copenhagen University,        Denmark     (QM/MM)
  Martin J. Packer,         University of Sheffield,      UK          (SOPPA)
  Filip Pawlowski,          Kazimierz Wielki University,  Poland      (CC3)
  Morten N. Pedersen,       Univ. of Southern Denmark,    Denmark     (Polarizable embedding model)
  Thomas B. Pedersen,       University of Oslo,           Norway      (Cholesky decomposition)
  Patricio F. Provasi,      University of Northeastern,   Argentina   (Analysis of coupling constants in localized orbitals)
  Zilvinas Rinkevicius,     KTH Stockholm,                Sweden      (open-shell DFT, ESR)
  Elias Rudberg,            KTH Stockholm,                Sweden      (DFT grid and basis info)
  Torgeir A. Ruden,         University of Oslo,           Norway      (Numerical derivatives in ABACUS)
  Kenneth Ruud,             UiT The Arctic U. of Norway,  Norway      (DALTON; ABACUS magnetic properties and much more)
  Pawel Salek,              KTH Stockholm,                Sweden      (DALTON; DFT code)
  Claire C. M. Samson       University of Karlsruhe       Germany     (Boys localization, r12 integrals in ERI)
  Alfredo Sanchez de Meras, University of Valencia,       Spain       (CC module, Cholesky decomposition)
  Trond Saue,               Paul Sabatier University,     France      (direct Fock matrix construction)
  Stephan P. A. Sauer,      University of Copenhagen,     Denmark     (SOPPA(CCSD), SOPPA prop., AOSOPPA, vibrational g-factors)
  Bernd Schimmelpfennig,    Forschungszentrum Karlsruhe,  Germany     (AMFI module)
  Kristian Sneskov,         Aarhus University,            Denmark     (Polarizable embedding model, QM/MM)
  Arnfinn H. Steindal,      UiT The Arctic U. of Norway,  Norway      (parallel QM/MM, Polarizable embedding model)
  Casper Steinmann,         Univ. of Southern Denmark,    Denmark     (QFIT, Polarizable embedding model)
  K. O. Sylvester-Hvid,     University of Copenhagen,     Denmark     (MC-SCRF)
  Peter R. Taylor,          VLSCI/Univ. of Melbourne,     Australia   (Symmetry handling ABACUS, integral transformation)
  Andrew M. Teale,          University of Nottingham,     England     (DFT-AC, DFT-D)
  David P. Tew,             University of Bristol,        England     (CCSD(R12))
  Olav Vahtras,             KTH Stockholm,                Sweden      (triplet response, spin-orbit, ESR, TDDFT, open-shell DFT)
  David J. Wilson,          La Trobe University,          Australia   (DFT Hessian and DFT magnetizabilities)
  Hans Agren,               KTH Stockholm,                Sweden      (SIRIUS module, RESPONS, MC-SCRF solvation model)
 --------------------------------------------------------------------------------

     Date and time (Linux)  : Tue Dec 18 11:36:30 2018
     Host name              : n-62-23-28                              

 * Work memory size             :  1280000000 =  9.537 gigabytes.

 * Directories for basis set searches:
   1) /zhome/37/3/129401/NH3NH4/CCSD/AIMD_SAMPLING/nh4_4h2o_nd
   2) /zhome/9a/4/124800/source/dalton/build-mlcc/basis


Compilation information
-----------------------

 Who compiled             | rfaber
 Host                     | hpclogin1
 System                   | Linux-2.6.32-696.1.1.el6.x86_64
 CMake generator          | Unix Makefiles
 Processor                | x86_64
 64-bit integers          | ON
 MPI                      | OFF
 Fortran compiler         | /opt/intel/2016update2/compilers_and_libraries_201
                          | 6.2.181/linux/bin/intel64/ifort
 Fortran compiler version | ifort (IFORT) 16.0.2 20160204
 C compiler               | /opt/intel/2016update2/compilers_and_libraries_201
                          | 6.2.181/linux/bin/intel64/icc
 C compiler version       | icc (ICC) 16.0.2 20160204
 C++ compiler             | /opt/intel/2016update2/compilers_and_libraries_201
                          | 6.2.181/linux/bin/intel64/icpc
 C++ compiler version     | icpc (ICC) 16.0.2 20160204
 Static linking           | OFF
 Last Git revision        | bb4d1599ca5680a9f3980451fc8bbefdba436d59
 Git branch               | mlcc
 Configuration time       | 2017-06-13 16:11:03.928841


   Content of the .dal input file
 ----------------------------------

**DALTON
.RUN WAVE FUNCTIONS
*QMMM
.QMMM
**INTEGRALS
.DIPLEN
**WAVE FUNCTIONS
.CC
*PRINT
!To check the origin of excit
.PRINTL
   0 11
*SCF INP
.THRESH
1.0D-7
*CC INP
.CCSD
.THRLEQ
 1.0D-9
.THRENR
 1.0D-10
.FROIMP
4
0
.PRINT
 1
.MAX IT
 1200
.MAXRED
 1200
.MXLRV
1199
*CCSLV
.CCMM
.MXSLIT
200
.MXINIT
4 5
*CCEXCI
.NCCEXC
 15
.CVSEPARA
1
1
*CCLRSD
.DIPOLE
**END OF DALTON INPUT


   Content of the .mol file
 ----------------------------

ATOMBASIS


Atomtypes=4 Charge=1 Nosymm Angstrom
   7.00000    1    Basis=6-311G**
N          0.000000        0.000000        0.000000
   1.00000    4    Basis=6-311G**
H         -0.732928        0.178333        0.714539
H         -0.419220        0.193558       -0.945419
H          0.366797       -1.026289        0.066304
H          0.668115        0.795896        0.265828
   8.00000    4    Basis=6-311G**
O          1.466784        2.480358       -0.034079
O         -1.206849       -0.458643       -2.655181
O         -2.393438        0.005657        1.625724
O          1.175281       -2.857688        1.245711
   1.00000    8    Basis=6-311G**
H          0.879719        3.220103        0.231490
H          2.337409        2.607008        0.446908
H         -0.907468       -0.408201       -3.546789
H         -2.155076       -0.732982       -2.597649
H         -2.984021        0.752807        1.663344
H         -2.886620       -0.799908        1.436676
H          0.592124       -3.229851        2.013733
H          1.651903       -2.059086        1.643340


       *******************************************************************
       *********** Output from DALTON general input processing ***********
       *******************************************************************

 --------------------------------------------------------------------------------
   Overall default print level:    0
   Print level for DALTON.STAT:    1

    HERMIT 1- and 2-electron integral sections will be executed
    "Old" integral transformation used (limited to max 255 basis functions)
    Wave function sections will be executed (SIRIUS module)
 --------------------------------------------------------------------------------


 Changes of defaults for *QMMM  :
 --------------------------------

 +------------------+
 |  WORD: | CHANGE: |
 +------------------+
 |   QMMM |       T |
 +------------------+
 


   ****************************************************************************
   *************** Output of molecule and basis set information ***************
   ****************************************************************************


    The two title cards from your ".mol" input:
    ------------------------------------------------------------------------
 1:                                                                         
 2:                                                                         
    ------------------------------------------------------------------------

  Coordinates are entered in Angstrom and converted to atomic units.
          - Conversion factor : 1 bohr = 0.52917721 A

  Atomic type no.    1
  --------------------
  Nuclear charge:   7.00000
  Number of symmetry independent centers:    1
  Number of basis sets to read;    2
  The basis set is "6-311G**" from the basis set library.
  Basis set file used for this atomic type with Z =   7 :
     "/zhome/9a/4/124800/source/dalton/build-mlcc/basis/6-311G**"

  Info about the basis set file: your basis has no documentation.
  Basis set: 6-311G**                                                                        

  Atomic type no.    2
  --------------------
  Nuclear charge:   1.00000
  Number of symmetry independent centers:    4
  Number of basis sets to read;    2
  The basis set is "6-311G**" from the basis set library.
  Basis set file used for this atomic type with Z =   1 :
     "/zhome/9a/4/124800/source/dalton/build-mlcc/basis/6-311G**"

  Info about the basis set file: your basis has no documentation.
  Basis set: 6-311G**                                                                        

  Atomic type no.    3
  --------------------
  Nuclear charge:   8.00000
  Number of symmetry independent centers:    4
  Number of basis sets to read;    2
  The basis set is "6-311G**" from the basis set library.
  Basis set file used for this atomic type with Z =   8 :
     "/zhome/9a/4/124800/source/dalton/build-mlcc/basis/6-311G**"

  Info about the basis set file: your basis has no documentation.
  Basis set: 6-311G**                                                                        

  Atomic type no.    4
  --------------------
  Nuclear charge:   1.00000
  Number of symmetry independent centers:    8
  Number of basis sets to read;    2
  The basis set is "6-311G**" from the basis set library.
  Basis set file used for this atomic type with Z =   1 :
     "/zhome/9a/4/124800/source/dalton/build-mlcc/basis/6-311G**"

  Info about the basis set file: your basis has no documentation.
  Basis set: 6-311G**                                                                        


                         SYMGRP: Point group information
                         -------------------------------

@    Point group: C1 


                                 Isotopic Masses
                                 ---------------

                           N          14.003074
                           H           1.007825
                           H           1.007825
                           H           1.007825
                           H           1.007825
                           O          15.994915
                           O          15.994915
                           O          15.994915
                           O          15.994915
                           H           1.007825
                           H           1.007825
                           H           1.007825
                           H           1.007825
                           H           1.007825
                           H           1.007825
                           H           1.007825
                           H           1.007825

                       Total mass:    90.076634 amu
                       Natural abundance:  98.500 %

 Center-of-mass coordinates (a.u.):   -0.397429   -0.289374    0.090568


  Atoms and basis sets
  --------------------

  Number of atom types :    4
  Total number of atoms:   17

  label    atoms   charge   prim   cont     basis
  ----------------------------------------------------------------------
  N           1    7.0000    31    18      [11s5p1d|4s3p1d]                                   
  H           4    1.0000     8     6      [5s1p|3s1p]                                        
  O           4    8.0000    31    18      [11s5p1d|4s3p1d]                                   
  H           8    1.0000     8     6      [5s1p|3s1p]                                        
  ----------------------------------------------------------------------
  total:     17   51.0000   251   162
  ----------------------------------------------------------------------
  Spherical harmonic basis used.

  Threshold for neglecting AO integrals:  1.00D-12


  Cartesian Coordinates (a.u.)
  ----------------------------

  Total number of coordinates:   51
  N       :     1  x   0.0000000000    2  y   0.0000000000    3  z   0.0000000000
  H       :     4  x  -1.3850331893    5  y   0.3370005290    6  z   1.3502830156
  H       :     7  x  -0.7922109861    8  y   0.3657716093    9  z  -1.7865829834
  H       :    10  x   0.6931458735   11  y  -1.9394051351   12  z   0.1252964010
  H       :    13  x   1.2625543700   14  y   1.5040254640   15  z   0.5023421164
  O       :    16  x   2.7718200445   17  y   4.6871973119   18  z  -0.0643999766
  O       :    19  x  -2.2806140842   20  y  -0.8667096591   21  z  -5.0175649023
  O       :    22  x  -4.5229423172   23  y   0.0106901807   24  z   3.0721731148
  O       :    25  x   2.2209592099   26  y  -5.4002476707   27  z   2.3540526209
  H       :    28  x   1.6624279770   29  y   6.0851127643   30  z   0.4374527007
  H       :    31  x   4.4170628521   32  y   4.9265311257   33  z   0.8445337231
  H       :    34  x  -1.7148659872   35  y  -0.7713880939   36  z  -6.7024598331
  H       :    37  x  -4.0725034185   38  y  -1.3851352346   39  z  -4.9088451789
  H       :    40  x  -5.6389824412   41  y   1.4225990550   42  z   3.1432646117
  H       :    43  x  -5.4549212269   44  y  -1.5116070452   45  z   2.7149241704
  H       :    46  x   1.1189521920   47  y  -6.1035338145   48  z   3.8054038589
  H       :    49  x   3.1216442551   50  y  -3.8911086078   51  z   3.1054625302

  Max    interatomic separation is    6.6978 Angstrom (   12.6571 Bohr)
  between atoms   16 and   10, "H     " and "H     ".

  Min HX interatomic separation is    0.9419 Angstrom (    1.7799 Bohr)

  Min YX interatomic separation is    2.8818 Angstrom (    5.4458 Bohr)


  Bond distances (Angstrom):
  --------------------------

                  atom 1     atom 2       distance
                  ------     ------       --------
  bond distance:  H          N            1.039015
  bond distance:  H          N            1.052154
  bond distance:  H          N            1.091882
  bond distance:  H          N            1.072610
  bond distance:  H          O            0.981017
  bond distance:  H          O            1.002685
  bond distance:  H          O            0.941880
  bond distance:  H          O            0.988790
  bond distance:  H          O            0.953119
  bond distance:  H          O            0.963277
  bond distance:  H          O            1.033651
  bond distance:  H          O            1.011456


  Bond angles (degrees):
  ----------------------

                  atom 1     atom 2     atom 3         angle
                  ------     ------     ------         -----
  bond angle:     H          N          H            107.777
  bond angle:     H          N          H            110.887
  bond angle:     H          N          H             98.140
  bond angle:     H          N          H            111.182
  bond angle:     H          N          H            109.534
  bond angle:     H          N          H            118.239
  bond angle:     H          O          H            107.128
  bond angle:     H          O          H            112.009
  bond angle:     H          O          H            110.247
  bond angle:     H          O          H            104.953




 Principal moments of inertia (u*A**2) and principal axes
 --------------------------------------------------------

   IA     389.798716          0.064257    0.880628   -0.469432
   IB     461.096139          0.786795    0.244654    0.566656
   IC     508.411638         -0.613861    0.405758    0.677152


 Rotational constants
 --------------------

               A                   B                   C

           1296.5128           1096.0383            994.0351 MHz
            0.043247            0.036560            0.033157 cm-1


@  Nuclear repulsion energy :  191.209457052446 Hartree


                     .---------------------------------------.
                     | Starting in Integral Section (HERMIT) |
                     `---------------------------------------'



 ***************************************************************************************
 ****************** Output from **INTEGRALS input processing (HERMIT) ******************
 ***************************************************************************************



    *************************************************************************
    ****************** Output from HERMIT input processing ******************
    *************************************************************************


 Default print level:        1

 * Nuclear model: Point charge

 Calculation of one- and two-electron Hamiltonian integrals.

 The following one-electron property integrals are calculated as requested:
          - overlap integrals
          - dipole length integrals

 Center of mass  (bohr):     -0.397428606615     -0.289373567833      0.090568286977
 Operator center (bohr):      0.000000000000      0.000000000000      0.000000000000
 Gauge origin    (bohr):      0.000000000000      0.000000000000      0.000000000000
 Dipole origin   (bohr):      0.000000000000      0.000000000000      0.000000000000
 
  *********************************** 
  QMMM electrostatic potential: 
  Multipole order                                    0
  Isotropic polarization  
  *********************************** 
 
  ---------------- 
  QMMM information 
  ---------------- 
 
  MM coordinates in au 
  -------------------- 
     1     -3.638014      3.871760     -3.348207
     2     -2.886056      2.134157     -3.565977
     3     -2.474177      5.284234     -3.550108
     4      6.408169      7.535803     -9.425183
     5      4.612784      7.784816     -9.132803
     6      7.029101      5.850607     -9.936514
     7      3.601194      3.208912     -5.213246
     8      3.654033      3.668841     -3.278166
     9      3.168356      1.452073     -5.244485
    10     -7.045404     -2.820626     -3.061570
    11     -6.791931     -3.806082     -1.369825
    12     -8.402777     -1.627323     -2.764936
    13      4.847089     10.205362     -0.899047
    14      5.374559      9.493566      0.712888
    15      5.980473      9.432472     -2.145754
    16     -8.290984     -8.354509     -6.013014
    17     -6.719876     -9.130044     -5.560062
    18     -9.292628     -9.066811     -7.327351
    19      8.609154      9.666423     -5.226737
    20      7.631704      8.673010     -6.558068
    21      8.580464     11.500085     -5.773788
    22     -5.555073     -9.692813      2.622403
    23     -5.417189    -10.616527      1.063081
    24     -6.245065    -11.101589      3.776315
    25      1.703596     -2.004381     -8.242366
    26      1.389861     -3.679801     -7.480084
    27      3.116232     -2.021669     -9.434911
    28      2.361719     11.230491      5.439584
    29      3.955977     12.064938      4.549151
    30      3.056337      9.866251      6.614962
    31     -5.460719      4.354165     -8.387576
    32     -5.617358      2.745256     -9.338605
    33     -4.886917      4.034127     -6.656177
    34    -11.178378      0.586605     -2.742473
    35    -12.258625      0.938678     -1.237540
    36    -11.526783      2.162724     -3.766281
    37      8.298653     -8.922586     -6.381679
    38      9.647464     -8.196107     -7.551028
    39      8.194718     -7.788956     -4.914323
    40     10.155609     -1.541153     -6.963452
    41     12.077631     -1.285174     -7.018371
    42      9.699622     -0.942928     -5.283427
    43     11.678063     -6.223248     -3.096055
    44     13.292077     -6.569164     -4.072326
    45     11.957669     -4.769984     -1.973615
    46      6.722769      7.531471      3.336483
    47      5.947609      7.513613      5.064732
    48      8.506646      7.306639      3.787837
    49      3.683515    -10.200621     -8.911729
    50      2.962095    -11.814479     -8.246173
    51      5.288038     -9.820396     -8.088865
    52     -5.879373      8.029499      0.682904
    53     -4.443931      7.932258     -0.577880
    54     -7.117279      9.105698     -0.279039
    55      9.494099     -0.038700      2.121199
    56      7.676147     -0.197151      2.672810
    57     10.185987      1.007024      3.564632
    58     -0.302570      8.964109     -3.283454
    59      1.329827      8.992931     -2.410157
    60      0.109060      8.684155     -5.169153
    61    -10.949699      0.899576      9.893158
    62     -9.137313      0.703396     10.456851
    63    -11.527229     -0.950682      9.463412
    64     -0.311741     -0.348483      6.282294
    65     -0.918671     -0.863049      7.919638
    66     -1.871585     -0.556358      5.282425
    67      9.956476    -10.235344      0.051639
    68     10.848043     -8.629236     -0.837268
    69      8.962020    -10.694434     -1.389841
    70     -7.284649      9.081428     -7.463642
    71     -8.349464      9.276229     -5.991248
    72     -7.602788      7.336268     -8.076298
    73     10.770897     -3.875571      9.077989
    74     11.977636     -4.903599      8.125526
    75      8.919609     -3.890224      8.433562
    76     -9.112641     -8.186889      8.698160
    77     -9.097799     -8.551294     10.462079
    78     -7.521783     -7.329216      8.382460
    79     -0.279277      8.086641      2.547413
    80      0.978502      9.245309      3.450107
    81     -1.692237      9.185575      2.080452
    82     -8.280502     -2.927205     -7.988955
    83     -9.451475     -4.281758     -8.448219
    84     -7.729847     -3.476977     -6.265294
    85      1.586998      3.657863      9.188975
    86      0.663286      2.573287      7.833045
    87      0.530786      4.146501     10.646562
    88      0.904485     -6.726231     -6.626553
    89      1.580325     -8.024607     -7.860643
    90      0.880639     -7.647576     -4.999754
    91     -1.930735     -2.486343     11.012555
    92     -2.546283     -4.256619     10.811116
    93     -0.656476     -2.646701     12.248868
    94     -2.358048      6.399249    -11.594624
    95     -3.348107      6.987886    -13.061471
    96     -3.566765      5.766484    -10.218293
    97     11.359061      8.695996      6.338512
    98     10.884231      9.032760      8.099635
    99     11.571466      6.748063      6.307670
   100     11.280435     -4.727770      2.956633
   101      9.951026     -5.828724      3.699054
   102     10.719250     -3.024510      2.563604
   103     -9.874773    -10.909285    -10.629802
   104    -11.514232    -11.896858    -11.017483
   105     -8.704878    -12.123763     -9.843228
   106      5.249740     -8.823281      9.738405
   107      4.344709     -9.148085     11.394763
   108      4.403689     -9.965497      8.531669
   109      8.848272     10.670225     11.007488
   110      7.750636      9.606330     12.326665
   111      7.882386     12.197834     10.555944
   112     -7.287358     -4.680880      1.442840
   113     -6.624896     -6.295660      2.077467
   114     -9.064020     -4.996185      2.056202
   115      4.797731     -0.377802     11.243714
   116      6.248141      0.642331     11.949882
   117      3.798452      0.746927     10.073718
   118      6.092078     -3.942719      8.202751
   119      5.554192     -5.662449      8.769253
   120      5.919766     -2.834975      9.718073
   121     -4.245018      6.924454      7.301142
   122     -2.500988      7.281226      6.640365
   123     -5.177536      8.552806      7.165159
   124      4.535902     -1.184836      4.045301
   125      5.445815     -2.070786      5.455998
   126      2.867778     -0.738943      4.784195
   127     11.480453      3.750539      5.626875
   128     13.158611      3.665887      4.716660
   129     11.863035      2.852884      7.304152
   130      8.299643      2.954592    -10.491621
   131      8.839734      1.839560     -9.082923
   132      9.775083      3.109182    -11.791179
   133      3.987339     -1.832940     -3.172656
   134      4.123626     -2.279242     -5.006400
   135      5.438178     -2.681378     -2.389604
   136     -7.468477      4.244894      3.797688
   137     -7.213434      5.387802      2.350611
   138     -6.526398      5.143455      5.160498
   139     -6.062610      0.186030    -11.234785
   140     -4.616229     -0.931310    -12.016334
   141     -6.783062     -1.026803    -10.110581
   142     -3.295645     -7.411954     10.602994
   143     -2.608225     -7.847781      8.933162
   144     -2.596818     -8.665315     11.856229
   145     -2.237991     11.557459     -9.303365
   146     -2.384995     10.151996    -10.443345
   147     -3.752968     11.707331     -8.212430
   148     11.038641     -5.573481     -9.635094
   149     10.918216     -5.312819    -11.511199
   150      9.923037     -4.226034     -8.959159
   151      1.657639      7.408046     -7.840589
   152      0.300835      6.884276     -9.068898
   153      2.043336      5.684848     -6.939373
   154      4.903452      7.473583      8.044056
   155      3.812311      5.953966      8.145801
   156      5.435826      8.366090      9.511751
   157      1.373005     -9.026462     -1.651118
   158      2.077501     -7.772718     -0.431884
   159      2.316135    -10.625739     -1.398545
   160     -1.404501     -8.465799      5.748313
   161     -0.362858    -10.004783      5.439204
   162     -2.782796     -8.369722      4.458274
   163      6.146225     -8.311361      3.437433
   164      4.932285     -7.333039      2.396619
   165      7.392824     -8.856167      2.217590
   166    -11.537001      5.677531     -5.089178
   167    -12.675506      6.935438     -5.670101
   168    -10.865201      6.624996     -3.713818
   169     -7.567448     10.918010      6.035358
   170     -9.200519     10.100170      5.835134
   171     -8.205831     12.383389      7.077998
   172     -9.208630     10.954243     -1.840533
   173     -9.042028     12.321423     -3.050213
   174    -10.761847     11.377552     -0.758589
   175     -3.785979    -10.645156     -4.319954
   176     -2.953529    -12.198420     -3.637817
   177     -2.459214     -9.393141     -3.912366
 
  MM charges 
  ---------- 
     1     -0.674440
     2      0.337220
     3      0.337220
     4     -0.674440
     5      0.337220
     6      0.337220
     7     -0.674440
     8      0.337220
     9      0.337220
    10     -0.674440
    11      0.337220
    12      0.337220
    13     -0.674440
    14      0.337220
    15      0.337220
    16     -0.674440
    17      0.337220
    18      0.337220
    19     -0.674440
    20      0.337220
    21      0.337220
    22     -0.674440
    23      0.337220
    24      0.337220
    25     -0.674440
    26      0.337220
    27      0.337220
    28     -0.674440
    29      0.337220
    30      0.337220
    31     -0.674440
    32      0.337220
    33      0.337220
    34     -0.674440
    35      0.337220
    36      0.337220
    37     -0.674440
    38      0.337220
    39      0.337220
    40     -0.674440
    41      0.337220
    42      0.337220
    43     -0.674440
    44      0.337220
    45      0.337220
    46     -0.674440
    47      0.337220
    48      0.337220
    49     -0.674440
    50      0.337220
    51      0.337220
    52     -0.674440
    53      0.337220
    54      0.337220
    55     -0.674440
    56      0.337220
    57      0.337220
    58     -0.674440
    59      0.337220
    60      0.337220
    61     -0.674440
    62      0.337220
    63      0.337220
    64     -0.674440
    65      0.337220
    66      0.337220
    67     -0.674440
    68      0.337220
    69      0.337220
    70     -0.674440
    71      0.337220
    72      0.337220
    73     -0.674440
    74      0.337220
    75      0.337220
    76     -0.674440
    77      0.337220
    78      0.337220
    79     -0.674440
    80      0.337220
    81      0.337220
    82     -0.674440
    83      0.337220
    84      0.337220
    85     -0.674440
    86      0.337220
    87      0.337220
    88     -0.674440
    89      0.337220
    90      0.337220
    91     -0.674440
    92      0.337220
    93      0.337220
    94     -0.674440
    95      0.337220
    96      0.337220
    97     -0.674440
    98      0.337220
    99      0.337220
   100     -0.674440
   101      0.337220
   102      0.337220
   103     -0.674440
   104      0.337220
   105      0.337220
   106     -0.674440
   107      0.337220
   108      0.337220
   109     -0.674440
   110      0.337220
   111      0.337220
   112     -0.674440
   113      0.337220
   114      0.337220
   115     -0.674440
   116      0.337220
   117      0.337220
   118     -0.674440
   119      0.337220
   120      0.337220
   121     -0.674440
   122      0.337220
   123      0.337220
   124     -0.674440
   125      0.337220
   126      0.337220
   127     -0.674440
   128      0.337220
   129      0.337220
   130     -0.674440
   131      0.337220
   132      0.337220
   133     -0.674440
   134      0.337220
   135      0.337220
   136     -0.674440
   137      0.337220
   138      0.337220
   139     -0.674440
   140      0.337220
   141      0.337220
   142     -0.674440
   143      0.337220
   144      0.337220
   145     -0.674440
   146      0.337220
   147      0.337220
   148     -0.674440
   149      0.337220
   150      0.337220
   151     -0.674440
   152      0.337220
   153      0.337220
   154     -0.674440
   155      0.337220
   156      0.337220
   157     -0.674440
   158      0.337220
   159      0.337220
   160     -0.674440
   161      0.337220
   162      0.337220
   163     -0.674440
   164      0.337220
   165      0.337220
   166     -0.674440
   167      0.337220
   168      0.337220
   169     -0.674440
   170      0.337220
   171      0.337220
   172     -0.674440
   173      0.337220
   174      0.337220
   175     -0.674440
   176      0.337220
   177      0.337220
 
  MM isotropic polarizabilities in au 
  ----------------------------------- 
     1      5.739350
     2      2.308390
     3      2.308390
     4      5.739350
     5      2.308390
     6      2.308390
     7      5.739350
     8      2.308390
     9      2.308390
    10      5.739350
    11      2.308390
    12      2.308390
    13      5.739350
    14      2.308390
    15      2.308390
    16      5.739350
    17      2.308390
    18      2.308390
    19      5.739350
    20      2.308390
    21      2.308390
    22      5.739350
    23      2.308390
    24      2.308390
    25      5.739350
    26      2.308390
    27      2.308390
    28      5.739350
    29      2.308390
    30      2.308390
    31      5.739350
    32      2.308390
    33      2.308390
    34      5.739350
    35      2.308390
    36      2.308390
    37      5.739350
    38      2.308390
    39      2.308390
    40      5.739350
    41      2.308390
    42      2.308390
    43      5.739350
    44      2.308390
    45      2.308390
    46      5.739350
    47      2.308390
    48      2.308390
    49      5.739350
    50      2.308390
    51      2.308390
    52      5.739350
    53      2.308390
    54      2.308390
    55      5.739350
    56      2.308390
    57      2.308390
    58      5.739350
    59      2.308390
    60      2.308390
    61      5.739350
    62      2.308390
    63      2.308390
    64      5.739350
    65      2.308390
    66      2.308390
    67      5.739350
    68      2.308390
    69      2.308390
    70      5.739350
    71      2.308390
    72      2.308390
    73      5.739350
    74      2.308390
    75      2.308390
    76      5.739350
    77      2.308390
    78      2.308390
    79      5.739350
    80      2.308390
    81      2.308390
    82      5.739350
    83      2.308390
    84      2.308390
    85      5.739350
    86      2.308390
    87      2.308390
    88      5.739350
    89      2.308390
    90      2.308390
    91      5.739350
    92      2.308390
    93      2.308390
    94      5.739350
    95      2.308390
    96      2.308390
    97      5.739350
    98      2.308390
    99      2.308390
   100      5.739350
   101      2.308390
   102      2.308390
   103      5.739350
   104      2.308390
   105      2.308390
   106      5.739350
   107      2.308390
   108      2.308390
   109      5.739350
   110      2.308390
   111      2.308390
   112      5.739350
   113      2.308390
   114      2.308390
   115      5.739350
   116      2.308390
   117      2.308390
   118      5.739350
   119      2.308390
   120      2.308390
   121      5.739350
   122      2.308390
   123      2.308390
   124      5.739350
   125      2.308390
   126      2.308390
   127      5.739350
   128      2.308390
   129      2.308390
   130      5.739350
   131      2.308390
   132      2.308390
   133      5.739350
   134      2.308390
   135      2.308390
   136      5.739350
   137      2.308390
   138      2.308390
   139      5.739350
   140      2.308390
   141      2.308390
   142      5.739350
   143      2.308390
   144      2.308390
   145      5.739350
   146      2.308390
   147      2.308390
   148      5.739350
   149      2.308390
   150      2.308390
   151      5.739350
   152      2.308390
   153      2.308390
   154      5.739350
   155      2.308390
   156      2.308390
   157      5.739350
   158      2.308390
   159      2.308390
   160      5.739350
   161      2.308390
   162      2.308390
   163      5.739350
   164      2.308390
   165      2.308390
   166      5.739350
   167      2.308390
   168      2.308390
   169      5.739350
   170      2.308390
   171      2.308390
   172      5.739350
   173      2.308390
   174      2.308390
   175      5.739350
   176      2.308390
   177      2.308390


     ************************************************************************
     ************************** Output from HERINT **************************
     ************************************************************************



                      Nuclear contribution to dipole moments
                      --------------------------------------

                 au               Debye          C m (/(10**-30)

      x    -21.26894691       -54.06026727      -180.32564137
      y    -13.51369608       -34.34838712      -114.57388671
      z      5.38516199        13.68771560        45.65730468


  Time used in OVERLAP    is       0.15 seconds
  Time used in POPOVLP    is       0.23 seconds
  Time used in DIPLEN     is       0.22 seconds
  Time used in QUADRUP    is       0.51 seconds
  Time used in KINENE     is       0.49 seconds

 Threshold for neglecting two-electron integrals:  1.00D-12
 HERMIT - Number of two-electron integrals written:    32704070 ( 37.5% )
 HERMIT - Megabytes written:                            374.478

  Time used in TWOINT     is      18.46 seconds
  Total CPU  time used in HERMIT:  20.23 seconds
  Total wall time used in HERMIT:   7.81 seconds


                        .----------------------------------.
                        | End of Integral Section (HERMIT) |
                        `----------------------------------'



                   .--------------------------------------------.
                   | Starting in Wave Function Section (SIRIUS) |
                   `--------------------------------------------'

NCCEXCI for singlet:   15
 CCSD_INPUT: core-val requested
 Requested number of core orbs per sym
                     1
 Indices of requested core orbs
                     1

 *** Output from Huckel module :

     Using EWMO model:          T
     Using EHT  model:          F
     Number of Huckel orbitals each symmetry:   37

 EWMO - Energy Weighted Maximum Overlap - is a Huckel type method,
        which normally is better than Extended Huckel Theory.
 Reference: Linderberg and Ohrn, Propagators in Quantum Chemistry (Wiley, 1973)

 Huckel EWMO eigenvalues for symmetry :  1
          -20.685021     -20.684895     -20.684514     -20.684055     -15.674762
           -1.757380      -1.612671      -1.607797      -1.580263      -1.502639
           -0.809039      -0.804454      -0.789160      -0.784973      -0.781004
           -0.764690      -0.731406      -0.690422      -0.669796      -0.649373
           -0.628464      -0.615753      -0.595729      -0.587935      -0.566062
           -0.262675      -0.247897      -0.240093      -0.233682      -0.194612
           -0.186471      -0.178464      -0.168336      -0.167121      -0.154277
           -0.153886      -0.146031

 **********************************************************************
 *SIRIUS* a direct, restricted step, second order MCSCF program       *
 **********************************************************************

 
     Date and time (Linux)  : Tue Dec 18 11:36:38 2018
     Host name              : n-62-23-28                              

 Title lines from ".mol" input file:
                                                                             
                                                                             

 Print level on unit LUPRI =   2 is   0
 Print level on unit LUW4  =   2 is  11

@    (Integral direct) CC calculation.

@    This is a combination run starting with
@              a restricted, closed shell Hartree-Fock calculation


 Initial molecular orbitals are obtained according to
 ".MOSTART EWMO  " input option

@    QM part is embedded in an environment :

@         Model: QMMM

     Wave function specification
     ============================

     For the specification of the Coupled Cluster: see later.

@    Wave function type        --- CC ---
@    Number of closed shell electrons          50
@    Number of electrons in active shells       0
@    Total charge of the molecule               1

@    Spin multiplicity and 2 M_S                1         0
@    Total number of symmetries                 1 (point group: C1 )
@    Reference state symmetry                   1 (irrep name : A  )

     Orbital specifications
     ======================
@    Abelian symmetry species          All |    1
@                                          |  A  
                                       --- |  ---
@    Occupied SCF orbitals              25 |   25
@    Secondary orbitals                137 |  137
@    Total number of orbitals          162 |  162
@    Number of basis functions         162 |  162

     Optimization information
     ========================
@    Number of configurations                 1
@    Number of orbital rotations           3425
     ------------------------------------------
@    Total number of variables             3426

     Maximum number of Fock   iterations      0
     Maximum number of DIIS   iterations     60
     Maximum number of QC-SCF iterations     60
     Threshold for SCF convergence     1.00D-07


 Changes of defaults for CC:
 ---------------------------


 -Implicit frozen core calculation
 -Excitation energies calculated
 -One-photon absorption strengths will be calculated
 -Oscillator strengths calculated
  
* Read MO coefficients from SIRIUS.RST with label "NEWORB  " and header info: 18Dec18  REORTHO 


 ***********************************************
 ***** DIIS acceleration of SCF iterations *****
 ***********************************************

 C1-DIIS algorithm; max error vectors =    8
 -----------------------------------------------------------------------------

 *** DIIS iteration number    1
 RDSUPM called. NFMAT, ISYMDM(1:NFMAT)                     1
                     1

Calculating AOSUPINT
     (Precalculated two-electron integrals are transformed to P-supermatrix elements.
      Threshold for discarding integrals :  1.00D-12 )
  CPU  time used in FORMSUP    is   7.18 seconds
  WALL time used in FORMSUP    is   9.70 seconds

 ITDIIS, energy, error norm, change in energy, scr.thr., difden:
@ DIIS iter.   1    -360.229302159        3.98175D+00   -3.60D+02  -20    F

 (DIIS_RED) Control Parameters C2DIIS =         F NEVC =    1


 (DIIS_RED) B matrix:

               Column   1
       1      15.85435728
    ==== End of matrix output ====

 DIIS C vector; C2DIIS = F, LAMBDA = -1.59D+01
    1.000000
* Read MO coefficients from SIRIUS.RST with label "NEWORB  " and header info: 18Dec18  DIIS   1
      Virial theorem: -V/T =      2.003906
@      MULPOP N       0.18; H       0.17; H       0.15; H       0.14; H       0.17; O      -0.58; O      -0.58; O      -0.58; O      -0.63; H       0.32; 
@             H       0.32; H       0.31; H       0.32; H       0.32; H       0.32; H       0.33; H       0.33; 
   1  Level shift: doubly occupied orbital energies shifted by -2.00D-01

 DIIS Fock eigenvalues in symmetry 1
      -20.84247      -20.83132      -20.80479      -20.79986      -16.49776
       -1.72258       -1.66046       -1.64450       -1.61902       -1.61367
       -1.20635       -1.19160       -1.18235       -1.04721       -1.02335
       -1.00982       -0.99531       -0.90736       -0.90670       -0.86892
       -0.86270       -0.86199       -0.86059       -0.82632       -0.82120
       -0.01980        0.03999        0.06682        0.08149        0.09172
        0.12212        0.14702        0.16103        0.16664        0.20030
        0.21323        0.22044        0.26091        0.28484        0.29807
        0.39556        0.44746        0.46388        0.47527        0.48591
        0.50552        0.51775        0.52096        0.53261        0.65868
        0.66868        0.69390        0.82551        0.85512        0.85737
        0.88543        0.92037        0.95054        0.95590        0.96951
        0.99635        1.00672        1.02529        1.03208        1.04495
        1.07863        1.09667        1.21241        1.25869        1.28707
        1.32904        1.34756        1.36631        1.37176        1.38988
        1.39618        1.42534        1.45573        1.48666        1.50898
        1.53215        1.54450        1.57736        1.59503        1.65059
        1.66264        1.71329        1.75924        1.77614        1.78351
        1.80048        1.87991        1.98554        2.01271        2.05253
        2.10684        2.11874        2.14818        2.15859        2.17978
        2.18394        2.24206        2.25470        2.26366        2.34946
        2.44268        2.47345        2.50418        2.54272        2.55092
        2.56621        2.58390        2.59500        2.63989        2.68000
        2.71352        2.72734        2.73606        2.91580        2.97576
        2.99276        3.03317        3.27874        3.32676        3.33132
        3.33653        3.35293        3.40980        3.41965        3.46091
        3.46992        3.54423        3.55006        3.56819        3.82213
        3.89753        3.92091        3.96472        4.03860        4.08634
        4.10329        4.11522        4.57259        4.62495        4.72714
        5.22167        5.23755        5.25901        5.28073        5.57876
        5.69751        5.71994        5.73268        5.87403        6.00389
        6.09144        6.12306       36.26965       51.40720       51.46665
       51.47463       51.50317
 Time used in FCKEIG, thr_jaco:   4.70D-01  4.70D-02  1.70D-04
 CPU and wall times used in FCKEIG, THR_FCKEIG:   4.70D-01  4.70D-02  3.98D-02
 -----------------------------------------------------------------------------

 *** DIIS iteration number    2
 RDSUPM called. NFMAT, ISYMDM(1:NFMAT)                     1
                     1

 ITDIIS, energy, error norm, change in energy, scr.thr., difden:
@ DIIS iter.   2    -361.127242617        1.17780D+00   -8.98D-01  -20    F

 (DIIS_RED) Control Parameters C2DIIS =         F NEVC =    2


 (DIIS_RED) B matrix:

               Column   1     Column   2
       1      15.85435728
       2       0.68470756     1.38720516
    ==== End of matrix output ====

 DIIS C vector; C2DIIS = F, LAMBDA = -1.36D+00
    0.044260    0.955740
* Read MO coefficients from SIRIUS.RST with label "NEWORB  " and header info: 18Dec18  DIIS   2
      Virial theorem: -V/T =      2.002321
@      MULPOP N      -0.53; H       0.32; H       0.33; H       0.34; H       0.34; O      -0.58; O      -0.58; O      -0.60; O      -0.59; H       0.35; 
@             H       0.30; H       0.30; H       0.32; H       0.36; H       0.30; H       0.29; H       0.33; 
   2  Level shift: doubly occupied orbital energies shifted by -1.00D-01

 DIIS Fock eigenvalues in symmetry 1
      -20.81435      -20.74993      -20.74563      -20.72451      -15.64176
       -1.54988       -1.53781       -1.50597       -1.50494       -1.37162
       -0.91249       -0.91029       -0.88475       -0.87276       -0.87039
       -0.85769       -0.84516       -0.81423       -0.77439       -0.75381
       -0.74950       -0.73716       -0.71438       -0.69275       -0.69098
        0.03956        0.08919        0.11115        0.13177        0.15262
        0.17849        0.18741        0.22777        0.23302        0.23913
        0.24175        0.28086        0.34026        0.36442        0.38661
        0.42760        0.48604        0.50261        0.52207        0.53387
        0.54953        0.55790        0.56868        0.59778        0.79654
        0.81386        0.82567        0.86607        0.90095        0.92503
        0.94296        0.96309        0.98012        0.99455        1.03045
        1.03197        1.04735        1.06987        1.07841        1.13499
        1.17838        1.19725        1.24300        1.30355        1.34430
        1.38841        1.39627        1.42664        1.43309        1.44453
        1.44871        1.48568        1.51709        1.55176        1.57672
        1.60922        1.62677        1.66529        1.70422        1.70896
        1.73793        1.78212        1.82934        1.84276        1.84468
        1.89359        1.98574        2.05103        2.08736        2.16172
        2.19662        2.20465        2.21079        2.23050        2.25524
        2.29792        2.29980        2.31918        2.33987        2.47941
        2.51884        2.55495        2.59093        2.60100        2.64280
        2.66344        2.68163        2.69347        2.73334        2.76317
        2.79241        2.89654        2.95202        3.11414        3.21764
        3.28190        3.29562        3.31036        3.34420        3.36150
        3.38908        3.40667        3.43445        3.46081        3.48205
        3.49179        3.57730        3.58947        3.60341        3.82864
        3.92192        3.96322        3.99681        4.04565        4.12862
        4.13004        4.14884        4.98366        5.03421        5.13092
        5.23463        5.24914        5.26433        5.28799        5.56106
        5.71327        5.73283        5.74982        5.86883        6.02325
        6.13394        6.15402       37.00853       51.32700       51.43158
       51.46545       51.48058
 Time used in FCKEIG, thr_jaco:   3.24D-01  3.30D-02  5.03D-05
 CPU and wall times used in FCKEIG, THR_FCKEIG:   3.25D-01  3.30D-02  1.18D-02
 -----------------------------------------------------------------------------

 *** DIIS iteration number    3
 RDSUPM called. NFMAT, ISYMDM(1:NFMAT)                     1
                     1

 ITDIIS, energy, error norm, change in energy, scr.thr., difden:
@ DIIS iter.   3    -361.207296107        3.86462D-01   -8.01D-02  -20    F

 (DIIS_RED) Control Parameters C2DIIS =         F NEVC =    3


 (DIIS_RED) B matrix:

               Column   1     Column   2     Column   3
       1      15.85435728
       2       0.68470756     1.38720516
       3       0.84929614    -0.01249315     0.14935304
    ==== End of matrix output ====

 DIIS C vector; C2DIIS = F, LAMBDA = -9.84D-02
   -0.048910    0.103559    0.945351
* Read MO coefficients from SIRIUS.RST with label "NEWORB  " and header info: 18Dec18  DIIS   3
      Virial theorem: -V/T =      2.003825
@      MULPOP N      -0.31; H       0.27; H       0.28; H       0.30; H       0.30; O      -0.65; O      -0.63; O      -0.66; O      -0.66; H       0.38; 
@             H       0.32; H       0.32; H       0.35; H       0.39; H       0.31; H       0.31; H       0.37; 
   3  Level shift: doubly occupied orbital energies shifted by -5.00D-02

 DIIS Fock eigenvalues in symmetry 1
      -20.71860      -20.67780      -20.65992      -20.65064      -15.81121
       -1.48042       -1.47560       -1.44311       -1.43926       -1.37705
       -0.85937       -0.85016       -0.84712       -0.83513       -0.82778
       -0.81698       -0.80352       -0.74241       -0.71329       -0.68735
       -0.67728       -0.67380       -0.64561       -0.62084       -0.61906
        0.04507        0.09375        0.11586        0.13640        0.15762
        0.17928        0.18936        0.23085        0.23628        0.23956
        0.24369        0.27933        0.33903        0.36521        0.38482
        0.43769        0.49649        0.51268        0.53027        0.54276
        0.55858        0.56702        0.57817        0.59644        0.78744
        0.80115        0.81747        0.87118        0.91297        0.92758
        0.94791        0.97769        0.98898        1.00623        1.04055
        1.04272        1.05742        1.08306        1.08803        1.13179
        1.18093        1.19242        1.25194        1.31080        1.35014
        1.39561        1.41117        1.44019        1.44062        1.45795
        1.46347        1.49726        1.52762        1.55954        1.58719
        1.61587        1.63294        1.67130        1.70652        1.71947
        1.74656        1.78939        1.83920        1.85281        1.85471
        1.89303        1.98568        2.06754        2.09071        2.17788
        2.19237        2.21628        2.22482        2.24327        2.25131
        2.30157        2.31392        2.33308        2.34762        2.47966
        2.53207        2.56470        2.60073        2.61093        2.65097
        2.66986        2.68684        2.70335        2.73991        2.76982
        2.80206        2.86567        2.91809        3.10613        3.17384
        3.23665        3.27457        3.31623        3.37146        3.38045
        3.40409        3.41199        3.45911        3.48074        3.50987
        3.51182        3.60195        3.60998        3.62342        3.85517
        3.94589        3.98295        4.01641        4.07417        4.15103
        4.15472        4.17018        4.89420        4.94466        5.04736
        5.26274        5.27035        5.28614        5.31519        5.59328
        5.73782        5.75480        5.77326        5.90268        6.05233
        6.15621        6.17673       36.79546       51.37282       51.46720
       51.48832       51.50483
 Time used in FCKEIG, thr_jaco:   2.84D-01  2.90D-02  1.65D-05
 CPU and wall times used in FCKEIG, THR_FCKEIG:   2.85D-01  2.90D-02  3.86D-03
 -----------------------------------------------------------------------------

 *** DIIS iteration number    4
 RDSUPM called. NFMAT, ISYMDM(1:NFMAT)                     1
                     1

 ITDIIS, energy, error norm, change in energy, scr.thr., difden:
@ DIIS iter.   4    -361.218365317        9.29553D-02   -1.11D-02  -20    F

 (DIIS_RED) Control Parameters C2DIIS =         F NEVC =    4


 (DIIS_RED) B matrix:

               Column   1     Column   2     Column   3     Column   4
       1      15.85435728
       2       0.68470756     1.38720516
       3       0.84929614    -0.01249315     0.14935304
       4       0.06560210     0.08117580     0.00717595     0.00864068
    ==== End of matrix output ====

 DIIS C vector; C2DIIS = F, LAMBDA = -4.26D-03
   -0.000087   -0.060890   -0.028411    1.089388
* Read MO coefficients from SIRIUS.RST with label "NEWORB  " and header info: 18Dec18  DIIS   4
      Virial theorem: -V/T =      2.003462
@      MULPOP N      -0.39; H       0.29; H       0.30; H       0.31; H       0.32; O      -0.66; O      -0.64; O      -0.67; O      -0.67; H       0.39; 
@             H       0.33; H       0.33; H       0.36; H       0.40; H       0.32; H       0.31; H       0.38; 
   4  Level shift: doubly occupied orbital energies shifted by -1.25D-02

 DIIS Fock eigenvalues in symmetry 1
      -20.69336      -20.64964      -20.63548      -20.62175      -15.73860
       -1.44708       -1.44209       -1.40912       -1.40638       -1.32643
       -0.81516       -0.81119       -0.80620       -0.79196       -0.78523
       -0.77669       -0.76975       -0.70672       -0.67616       -0.65118
       -0.63974       -0.63609       -0.60769       -0.58349       -0.58076
        0.04573        0.09443        0.11546        0.13621        0.15788
        0.18264        0.19060        0.23101        0.23643        0.24186
        0.24508        0.28360        0.34504        0.37019        0.39081
        0.43792        0.49580        0.51247        0.53021        0.54255
        0.55751        0.56565        0.57696        0.60157        0.79461
        0.80860        0.82391        0.87373        0.91422        0.93086
        0.95059        0.97738        0.98970        1.00702        1.04022
        1.04254        1.05708        1.08142        1.08685        1.13477
        1.18258        1.19866        1.25265        1.31318        1.35295
        1.39707        1.40963        1.43797        1.44162        1.45564
        1.46107        1.49666        1.52702        1.56045        1.58771
        1.61794        1.63499        1.67415        1.71167        1.71891
        1.74745        1.79131        1.83853        1.85227        1.85389
        1.89778        1.99146        2.06561        2.09643        2.17485
        2.19959        2.21377        2.22271        2.24134        2.25804
        2.30674        2.31048        2.33023        2.34743        2.48555
        2.53127        2.56681        2.60055        2.61076        2.65227
        2.67389        2.69033        2.70213        2.74048        2.77155
        2.80312        2.87598        2.93024        3.11502        3.18721
        3.25161        3.28653        3.31403        3.36870        3.37869
        3.40401        3.41105        3.45562        3.47813        3.50723
        3.50977        3.59872        3.60733        3.62150        3.85228
        3.94213        3.97991        4.01398        4.07149        4.14841
        4.15132        4.16820        4.91370        4.96450        5.06650
        5.25795        5.26581        5.28213        5.30905        5.58810
        5.73280        5.75095        5.76828        5.89650        6.04539
        6.15090        6.17203       36.83016       51.36087       51.45460
       51.47917       51.49652
 Time used in FCKEIG, thr_jaco:   2.66D-01  2.70D-02  3.97D-06
 CPU and wall times used in FCKEIG, THR_FCKEIG:   2.66D-01  2.70D-02  9.30D-04
 -----------------------------------------------------------------------------

 *** DIIS iteration number    5
 RDSUPM called. NFMAT, ISYMDM(1:NFMAT)                     1
                     1

 ITDIIS, energy, error norm, change in energy, scr.thr., difden:
@ DIIS iter.   5    -361.219415725        2.73165D-02   -1.05D-03  -20    F

 (DIIS_RED) Control Parameters C2DIIS =         F NEVC =    5


 (DIIS_RED) B matrix:

               Column   1     Column   2     Column   3     Column   4     Column   5
       1      15.85435728
       2       0.68470756     1.38720516
       3       0.84929614    -0.01249315     0.14935304
       4       0.06560210     0.08117580     0.00717595     0.00864068
       5       0.02072602     0.00663354     0.00548765     0.00098102     0.00074619
    ==== End of matrix output ====

 DIIS C vector; C2DIIS = F, LAMBDA = -5.28D-04
    0.001187   -0.008631   -0.043174    0.056071    0.994548
* Read MO coefficients from SIRIUS.RST with label "NEWORB  " and header info: 18Dec18  DIIS   5
      Virial theorem: -V/T =      2.003203
@      MULPOP N      -0.38; H       0.29; H       0.29; H       0.31; H       0.32; O      -0.67; O      -0.65; O      -0.69; O      -0.68; H       0.40; 
@             H       0.33; H       0.34; H       0.36; H       0.40; H       0.33; H       0.32; H       0.39; 

 DIIS Fock eigenvalues in symmetry 1
      -20.67380      -20.63150      -20.61519      -20.60427      -15.72412
       -1.43196       -1.42766       -1.39496       -1.39116       -1.31290
       -0.80151       -0.79749       -0.79228       -0.77826       -0.77174
       -0.76303       -0.75544       -0.69219       -0.66200       -0.63654
       -0.62555       -0.62062       -0.59259       -0.56765       -0.56577
        0.04618        0.09484        0.11569        0.13643        0.15827
        0.18325        0.19102        0.23117        0.23659        0.24239
        0.24553        0.28435        0.34582        0.37095        0.39163
        0.43863        0.49634        0.51307        0.53062        0.54302
        0.55780        0.56602        0.57738        0.60233        0.79579
        0.80961        0.82505        0.87536        0.91595        0.93240
        0.95210        0.97884        0.99088        1.00847        1.04115
        1.04383        1.05813        1.08281        1.08769        1.13563
        1.18383        1.19972        1.25408        1.31441        1.35442
        1.39800        1.41018        1.43820        1.44248        1.45578
        1.46150        1.49730        1.52754        1.56095        1.58826
        1.61865        1.63554        1.67485        1.71240        1.71918
        1.74781        1.79185        1.83869        1.85244        1.85399
        1.89853        1.99226        2.06646        2.09731        2.17566
        2.20048        2.21448        2.22332        2.24166        2.25894
        2.30755        2.31134        2.33067        2.34798        2.48637
        2.53154        2.56731        2.60086        2.61108        2.65277
        2.67438        2.69084        2.70207        2.74055        2.77177
        2.80340        2.87677        2.93120        3.11608        3.18839
        3.25272        3.28784        3.31679        3.37139        3.38049
        3.40654        3.41320        3.45838        3.48003        3.50989
        3.51143        3.60136        3.60926        3.62314        3.85494
        3.94484        3.98176        4.01556        4.07433        4.15050
        4.15426        4.16999        4.91502        4.96582        5.06789
        5.26199        5.26921        5.28540        5.31366        5.59211
        5.73641        5.75380        5.77177        5.90027        6.04936
        6.15363        6.17442       36.83210       51.36785       51.46222
       51.48479       51.50142
 Time used in FCKEIG, thr_jaco:   2.53D-01  2.50D-02  1.17D-06
 CPU and wall times used in FCKEIG, THR_FCKEIG:   2.53D-01  2.50D-02  2.73D-04
 -----------------------------------------------------------------------------

 *** DIIS iteration number    6
 RDSUPM called. NFMAT, ISYMDM(1:NFMAT)                     1
                     1

 ITDIIS, energy, error norm, change in energy, scr.thr., difden:
@ DIIS iter.   6    -361.219494626        1.03569D-02   -7.89D-05  -20    F

 (DIIS_RED) Control Parameters C2DIIS =         F NEVC =    6


 (DIIS_RED) B matrix:

               Column   1     Column   2     Column   3     Column   4     Column   5     Column   6
       1      15.85435728
       2       0.68470756     1.38720516
       3       0.84929614    -0.01249315     0.14935304
       4       0.06560210     0.08117580     0.00717595     0.00864068
       5       0.02072602     0.00663354     0.00548765     0.00098102     0.00074619
       6      -0.00534718    -0.00024466     0.00064191     0.00047456     0.00001662     0.00010727
    ==== End of matrix output ====

 DIIS C vector; C2DIIS = F, LAMBDA = -3.43D-05
    0.000780    0.006333   -0.008025   -0.126836    0.172448    0.955299
* Read MO coefficients from SIRIUS.RST with label "NEWORB  " and header info: 18Dec18  DIIS   6
      Virial theorem: -V/T =      2.003428
@      MULPOP N      -0.37; H       0.28; H       0.29; H       0.31; H       0.32; O      -0.67; O      -0.65; O      -0.69; O      -0.69; H       0.40; 
@             H       0.33; H       0.34; H       0.36; H       0.40; H       0.33; H       0.32; H       0.39; 

 DIIS Fock eigenvalues in symmetry 1
      -20.67616      -20.63346      -20.61802      -20.60609      -15.72574
       -1.43259       -1.42824       -1.39554       -1.39201       -1.31332
       -0.80219       -0.79797       -0.79284       -0.77872       -0.77236
       -0.76350       -0.75627       -0.69303       -0.66269       -0.63750
       -0.62623       -0.62103       -0.59298       -0.56825       -0.56609
        0.04607        0.09471        0.11554        0.13626        0.15812
        0.18316        0.19093        0.23100        0.23642        0.24225
        0.24535        0.28418        0.34572        0.37083        0.39148
        0.43843        0.49609        0.51279        0.53037        0.54275
        0.55750        0.56575        0.57707        0.60221        0.79546
        0.80932        0.82477        0.87504        0.91551        0.93216
        0.95184        0.97844        0.99046        1.00814        1.04071
        1.04331        1.05772        1.08230        1.08724        1.13531
        1.18347        1.19948        1.25373        1.31408        1.35400
        1.39769        1.40986        1.43782        1.44218        1.45537
        1.46107        1.49691        1.52721        1.56062        1.58800
        1.61838        1.63529        1.67464        1.71222        1.71886
        1.74757        1.79163        1.83837        1.85217        1.85367
        1.89836        1.99211        2.06601        2.09721        2.17503
        2.20022        2.21400        2.22281        2.24112        2.25878
        2.30730        2.31074        2.33021        2.34759        2.48617
        2.53124        2.56708        2.60049        2.61078        2.65246
        2.67423        2.69063        2.70173        2.74022        2.77153
        2.80315        2.87636        2.93079        3.11593        3.18787
        3.25216        3.28724        3.31603        3.37058        3.37980
        3.40566        3.41248        3.45732        3.47928        3.50912
        3.51069        3.60039        3.60854        3.62245        3.85413
        3.94378        3.98098        4.01480        4.07350        4.14970
        4.15317        4.16923        4.91423        4.96502        5.06709
        5.26080        5.26814        5.28434        5.31211        5.59085
        5.73508        5.75269        5.77049        5.89898        6.04779
        6.15251        6.17335       36.83051       51.36552       51.45945
       51.48282       51.49963
 Time used in FCKEIG, thr_jaco:   2.50D-01  2.50D-02  4.42D-07
 CPU and wall times used in FCKEIG, THR_FCKEIG:   2.50D-01  2.50D-02  1.04D-04
 -----------------------------------------------------------------------------

 *** DIIS iteration number    7
 RDSUPM called. NFMAT, ISYMDM(1:NFMAT)                     1
                     1

 ITDIIS, energy, error norm, change in energy, scr.thr., difden:
@ DIIS iter.   7    -361.219504904        2.31654D-03   -1.03D-05  -20    F

 (DIIS_RED) Control Parameters C2DIIS =         F NEVC =    7


 (DIIS_RED) B matrix:

               Column   1     Column   2     Column   3     Column   4     Column   5     Column   6
       1      15.85435728
       2       0.68470756     1.38720516
       3       0.84929614    -0.01249315     0.14935304
       4       0.06560210     0.08117580     0.00717595     0.00864068
       5       0.02072602     0.00663354     0.00548765     0.00098102     0.00074619
       6      -0.00534718    -0.00024466     0.00064191     0.00047456     0.00001662     0.00010727
       7       0.00032765     0.00026911    -0.00002760     0.00001178     0.00004348    -0.00000194

               Column   7
       7       0.00000537
    ==== End of matrix output ====

 DIIS C vector; C2DIIS = F, LAMBDA = -1.18D-06
   -0.000235   -0.000808    0.005199    0.022130   -0.119018   -0.091713    1.184445
* Read MO coefficients from SIRIUS.RST with label "NEWORB  " and header info: 18Dec18  DIIS   7
      Virial theorem: -V/T =      2.003362
@      MULPOP N      -0.37; H       0.28; H       0.29; H       0.31; H       0.32; O      -0.67; O      -0.65; O      -0.69; O      -0.69; H       0.40; 
@             H       0.33; H       0.34; H       0.36; H       0.41; H       0.33; H       0.32; H       0.39; 

 DIIS Fock eigenvalues in symmetry 1
      -20.67573      -20.63327      -20.61760      -20.60591      -15.72534
       -1.43238       -1.42813       -1.39543       -1.39183       -1.31314
       -0.80213       -0.79783       -0.79271       -0.77858       -0.77229
       -0.76337       -0.75616       -0.69296       -0.66265       -0.63743
       -0.62618       -0.62079       -0.59284       -0.56803       -0.56594
        0.04612        0.09476        0.11557        0.13630        0.15817
        0.18323        0.19098        0.23103        0.23644        0.24231
        0.24540        0.28425        0.34581        0.37092        0.39158
        0.43851        0.49615        0.51285        0.53042        0.54280
        0.55753        0.56578        0.57710        0.60230        0.79560
        0.80945        0.82489        0.87517        0.91562        0.93228
        0.95195        0.97856        0.99056        1.00824        1.04078
        1.04342        1.05778        1.08238        1.08729        1.13540
        1.18359        1.19960        1.25386        1.31420        1.35414
        1.39777        1.40989        1.43784        1.44226        1.45537
        1.46108        1.49696        1.52725        1.56067        1.58805
        1.61845        1.63535        1.67470        1.71231        1.71888
        1.74761        1.79169        1.83839        1.85220        1.85369
        1.89845        1.99221        2.06607        2.09730        2.17508
        2.20034        2.21405        2.22285        2.24114        2.25889
        2.30739        2.31079        2.33024        2.34764        2.48625
        2.53126        2.56713        2.60052        2.61082        2.65250
        2.67430        2.69068        2.70174        2.74024        2.77158
        2.80318        2.87651        2.93096        3.11605        3.18806
        3.25236        3.28743        3.31623        3.37077        3.37989
        3.40583        3.41261        3.45750        3.47938        3.50932
        3.51079        3.60056        3.60864        3.62254        3.85432
        3.94395        3.98108        4.01489        4.07372        4.14982
        4.15336        4.16934        4.91448        4.96528        5.06734
        5.26106        5.26828        5.28451        5.31238        5.59112
        5.73527        5.75283        5.77066        5.89924        6.04802
        6.15264        6.17347       36.83089       51.36594       51.45986
       51.48301       51.49980
 Time used in FCKEIG, thr_jaco:   2.49D-01  2.50D-02  9.90D-08
 CPU and wall times used in FCKEIG, THR_FCKEIG:   2.49D-01  2.50D-02  2.32D-05
 -----------------------------------------------------------------------------

 *** DIIS iteration number    8
 RDSUPM called. NFMAT, ISYMDM(1:NFMAT)                     1
                     1

 ITDIIS, energy, error norm, change in energy, scr.thr., difden:
@ DIIS iter.   8    -361.219505445        3.70012D-04   -5.42D-07  -20    F

 (DIIS_RED) Control Parameters C2DIIS =         F NEVC =    8


 (DIIS_RED) B matrix:

               Column   1     Column   2     Column   3     Column   4     Column   5     Column   6
       1      15.85435728
       2       0.68470756     1.38720516
       3       0.84929614    -0.01249315     0.14935304
       4       0.06560210     0.08117580     0.00717595     0.00864068
       5       0.02072602     0.00663354     0.00548765     0.00098102     0.00074619
       6      -0.00534718    -0.00024466     0.00064191     0.00047456     0.00001662     0.00010727
       7       0.00032765     0.00026911    -0.00002760     0.00001178     0.00004348    -0.00000194
       8       0.00009339    -0.00004256     0.00000897     0.00000124     0.00000048     0.00000155

               Column   7     Column   8
       7       0.00000537
       8       0.00000031     0.00000014
    ==== End of matrix output ====

 DIIS C vector; C2DIIS = F, LAMBDA = -8.25D-08
    0.000002   -0.000001   -0.000551   -0.000093    0.014047   -0.017745   -0.174719    1.179059
* Read MO coefficients from SIRIUS.RST with label "NEWORB  " and header info: 18Dec18  DIIS   8
      Virial theorem: -V/T =      2.003380
@      MULPOP N      -0.37; H       0.28; H       0.29; H       0.31; H       0.32; O      -0.67; O      -0.65; O      -0.69; O      -0.69; H       0.40; 
@             H       0.33; H       0.34; H       0.36; H       0.41; H       0.33; H       0.32; H       0.39; 

 DIIS Fock eigenvalues in symmetry 1
      -20.67581      -20.63319      -20.61764      -20.60587      -15.72538
       -1.43240       -1.42809       -1.39542       -1.39184       -1.31314
       -0.80210       -0.79784       -0.79272       -0.77859       -0.77228
       -0.76337       -0.75616       -0.69301       -0.66264       -0.63745
       -0.62619       -0.62081       -0.59282       -0.56803       -0.56592
        0.04612        0.09476        0.11557        0.13630        0.15816
        0.18322        0.19098        0.23103        0.23644        0.24230
        0.24540        0.28424        0.34581        0.37092        0.39158
        0.43850        0.49614        0.51285        0.53042        0.54280
        0.55753        0.56579        0.57710        0.60230        0.79558
        0.80944        0.82489        0.87515        0.91561        0.93229
        0.95195        0.97855        0.99056        1.00824        1.04079
        1.04341        1.05779        1.08238        1.08730        1.13539
        1.18358        1.19959        1.25385        1.31420        1.35413
        1.39777        1.40988        1.43784        1.44225        1.45537
        1.46107        1.49695        1.52725        1.56067        1.58804
        1.61844        1.63535        1.67470        1.71230        1.71888
        1.74760        1.79168        1.83838        1.85220        1.85369
        1.89844        1.99220        2.06605        2.09730        2.17507
        2.20033        2.21405        2.22285        2.24114        2.25888
        2.30738        2.31078        2.33025        2.34765        2.48625
        2.53126        2.56713        2.60052        2.61081        2.65249
        2.67429        2.69068        2.70174        2.74023        2.77157
        2.80318        2.87650        2.93094        3.11604        3.18805
        3.25234        3.28742        3.31620        3.37074        3.37990
        3.40582        3.41262        3.45748        3.47941        3.50929
        3.51080        3.60055        3.60867        3.62255        3.85429
        3.94393        3.98111        4.01490        4.07369        4.14985
        4.15335        4.16935        4.91446        4.96526        5.06732
        5.26103        5.26833        5.28452        5.31235        5.59107
        5.73527        5.75284        5.77068        5.89919        6.04800
        6.15268        6.17349       36.83086       51.36586       51.45982
       51.48309       51.49985
 Time used in FCKEIG, thr_jaco:   2.49D-01  2.50D-02  1.58D-08
 CPU and wall times used in FCKEIG, THR_FCKEIG:   2.49D-01  2.50D-02  3.70D-06
 -----------------------------------------------------------------------------

 *** DIIS iteration number    9
 RDSUPM called. NFMAT, ISYMDM(1:NFMAT)                     1
                     1

 ITDIIS, energy, error norm, change in energy, scr.thr., difden:
@ DIIS iter.   9    -361.219505463        1.38047D-04   -1.76D-08  -20    F

 (DIIS_RED) Control Parameters C2DIIS =         F NEVC =    8


 (DIIS_RED) B matrix:

               Column   1     Column   2     Column   3     Column   4     Column   5     Column   6
       1       0.00000002
[...]

 Principal values of diagonalized transition strength matrix:

             a.u.               
 1      -0.00000000
 2       0.00000000
 3       0.00002837

 Principal axis of diagonalized transition strength matrix:


               Column   1     Column   2     Column   3
       1       0.89926007    -0.21295559     0.38207493
       2       0.25104214     0.96657174    -0.05212412
       3      -0.35820270     0.14279005     0.92266019
    ==== End of matrix output ====


 CCSD   oscillator strength matrix for state nr. 13 of symmetry 1
 CCSD  excitation energy:15.21796559


               Column   1     Column   2     Column   3
       1     4.199803D-05  -5.734310D-06   1.014520D-04
       2    -5.734310D-06   7.809626D-07  -1.383857D-05
       3     1.014520D-04  -1.383857D-05   2.449802D-04
    ==== End of matrix output ====

 Principal values of diagonalized oscillator strength matrix:

             a.u.               
 1      -0.00000001
 2       0.00000000
 3       0.00028777

 Principal axis of diagonalized oscillator strength matrix:


               Column   1     Column   2     Column   3
       1       0.89926007    -0.21295559     0.38207493
       2       0.25104214     0.96657174    -0.05212412
       3      -0.35820270     0.14279005     0.92266019
    ==== End of matrix output ====


 CCSD  Transition strength matrix for state nr. 14 of symmetry 1
 CCSD  excitation energy:15.23004278

 Gauge: length

               Column   1     Column   2     Column   3
       1     3.880067D-05   3.981606D-05   5.327433D-05
       2     3.981606D-05   4.085664D-05   5.466833D-05
       3     5.327433D-05   5.466833D-05   7.314702D-05
    ==== End of matrix output ====

 Principal values of diagonalized transition strength matrix:

             a.u.               
 1      -0.00000000
 2      -0.00000000
 3       0.00015281

 Principal axis of diagonalized transition strength matrix:


               Column   1     Column   2     Column   3
       1      -0.36809231     0.78139930     0.50390792
       2       0.85318989     0.06845046     0.51708950
       3      -0.36956064    -0.62026581     0.69187807
    ==== End of matrix output ====


 CCSD   oscillator strength matrix for state nr. 14 of symmetry 1
 CCSD  excitation energy:15.23004278


               Column   1     Column   2     Column   3
       1     3.939572D-04   4.042668D-04   5.409135D-04
       2     4.042668D-04   4.148322D-04   5.550673D-04
       3     5.409135D-04   5.550673D-04   7.426881D-04
    ==== End of matrix output ====

 Principal values of diagonalized oscillator strength matrix:

             a.u.               
 1      -0.00000001
 2       0.00000000
 3       0.00155149

 Principal axis of diagonalized oscillator strength matrix:


               Column   1     Column   2     Column   3
       1      -0.36809231     0.78139930     0.50390792
       2       0.85318989     0.06845046     0.51708950
       3      -0.36956064    -0.62026581     0.69187807
    ==== End of matrix output ====


 CCSD  Transition strength matrix for state nr. 15 of symmetry 1
 CCSD  excitation energy:15.23495079

 Gauge: length

               Column   1     Column   2     Column   3
       1     1.775058D-04  -7.253714D-05  -3.792427D-05
       2    -7.253714D-05   2.964206D-05   1.549763D-05
       3    -3.792427D-05   1.549763D-05   8.102546D-06
    ==== End of matrix output ====

 Principal values of diagonalized transition strength matrix:

             a.u.               
 1      -0.00000000
 2      -0.00000000
 3       0.00021525

 Principal axis of diagonalized transition strength matrix:


               Column   1     Column   2     Column   3
       1       0.06537192     0.41361653     0.90810125
       2      -0.33201102     0.86721337    -0.37109252
       3       0.94100754     0.27724059    -0.19401665
    ==== End of matrix output ====


 CCSD   oscillator strength matrix for state nr. 15 of symmetry 1
 CCSD  excitation energy:15.23495079


               Column   1     Column   2     Column   3
       1       0.00180286    -0.00073673    -0.00038518
       2      -0.00073673     0.00030106     0.00015740
       3      -0.00038518     0.00015740     0.00008229
    ==== End of matrix output ====

 Principal values of diagonalized oscillator strength matrix:

             a.u.               
 1      -0.00000000
 2      -0.00000000
 3       0.00218622

 Principal axis of diagonalized oscillator strength matrix:


               Column   1     Column   2     Column   3
       1       0.06537192     0.41361653     0.90810125
       2      -0.33201102     0.86721337    -0.37109252
       3       0.94100754     0.27724059    -0.19401665
    ==== End of matrix output ====

  Total time for    135 linear response residues:     142.94 seconds.
  

 *******************************************************************************
 *******************************************************************************
 *                                                                             *
 *                                                                             *
 *                   SUMMARY OF COUPLED CLUSTER CALCULATION                    *
 *                                                                             *
 *                                                                             *
 *******************************************************************************
 *******************************************************************************

                                                                                
                                                                                
            Total SCF   energy:                  -361.2195054643                
            Total MP2   energy:                  -362.3217999369                
            Total CCSD  energy:                  -362.3637392629                
                                                                                
                                                                                
            Total SCF   energy:                  -361.2195054643                
            Total RSTAR energy:                  -362.3637392629                
            Total CCSD  energy:                  -362.3638722845                
                                                                                
                                                                                
            Total SCF   energy:                  -361.2195054643                
            Total RSTAR energy:                  -362.3638722845                
            Total CCSD  energy:                  -362.3638730786                
                                                                                
                                                                                
            Total SCF   energy:                  -361.2195054643                
            Total RSTAR energy:                  -362.3638730786                
            Total CCSD  energy:                  -362.3638731750                
                                                                                
                                                                                
            Total SCF   energy:                  -361.2195054643                
            Total RSTAR energy:                  -362.3638731750                
            Total CCSD  energy:                  -362.3638731793                
                                                                                
                                                                                
            Total SCF   energy:                  -361.2195054643                
            Total RSTAR energy:                  -362.3638731793                
            Total CCSD  energy:                  -362.3638731794                
            CCSD Total  energy:                  -362.8002467775                
            CCSD E(QM/MM)     :                    -0.4325429075                
                                                                                
                                                                                
                                                                                
 +=============================================================================+
 |  sym. | Exci.  |        CCSD       Excitation energies            | ||T1||  |
 |(spin, |        +------------------------------------------------------------+
 | spat) |        |     Hartree    |       eV.      |     cm-1       |    %    |
 +=============================================================================+
 | ^1A   |    1   |    14.9138788  |     405.82728  |   3273218.012  |  88.27  |
 | ^1A   |    2   |    14.9740757  |     407.46533  |   3286429.707  |  88.71  |
 | ^1A   |    3   |    15.0026601  |     408.24315  |   3292703.259  |  88.82  |
 | ^1A   |    4   |    15.0080733  |     408.39045  |   3293891.326  |  88.69  |
 | ^1A   |    5   |    15.0546254  |     409.65720  |   3304108.334  |  87.78  |
 | ^1A   |    6   |    15.0798419  |     410.34337  |   3309642.721  |  87.81  |
 | ^1A   |    7   |    15.1210014  |     411.46338  |   3318676.180  |  87.80  |
 | ^1A   |    8   |    15.1327862  |     411.78406  |   3321262.649  |  87.78  |
 | ^1A   |    9   |    15.1365426  |     411.88628  |   3322087.079  |  87.76  |
 | ^1A   |   10   |    15.1617066  |     412.57102  |   3327609.935  |  87.87  |
 | ^1A   |   11   |    15.1784334  |     413.02618  |   3331281.047  |  88.07  |
 | ^1A   |   12   |    15.2098474  |     413.88100  |   3338175.630  |  87.85  |
 | ^1A   |   13   |    15.2179656  |     414.10191  |   3339957.357  |  87.64  |
 | ^1A   |   14   |    15.2300428  |     414.43055  |   3342607.995  |  87.71  |
 | ^1A   |   15   |    15.2349508  |     414.56410  |   3343685.177  |  87.78  |
 +=============================================================================+
                                                                                
                                                                                
     Total energies in Hartree:                                                 
             1 ^1A       -347.4538251163                                        
             2 ^1A       -347.3936282034                                        
             3 ^1A       -347.3650437942                                        
             4 ^1A       -347.3596305618                                        
             5 ^1A       -347.3130784518                                        
             6 ^1A       -347.2878619279                                        
             7 ^1A       -347.2467024608                                        
             8 ^1A       -347.2349176394                                        
             9 ^1A       -347.2311612581                                        
            10 ^1A       -347.2059972765                                        
            11 ^1A       -347.1892704579                                        
            12 ^1A       -347.1578564248                                        
            13 ^1A       -347.1497382790                                        
            14 ^1A       -347.1376610862                                        
            15 ^1A       -347.1327530843                                        
                                                                                
                                                                                
 +=============================================================================+
 |  sym. | Exci.  |        CCSD       Length   Gauge Oscillator Strength       |
 |(spin, |        +------------------------------------------------------------+
 | spat) |        | Dipole Strength(a.u.) | Oscillator strength  | Direction   |
 +=============================================================================+
 | ^1A   |    1   |        0.0008036      |      0.0079899       |  (Y,Z)      |
 | ^1A   |    2   |        0.0036348      |      0.0362848       |  (Y,Z)      |
 | ^1A   |    3   |        0.0042529      |      0.0425365       |  (Y,Z)      |
 | ^1A   |    4   |        0.0039625      |      0.0396467       |  (Y,Z)      |
 | ^1A   |    5   |        0.0001481      |      0.0014861       |  (Y,Z)      |
 | ^1A   |    6   |        0.0001145      |      0.0011507       |  (Y,Z)      |
 | ^1A   |    7   |        0.0001023      |      0.0010309       |  (Y,Z)      |
 | ^1A   |    8   |        0.0000937      |      0.0009450       |  (Y,Z)      |
 | ^1A   |    9   |        0.0003624      |      0.0036567       |  (Y,Z)      |
 | ^1A   |   10   |        0.0002000      |      0.0020217       |  (Y,Z)      |
 | ^1A   |   11   |        0.0006754      |      0.0068343       |  (Y,Z)      |
 | ^1A   |   12   |        0.0002693      |      0.0027311       |  (Y,Z)      |
 | ^1A   |   13   |        0.0000284      |      0.0002878       |  (Y,Z)      |
 | ^1A   |   14   |        0.0001528      |      0.0015515       |  (Y,Z)      |
 | ^1A   |   15   |        0.0002153      |      0.0021862       |  (Y,Z)      |
 +=============================================================================+

  1 a.u. =        27.21138 eV.  
  1 a.u. =    219474.62934 cm-1.
  

 *******************************************************************************
 *******************************************************************************
 *                                                                             *
 *                                                                             *
 *                      END OF COUPLED CLUSTER CALCULATION                     *
 *                                                                             *
 *                                                                             *
 *******************************************************************************
 *******************************************************************************


 CPU and wall time for CC :  513948.402   58717.796

 
     Date and time (Linux)  : Wed Dec 19 03:57:52 2018
     Host name              : n-62-23-28                              


                      .-------------------------------------.
                      | End of Coupled Cluster Section (CC) |
                      `-------------------------------------'

  Total CPU  time used in DALTON: 143 hours  0 minutes 51 seconds
  Total wall time used in DALTON:  16 hours 21 minutes 21 seconds

 
     Date and time (Linux)  : Wed Dec 19 03:57:52 2018
     Host name              : n-62-23-28                              
  

 +---------------------------------------------------------+ 
 | List of selected calculated molecular properties (a.u.) | 
 +---------------------------------------------------------+ 

  Properties are read from unit number                      4

 CCSD       properties :
 #  1 1 CCSD/MM  Ground state Energy =    -362.8002467775
 #  2 1 E_QM/MM  Ground state Energy =      -0.4325429075
 #  3 1 Sy: 1 Sp: 1 Exc:  1 E_tot:   -347.4538251163 w:     14.9138787537 E_grs:   -362.3677038700
 #  4 1 Exctot   Excited state Energy =    -347.4538251163
 #  5 1 Sy: 1 Sp: 1 Exc:  2 E_tot:   -347.3936282034 w:     14.9740756666 E_grs:   -362.3677038700
 #  6 1 Exctot   Excited state Energy =    -347.3936282034
 #  7 1 Sy: 1 Sp: 1 Exc:  3 E_tot:   -347.3650437942 w:     15.0026600758 E_grs:   -362.3677038700
 #  8 1 Exctot   Excited state Energy =    -347.3650437942
 #  9 1 Sy: 1 Sp: 1 Exc:  4 E_tot:   -347.3596305618 w:     15.0080733082 E_grs:   -362.3677038700
 # 10 1 Exctot   Excited state Energy =    -347.3596305618
 # 11 1 Sy: 1 Sp: 1 Exc:  5 E_tot:   -347.3130784518 w:     15.0546254182 E_grs:   -362.3677038700
 # 12 1 Exctot   Excited state Energy =    -347.3130784518
 # 13 1 Sy: 1 Sp: 1 Exc:  6 E_tot:   -347.2878619279 w:     15.0798419421 E_grs:   -362.3677038700
 # 14 1 Exctot   Excited state Energy =    -347.2878619279
 # 15 1 Sy: 1 Sp: 1 Exc:  7 E_tot:   -347.2467024608 w:     15.1210014092 E_grs:   -362.3677038700
 # 16 1 Exctot   Excited state Energy =    -347.2467024608
 # 17 1 Sy: 1 Sp: 1 Exc:  8 E_tot:   -347.2349176394 w:     15.1327862306 E_grs:   -362.3677038700
 # 18 1 Exctot   Excited state Energy =    -347.2349176394
 # 19 1 Sy: 1 Sp: 1 Exc:  9 E_tot:   -347.2311612581 w:     15.1365426119 E_grs:   -362.3677038700
 # 20 1 Exctot   Excited state Energy =    -347.2311612581
 # 21 1 Sy: 1 Sp: 1 Exc: 10 E_tot:   -347.2059972765 w:     15.1617065935 E_grs:   -362.3677038700
 # 22 1 Exctot   Excited state Energy =    -347.2059972765
 # 23 1 Sy: 1 Sp: 1 Exc: 11 E_tot:   -347.1892704579 w:     15.1784334121 E_grs:   -362.3677038700
 # 24 1 Exctot   Excited state Energy =    -347.1892704579
 # 25 1 Sy: 1 Sp: 1 Exc: 12 E_tot:   -347.1578564248 w:     15.2098474452 E_grs:   -362.3677038700
 # 26 1 Exctot   Excited state Energy =    -347.1578564248
 # 27 1 Sy: 1 Sp: 1 Exc: 13 E_tot:   -347.1497382790 w:     15.2179655910 E_grs:   -362.3677038700
 # 28 1 Exctot   Excited state Energy =    -347.1497382790
 # 29 1 Sy: 1 Sp: 1 Exc: 14 E_tot:   -347.1376610862 w:     15.2300427838 E_grs:   -362.3677038700
 # 30 1 Exctot   Excited state Energy =    -347.1376610862
 # 31 1 Sy: 1 Sp: 1 Exc: 15 E_tot:   -347.1327530843 w:     15.2349507857 E_grs:   -362.3677038700
 # 32 1 Exctot   Excited state Energy =    -347.1327530843
 # 33 1 |<O|XDIPLEN |i(14.913879)>| =     0.01115585
 # 35 1 |<O|XDIPLEN |i(14.974076)>| =     0.02711975
 # 37 1 |<O|XDIPLEN |i(15.002660)>| =     0.03536989
 # 39 1 |<O|XDIPLEN |i(15.008073)>| =     0.04434116
 # 41 1 |<O|XDIPLEN |i(15.054625)>| =     0.00197773
 # 43 1 |<O|XDIPLEN |i(15.079842)>| =     0.00509092
 # 45 1 |<O|XDIPLEN |i(15.121001)>| =     0.00762323
 # 47 1 |<O|XDIPLEN |i(15.132786)>| =     0.00258305
 # 49 1 |<O|XDIPLEN |i(15.136543)>| =     0.00292872
 # 51 1 |<O|XDIPLEN |i(15.161707)>| =     0.00157059
 # 53 1 |<O|XDIPLEN |i(15.178433)>| =     0.02071199
 # 55 1 |<O|XDIPLEN |i(15.209847)>| =     0.01447636
 # 57 1 |<O|XDIPLEN |i(15.217966)>| =     0.00203461
 # 59 1 |<O|XDIPLEN |i(15.230043)>| =     0.00622902
 # 61 1 |<O|XDIPLEN |i(15.234951)>| =     0.01332313
 # 63 1 |<O|YDIPLEN |i(14.913879)>| =     0.02582214
 # 65 1 |<O|YDIPLEN |i(14.974076)>| =     0.05202890
 # 67 1 |<O|YDIPLEN |i(15.002660)>| =     0.02923063
 # 69 1 |<O|YDIPLEN |i(15.008073)>| =     0.01115397
 # 71 1 |<O|YDIPLEN |i(15.054625)>| =     0.00933316
 # 73 1 |<O|YDIPLEN |i(15.079842)>| =     0.00351118
 # 75 1 |<O|YDIPLEN |i(15.121001)>| =     0.00464311
 # 77 1 |<O|YDIPLEN |i(15.132786)>| =     0.00240059
 # 79 1 |<O|YDIPLEN |i(15.136543)>| =     0.01555153
 # 81 1 |<O|YDIPLEN |i(15.161707)>| =     0.00324729
 # 83 1 |<O|YDIPLEN |i(15.178433)>| =     0.01521235
 # 85 1 |<O|YDIPLEN |i(15.209847)>| =     0.00752600
 # 87 1 |<O|YDIPLEN |i(15.217966)>| =     0.00027745
 # 89 1 |<O|YDIPLEN |i(15.230043)>| =     0.00639192
 # 91 1 |<O|YDIPLEN |i(15.234951)>| =     0.00544445
 # 93 1 |<O|ZDIPLEN |i(14.913879)>| =     0.00351625
 # 95 1 |<O|ZDIPLEN |i(14.974076)>| =     0.01386648
 # 97 1 |<O|ZDIPLEN |i(15.002660)>| =     0.04634043
 # 99 1 |<O|ZDIPLEN |i(15.008073)>| =     0.04326644
 #101 1 |<O|ZDIPLEN |i(15.054625)>| =     0.00755309
 #103 1 |<O|ZDIPLEN |i(15.079842)>| =     0.00872989
 #105 1 |<O|ZDIPLEN |i(15.121001)>| =     0.00475300
 #107 1 |<O|ZDIPLEN |i(15.132786)>| =     0.00901320
 #109 1 |<O|ZDIPLEN |i(15.136543)>| =     0.01058013
 #111 1 |<O|ZDIPLEN |i(15.161707)>| =     0.01367491
 #113 1 |<O|ZDIPLEN |i(15.178433)>| =     0.00387194
 #115 1 |<O|ZDIPLEN |i(15.209847)>| =     0.00177035
 #117 1 |<O|ZDIPLEN |i(15.217966)>| =     0.00491397
 #119 1 |<O|ZDIPLEN |i(15.230043)>| =     0.00855260
 #121 1 |<O|ZDIPLEN |i(15.234951)>| =     0.00284650

 THE_END   
