

     ************************************************************************
     *************** Dalton - An Electronic Structure Program ***************
     ************************************************************************

    This is output from DALTON release Dalton2017.alpha (2016)
         ( Web site: http://daltonprogram.org )

   ----------------------------------------------------------------------------

    NOTE:
     
    Dalton is an experimental code for the evaluation of molecular
    properties using (MC)SCF, DFT, CI, and CC wave functions.
    The authors accept no responsibility for the performance of
    the code or for the correctness of the results.
     
    The code (in whole or part) is provided under a licence and
    is not to be reproduced for further distribution without
    the written permission of the authors or their representatives.
     
    See the home page "http://daltonprogram.org" for further information.
     
    If results obtained with this code are published,
    the appropriate citations would be both of:
     
       K. Aidas, C. Angeli, K. L. Bak, V. Bakken, R. Bast,
       L. Boman, O. Christiansen, R. Cimiraglia, S. Coriani,
       P. Dahle, E. K. Dalskov, U. Ekstroem,
       T. Enevoldsen, J. J. Eriksen, P. Ettenhuber, B. Fernandez,
       L. Ferrighi, H. Fliegl, L. Frediani, K. Hald, A. Halkier,
       C. Haettig, H. Heiberg, T. Helgaker, A. C. Hennum,
       H. Hettema, E. Hjertenaes, S. Hoest, I.-M. Hoeyvik,
       M. F. Iozzi, B. Jansik, H. J. Aa. Jensen, D. Jonsson,
       P. Joergensen, J. Kauczor, S. Kirpekar,
       T. Kjaergaard, W. Klopper, S. Knecht, R. Kobayashi, H. Koch,
       J. Kongsted, A. Krapp, K. Kristensen, A. Ligabue,
       O. B. Lutnaes, J. I. Melo, K. V. Mikkelsen, R. H. Myhre,
       C. Neiss, C. B. Nielsen, P. Norman, J. Olsen,
       J. M. H. Olsen, A. Osted, M. J. Packer, F. Pawlowski,
       T. B. Pedersen, P. F. Provasi, S. Reine, Z. Rinkevicius,
       T. A. Ruden, K. Ruud, V. Rybkin, P. Salek, C. C. M. Samson,
       A. Sanchez de Meras, T. Saue, S. P. A. Sauer,
       B. Schimmelpfennig, K. Sneskov, A. H. Steindal,
       K. O. Sylvester-Hvid, P. R. Taylor, A. M. Teale,
       E. I. Tellgren, D. P. Tew, A. J. Thorvaldsen, L. Thoegersen,
       O. Vahtras, M. A. Watson, D. J. D. Wilson, M. Ziolkowski
       and H. Agren,
       "The Dalton quantum chemistry program system",
       WIREs Comput. Mol. Sci. 2014, 4:269–284 (doi: 10.1002/wcms.1172)
     
    and
     
       Dalton, a Molecular Electronic Structure Program,
       Release Dalton2017.alpha (2016), see http://daltonprogram.org
   ----------------------------------------------------------------------------

    Authors in alphabetical order (major contribution(s) in parenthesis):

  Kestutis Aidas,           Vilnius University,           Lithuania   (QM/MM)
  Celestino Angeli,         University of Ferrara,        Italy       (NEVPT2)
  Keld L. Bak,              UNI-C,                        Denmark     (AOSOPPA, non-adiabatic coupling, magnetic properties)
  Vebjoern Bakken,          University of Oslo,           Norway      (DALTON; geometry optimizer, symmetry detection)
  Radovan Bast,             UiT The Arctic U. of Norway,  Norway      (DALTON installation and execution frameworks)
  Pablo Baudin,             University of Valencia,       Spain       (Cholesky excitation energies)
  Linus Boman,              NTNU,                         Norway      (Cholesky decomposition and subsystems)
  Ove Christiansen,         Aarhus University,            Denmark     (CC module)
  Renzo Cimiraglia,         University of Ferrara,        Italy       (NEVPT2)
  Sonia Coriani,            University of Trieste,        Italy       (CC module, MCD in RESPONS)
  Janusz Cukras,            University of Trieste,        Italy       (MChD in RESPONS)
  Paal Dahle,               University of Oslo,           Norway      (Parallelization)
  Erik K. Dalskov,          UNI-C,                        Denmark     (SOPPA)
  Thomas Enevoldsen,        Univ. of Southern Denmark,    Denmark     (SOPPA)
  Janus J. Eriksen,         Aarhus University,            Denmark     (Polarizable embedding model, TDA)
  Rasmus Faber,             University of Copenhagen,     Denmark     (Vib.avg. NMR with SOPPA, parallel AO-SOPPA)
  Berta Fernandez,          U. of Santiago de Compostela, Spain       (doublet spin, ESR in RESPONS)
  Lara Ferrighi,            Aarhus University,            Denmark     (PCM Cubic response)
  Heike Fliegl,             University of Oslo,           Norway      (CCSD(R12))
  Luca Frediani,            UiT The Arctic U. of Norway,  Norway      (PCM)
  Bin Gao,                  UiT The Arctic U. of Norway,  Norway      (Gen1Int library)
  Christof Haettig,         Ruhr-University Bochum,       Germany     (CC module)
  Kasper Hald,              Aarhus University,            Denmark     (CC module)
  Asger Halkier,            Aarhus University,            Denmark     (CC module)
  Frederik Beyer Hansen,    University of Copenhagen,     Denmark     (Parallel AO-SOPPA)
  Erik D. Hedegaard,        Univ. of Southern Denmark,    Denmark     (Polarizable embedding model, QM/MM)
  Hanne Heiberg,            University of Oslo,           Norway      (geometry analysis, selected one-electron integrals)
  Trygve Helgaker,          University of Oslo,           Norway      (DALTON; ABACUS, ERI, DFT modules, London, and much more)
  Alf Christian Hennum,     University of Oslo,           Norway      (Parity violation)
  Hinne Hettema,            University of Auckland,       New Zealand (quadratic response in RESPONS; SIRIUS supersymmetry)
  Eirik Hjertenaes,         NTNU,                         Norway      (Cholesky decomposition)
  Pi A. B. Haase,           University of Copenhagen,     Denmark     (Triplet AO-SOPPA)
  Maria Francesca Iozzi,    University of Oslo,           Norway      (RPA)
  Brano Jansik              Technical Univ. of Ostrava    Czech Rep.  (DFT cubic response)
  Hans Joergen Aa. Jensen,  Univ. of Southern Denmark,    Denmark     (DALTON; SIRIUS, RESPONS, ABACUS modules, London, and much more)
  Dan Jonsson,              UiT The Arctic U. of Norway,  Norway      (cubic response in RESPONS module)
  Poul Joergensen,          Aarhus University,            Denmark     (RESPONS, ABACUS, and CC modules)
  Maciej Kaminski,          University of Warsaw,         Poland      (CPPh in RESPONS)
  Joanna Kauczor,           Linkoeping University,        Sweden      (Complex polarization propagator (CPP) module)
  Sheela Kirpekar,          Univ. of Southern Denmark,    Denmark     (Mass-velocity & Darwin integrals)
  Wim Klopper,              KIT Karlsruhe,                Germany     (R12 code in CC, SIRIUS, and ABACUS modules)
  Stefan Knecht,            ETH Zurich,                   Switzerland (Parallel CI and MCSCF)
  Rika Kobayashi,           Australian National Univ.,    Australia   (DIIS in CC, London in MCSCF)
  Henrik Koch,              NTNU,                         Norway      (CC module, Cholesky decomposition)
  Jacob Kongsted,           Univ. of Southern Denmark,    Denmark     (Polarizable embedding model, QM/MM)
  Andrea Ligabue,           University of Modena,         Italy       (CTOCD, AOSOPPA)
  Nanna H. List             Univ. of Southern Denmark,    Denmark     (Polarizable embedding model)
  Ola B. Lutnaes,           University of Oslo,           Norway      (DFT Hessian)
  Juan I. Melo,             University of Buenos Aires,   Argentina   (LRESC, Relativistic Effects on NMR Shieldings)
  Kurt V. Mikkelsen,        University of Copenhagen,     Denmark     (MC-SCRF and QM/MM)
  Rolf H. Myhre,            NTNU,                         Norway      (Cholesky, subsystems and ECC2)
  Christian Neiss,          Univ. Erlangen-Nuernberg,     Germany     (CCSD(R12))
  Christian B. Nielsen,     University of Copenhagen,     Denmark     (QM/MM)
  Patrick Norman,           Linkoeping University,        Sweden      (Cubic response and complex frequency response in RESPONS)
  Jeppe Olsen,              Aarhus University,            Denmark     (SIRIUS CI/density modules)
  Jogvan Magnus H. Olsen,   Univ. of Southern Denmark,    Denmark     (Polarizable embedding model, QM/MM)
  Anders Osted,             Copenhagen University,        Denmark     (QM/MM)
  Martin J. Packer,         University of Sheffield,      UK          (SOPPA)
  Filip Pawlowski,          Kazimierz Wielki University,  Poland      (CC3)
  Morten N. Pedersen,       Univ. of Southern Denmark,    Denmark     (Polarizable embedding model)
  Thomas B. Pedersen,       University of Oslo,           Norway      (Cholesky decomposition)
  Patricio F. Provasi,      University of Northeastern,   Argentina   (Analysis of coupling constants in localized orbitals)
  Zilvinas Rinkevicius,     KTH Stockholm,                Sweden      (open-shell DFT, ESR)
  Elias Rudberg,            KTH Stockholm,                Sweden      (DFT grid and basis info)
  Torgeir A. Ruden,         University of Oslo,           Norway      (Numerical derivatives in ABACUS)
  Kenneth Ruud,             UiT The Arctic U. of Norway,  Norway      (DALTON; ABACUS magnetic properties and much more)
  Pawel Salek,              KTH Stockholm,                Sweden      (DALTON; DFT code)
  Claire C. M. Samson       University of Karlsruhe       Germany     (Boys localization, r12 integrals in ERI)
  Alfredo Sanchez de Meras, University of Valencia,       Spain       (CC module, Cholesky decomposition)
  Trond Saue,               Paul Sabatier University,     France      (direct Fock matrix construction)
  Stephan P. A. Sauer,      University of Copenhagen,     Denmark     (SOPPA(CCSD), SOPPA prop., AOSOPPA, vibrational g-factors)
  Bernd Schimmelpfennig,    Forschungszentrum Karlsruhe,  Germany     (AMFI module)
  Kristian Sneskov,         Aarhus University,            Denmark     (Polarizable embedding model, QM/MM)
  Arnfinn H. Steindal,      UiT The Arctic U. of Norway,  Norway      (parallel QM/MM, Polarizable embedding model)
  Casper Steinmann,         Univ. of Southern Denmark,    Denmark     (QFIT, Polarizable embedding model)
  K. O. Sylvester-Hvid,     University of Copenhagen,     Denmark     (MC-SCRF)
  Peter R. Taylor,          VLSCI/Univ. of Melbourne,     Australia   (Symmetry handling ABACUS, integral transformation)
  Andrew M. Teale,          University of Nottingham,     England     (DFT-AC, DFT-D)
  David P. Tew,             University of Bristol,        England     (CCSD(R12))
  Olav Vahtras,             KTH Stockholm,                Sweden      (triplet response, spin-orbit, ESR, TDDFT, open-shell DFT)
  David J. Wilson,          La Trobe University,          Australia   (DFT Hessian and DFT magnetizabilities)
  Hans Agren,               KTH Stockholm,                Sweden      (SIRIUS module, RESPONS, MC-SCRF solvation model)
 --------------------------------------------------------------------------------

     Date and time (Linux)  : Sun Dec  9 19:28:46 2018
     Host name              : n-62-23-15                              

 * Work memory size             :  1280000000 =  9.537 gigabytes.

 * Directories for basis set searches:
   1) /zhome/37/3/129401/NH3NH4/CCSD/AIMD_SAMPLING/nh4_4h2o_nd
   2) /zhome/9a/4/124800/source/dalton/build-mlcc/basis


Compilation information
-----------------------

 Who compiled             | rfaber
 Host                     | hpclogin1
 System                   | Linux-2.6.32-696.1.1.el6.x86_64
 CMake generator          | Unix Makefiles
 Processor                | x86_64
 64-bit integers          | ON
 MPI                      | OFF
 Fortran compiler         | /opt/intel/2016update2/compilers_and_libraries_201
                          | 6.2.181/linux/bin/intel64/ifort
 Fortran compiler version | ifort (IFORT) 16.0.2 20160204
 C compiler               | /opt/intel/2016update2/compilers_and_libraries_201
                          | 6.2.181/linux/bin/intel64/icc
 C compiler version       | icc (ICC) 16.0.2 20160204
 C++ compiler             | /opt/intel/2016update2/compilers_and_libraries_201
                          | 6.2.181/linux/bin/intel64/icpc
 C++ compiler version     | icpc (ICC) 16.0.2 20160204
 Static linking           | OFF
 Last Git revision        | bb4d1599ca5680a9f3980451fc8bbefdba436d59
 Git branch               | mlcc
 Configuration time       | 2017-06-13 16:11:03.928841


   Content of the .dal input file
 ----------------------------------

**DALTON
.RUN WAVE FUNCTIONS
*QMMM
.QMMM
**INTEGRALS
.DIPLEN
**WAVE FUNCTIONS
.CC
*PRINT
!To check the origin of excit
.PRINTL
   0 11
*SCF INP
.THRESH
1.0D-7
*CC INP
.CCSD
.THRLEQ
 1.0D-9
.THRENR
 1.0D-10
.FROIMP
4
0
.PRINT
 1
.MAX IT
 1200
.MAXRED
 1200
.MXLRV
1199
*CCSLV
.CCMM
.MXSLIT
200
.MXINIT
4 5
*CCEXCI
.NCCEXC
 15
.CVSEPARA
1
1
*CCLRSD
.DIPOLE
**END OF DALTON INPUT


   Content of the .mol file
 ----------------------------

ATOMBASIS


Atomtypes=4 Charge=1 Nosymm Angstrom
   7.00000    1    Basis=6-311G**
N          0.000000        0.000000        0.000000
   1.00000    4    Basis=6-311G**
H         -0.238110        0.855182       -0.543629
H          0.820524       -0.414315       -0.450041
H         -0.756247       -0.646587        0.055056
H          0.404423        0.271957        0.912832
   8.00000    4    Basis=6-311G**
O          0.264198        2.674983       -0.903199
O         -2.265516       -1.122613       -0.554538
O          2.199868        0.128548        2.462588
O          2.502848       -0.830863       -1.010617
   1.00000    8    Basis=6-311G**
H         -0.045497        2.691824       -1.851425
H          1.177448        2.450977       -1.015650
H         -2.564536       -2.147092       -0.490463
H         -2.878122       -0.606471        0.005155
H          2.534471        0.852104        1.875526
H          2.470846        0.506890        3.337222
H          2.668648       -1.756029       -0.638056
H          3.397362       -0.354215       -0.799847


       *******************************************************************
       *********** Output from DALTON general input processing ***********
       *******************************************************************

 --------------------------------------------------------------------------------
   Overall default print level:    0
   Print level for DALTON.STAT:    1

    HERMIT 1- and 2-electron integral sections will be executed
    "Old" integral transformation used (limited to max 255 basis functions)
    Wave function sections will be executed (SIRIUS module)
 --------------------------------------------------------------------------------


 Changes of defaults for *QMMM  :
 --------------------------------

 +------------------+
 |  WORD: | CHANGE: |
 +------------------+
 |   QMMM |       T |
 +------------------+
 


   ****************************************************************************
   *************** Output of molecule and basis set information ***************
   ****************************************************************************


    The two title cards from your ".mol" input:
    ------------------------------------------------------------------------
 1:                                                                         
 2:                                                                         
    ------------------------------------------------------------------------

  Coordinates are entered in Angstrom and converted to atomic units.
          - Conversion factor : 1 bohr = 0.52917721 A

  Atomic type no.    1
  --------------------
  Nuclear charge:   7.00000
  Number of symmetry independent centers:    1
  Number of basis sets to read;    2
  The basis set is "6-311G**" from the basis set library.
  Basis set file used for this atomic type with Z =   7 :
     "/zhome/9a/4/124800/source/dalton/build-mlcc/basis/6-311G**"

  Info about the basis set file: your basis has no documentation.
  Basis set: 6-311G**                                                                        

  Atomic type no.    2
  --------------------
  Nuclear charge:   1.00000
  Number of symmetry independent centers:    4
  Number of basis sets to read;    2
  The basis set is "6-311G**" from the basis set library.
  Basis set file used for this atomic type with Z =   1 :
     "/zhome/9a/4/124800/source/dalton/build-mlcc/basis/6-311G**"

  Info about the basis set file: your basis has no documentation.
  Basis set: 6-311G**                                                                        

  Atomic type no.    3
  --------------------
  Nuclear charge:   8.00000
  Number of symmetry independent centers:    4
  Number of basis sets to read;    2
  The basis set is "6-311G**" from the basis set library.
  Basis set file used for this atomic type with Z =   8 :
     "/zhome/9a/4/124800/source/dalton/build-mlcc/basis/6-311G**"

  Info about the basis set file: your basis has no documentation.
  Basis set: 6-311G**                                                                        

  Atomic type no.    4
  --------------------
  Nuclear charge:   1.00000
  Number of symmetry independent centers:    8
  Number of basis sets to read;    2
  The basis set is "6-311G**" from the basis set library.
  Basis set file used for this atomic type with Z =   1 :
     "/zhome/9a/4/124800/source/dalton/build-mlcc/basis/6-311G**"

  Info about the basis set file: your basis has no documentation.
  Basis set: 6-311G**                                                                        


                         SYMGRP: Point group information
                         -------------------------------

@    Point group: C1 


                                 Isotopic Masses
                                 ---------------

                           N          14.003074
                           H           1.007825
                           H           1.007825
                           H           1.007825
                           H           1.007825
                           O          15.994915
                           O          15.994915
                           O          15.994915
                           O          15.994915
                           H           1.007825
                           H           1.007825
                           H           1.007825
                           H           1.007825
                           H           1.007825
                           H           1.007825
                           H           1.007825
                           H           1.007825

                       Total mass:    90.076634 amu
                       Natural abundance:  98.500 %

 Center-of-mass coordinates (a.u.):    1.054295    0.321276    0.006452


  Atoms and basis sets
  --------------------

  Number of atom types :    4
  Total number of atoms:   17

  label    atoms   charge   prim   cont     basis
  ----------------------------------------------------------------------
  N           1    7.0000    31    18      [11s5p1d|4s3p1d]                                   
  H           4    1.0000     8     6      [5s1p|3s1p]                                        
  O           4    8.0000    31    18      [11s5p1d|4s3p1d]                                   
  H           8    1.0000     8     6      [5s1p|3s1p]                                        
  ----------------------------------------------------------------------
  total:     17   51.0000   251   162
  ----------------------------------------------------------------------
  Spherical harmonic basis used.

  Threshold for neglecting AO integrals:  1.00D-12


  Cartesian Coordinates (a.u.)
  ----------------------------

  Total number of coordinates:   51
  N       :     1  x   0.0000000000    2  y   0.0000000000    3  z   0.0000000000
  H       :     4  x  -0.4499626876    5  y   1.6160597670    6  z  -1.0273099236
  H       :     7  x   1.5505656390    8  y  -0.7829418795    9  z  -0.8504542350
  H       :    10  x  -1.4290997128   11  y  -1.2218723460   12  z   0.1040407615
  H       :    13  x   0.7642487086   14  y   0.5139242478   15  z   1.7250024781
  O       :    16  x   0.4992618628   17  y   5.0549852590   18  z  -1.7067987464
  O       :    19  x  -4.2812047718   20  y  -2.1214311144   21  z  -1.0479249459
  O       :    22  x   4.1571480311   23  y   0.2429205139   24  z   4.6536168787
  O       :    25  x   4.7296972525   26  y  -1.5701035174   27  z  -1.9097893473
  H       :    28  x  -0.0859768695   29  y   5.0868101367   30  z  -3.4986861910
  H       :    31  x   2.2250542464   32  y   4.6316752687   33  z  -1.9193003388
  H       :    34  x  -4.8462706777   35  y  -4.0574158452   36  z  -0.9268407444
  H       :    37  x  -5.4388623343   38  y  -1.1460640928   39  z   0.0097415382
  H       :    40  x   4.7894560617   41  y   1.6102431900   42  z   3.5442304803
  H       :    43  x   4.6692222370   44  y   0.9578832755   45  z   6.3064355983
  H       :    46  x   5.0430138440   47  y  -3.3184138775   48  z  -1.2057510924
  H       :    49  x   6.4200837275   50  y  -0.6693693394   51  z  -1.5114917719

  Max    interatomic separation is    6.8593 Angstrom (   12.9622 Bohr)
  between atoms   15 and   12, "H     " and "H     ".

  Min HX interatomic separation is    0.9470 Angstrom (    1.7896 Bohr)

  Min YX interatomic separation is    2.5885 Angstrom (    4.8916 Bohr)


  Bond distances (Angstrom):
  --------------------------

                  atom 1     atom 2       distance
                  ------     ------       --------
  bond distance:  H          N            1.040944
  bond distance:  H          N            1.023452
  bond distance:  H          N            0.996502
  bond distance:  H          N            1.034785
  bond distance:  H          O            0.997661
  bond distance:  H          O            0.947021
  bond distance:  H          O            1.069147
  bond distance:  H          O            0.977213
  bond distance:  H          O            0.990017
  bond distance:  H          O            0.990735
  bond distance:  H          O            1.011051
  bond distance:  H          O            1.035265


  Bond angles (degrees):
  ----------------------

                  atom 1     atom 2     atom 3         angle
                  ------     ------     ------         -----
  bond angle:     H          N          H            106.638
  bond angle:     H          N          H            112.850
  bond angle:     H          N          H            109.523
  bond angle:     H          N          H            111.719
  bond angle:     H          N          H            100.426
  bond angle:     H          N          H            114.733
  bond angle:     H          O          H            100.981
  bond angle:     H          O          H            107.245
  bond angle:     H          O          H             98.740
  bond angle:     H          O          H            101.805




 Principal moments of inertia (u*A**2) and principal axes
 --------------------------------------------------------

   IA     287.298009          0.913353    0.105949    0.393142
   IB     429.201078          0.051970    0.927320   -0.370643
   IC     488.679006         -0.403838    0.358960    0.841465


 Rotational constants
 --------------------

               A                   B                   C

           1759.0759           1177.4877           1034.1738 MHz
            0.058676            0.039277            0.034496 cm-1


@  Nuclear repulsion energy :  200.841834813446 Hartree


                     .---------------------------------------.
                     | Starting in Integral Section (HERMIT) |
                     `---------------------------------------'



 ***************************************************************************************
 ****************** Output from **INTEGRALS input processing (HERMIT) ******************
 ***************************************************************************************



    *************************************************************************
    ****************** Output from HERMIT input processing ******************
    *************************************************************************


 Default print level:        1

 * Nuclear model: Point charge

 Calculation of one- and two-electron Hamiltonian integrals.

 The following one-electron property integrals are calculated as requested:
          - overlap integrals
          - dipole length integrals

 Center of mass  (bohr):      1.054294852062      0.321276313726      0.006452274209
 Operator center (bohr):      0.000000000000      0.000000000000      0.000000000000
 Gauge origin    (bohr):      0.000000000000      0.000000000000      0.000000000000
 Dipole origin   (bohr):      0.000000000000      0.000000000000      0.000000000000
 
  *********************************** 
  QMMM electrostatic potential: 
  Multipole order                                    0
  Isotropic polarization  
  *********************************** 
 
  ---------------- 
  QMMM information 
  ---------------- 
 
  MM coordinates in au 
  -------------------- 
     1     -9.646595      5.036148     -9.060445
     2    -10.864221      5.970233    -10.210714
     3     -8.117842      4.859930    -10.079100
     4      6.004571      5.313135     -2.908937
     5      7.230854      6.760920     -3.026818
     6      7.158515      3.863685     -3.122478
     7      8.412486      9.942433     -4.458518
     8      9.108181     11.189327     -3.238244
     9     10.071071      9.089288     -4.826311
    10     11.154517     -6.342405     -9.803020
    11     12.132828     -6.208495    -11.328640
    12     11.953608     -5.642265     -8.347315
    13      6.211008      4.857891      2.664028
    14      7.981714      4.920420      3.240451
    15      6.181009      4.771651      0.869064
    16    -10.036351      7.929191     -4.451588
    17    -10.130839      6.234936     -3.524759
    18     -9.846728      7.053442     -6.115645
    19     -1.064065     -7.158987      6.435646
    20     -1.877743     -8.626039      5.656861
    21     -1.436789     -7.373260      8.253738
    22      8.115858     -1.847871    -10.042462
    23      6.765849     -1.472783     -8.915726
    24      8.690627     -3.585818    -10.012155
    25     10.834193    -10.914438      5.167324
    26     12.506657    -10.301946      4.635829
    27     11.049340    -12.358697      6.319745
    28      1.446670      7.524419    -11.226823
    29      2.360478      8.704555    -12.397951
    30      2.271071      5.866018    -11.013823
    31     -6.860688      1.628551      1.683595
    32     -8.113002      0.805783      2.749500
    33     -5.723875      2.413422      3.005897
    34      8.588510    -10.738960     -9.236229
    35      9.979557     -9.432613     -9.283166
    36      8.110289    -10.691322     -7.445570
    37      3.202812     -1.661328     -6.879576
    38      3.022874     -3.352089     -7.175464
    39      3.784220     -1.501637     -5.056983
    40    -10.049324      3.174840     -1.904198
    41     -8.953273      2.649309     -3.334601
    42     -9.007183      2.853558     -0.306032
    43    -10.809139     -2.356366     -3.605490
    44    -11.915719     -3.814682     -3.808392
    45    -11.204383     -1.289655     -5.054743
    46     10.921120      5.728918      4.039790
    47     11.908920      6.872796      2.966337
    48     10.996161      6.507219      5.795988
    49      9.333783      7.896823    -11.166524
    50      8.262300      6.693164    -10.256398
    51      9.216929      9.481455    -10.160201
    52     -0.570121      8.465812      2.088595
    53      1.111212      8.799578      2.883291
    54      0.045229      7.162160      0.871608
    55    -11.197510      0.640778      4.438027
    56    -12.107806     -0.334364      5.807780
    57    -11.818695      2.439650      4.651899
    58      2.786530    -11.353378     -5.318952
    59      4.488175    -11.995365     -5.273137
    60      1.730868    -12.545011     -6.280563
    61     -7.463182     -4.034811      5.040468
    62     -8.960019     -3.591404      3.989711
    63     -6.099745     -2.900845      4.474879
    64     -2.168022     -2.232099      5.467443
    65     -0.623670     -1.373487      5.363927
    66     -1.523973     -4.135949      5.835293
    67      0.463295      4.016227      8.023900
    68      2.259156      4.078821      7.530704
    69      0.277705      5.562373      9.040703
    70     -8.005919     -7.626012     -5.996976
    71     -6.879059     -8.548751     -7.292799
    72     -7.573786     -5.824818     -6.254432
    73     -1.648799     10.016023     -7.201967
    74     -2.759061      9.281142     -5.858276
    75     -1.255680      8.888627     -8.634884
    76     11.645235     -4.410288      1.648251
    77      9.937376     -4.111840      2.440069
    78     11.800994     -3.093750      0.319768
    79     -2.609952     -5.927470    -11.130812
    80     -3.702820     -7.474577    -11.196242
    81     -1.270510     -6.296976     -9.668787
    82      7.439546    -11.589252      1.216330
    83      8.760251    -10.871627      2.338400
    84      6.291373    -10.224116      0.886176
    85     -5.949561      0.983451     -4.773951
    86     -6.565003     -0.218362     -6.134350
    87     -5.306735     -0.193049     -3.405203
    88      4.760313     -8.752764     10.801272
    89      4.076495    -10.260680     10.021739
    90      6.105235     -9.413773     12.123169
    91      1.332567      1.763702     -9.963044
    92      0.274076      1.020747    -11.250609
    93      1.981576      0.303923     -8.985262
    94      5.882687      2.833376      9.089953
    95      5.134713      2.356422     10.688608
    96      7.689534      2.644470      9.186989
    97     -2.683460      3.452747      4.244499
    98     -1.602357      3.583072      5.762767
    99     -2.446833      5.203707      3.575923
   100     -8.126871     -9.244257      3.339768
   101     -7.152457     -8.893450      1.774179
   102     -8.082772     -7.648128      4.286847
   103     -5.247766    -10.491185     -9.522821
   104     -5.773402    -11.921883    -10.549064
   105     -3.924419    -11.185075     -8.422774
   106      8.602491     -6.691649      7.914604
   107      9.295383     -8.207417      7.039787
   108      6.937056     -7.206123      8.642623
   109     -5.727817      9.261790      9.703175
   110     -4.974640      7.609627     10.084952
   111     -5.091799      9.880887      8.059831
   112     -5.448262     -7.689294     -1.405384
   113     -3.757541     -8.270165     -1.497164
   114     -6.124903     -7.885529     -3.152059
   115     10.579241      0.771103      9.983425
   116     12.257295     -0.101452     10.254601
   117      9.371817     -0.282348     10.850329
   118      6.898808     -4.543452      3.838419
   119      7.633600     -5.447973      5.376201
   120      6.048741     -3.124006      4.648178
   121      4.641114     10.011204      9.191823
   122      4.574443      9.592790      7.341565
   123      6.325907      9.443504      9.928179
   124      8.917438      1.396978     -0.361304
   125      9.152329      0.862002      1.345459
   126     10.517069      0.984838     -1.241864
   127     -4.604153      4.658644    -11.379326
   128     -3.778392      3.216756    -12.279000
   129     -3.637233      4.567753     -9.775703
   130     -7.991387     -1.587005      9.768714
   131     -6.119415     -0.937176      9.912917
   132     -7.906839     -2.741581      8.225785
   133     10.698841      1.382820     -7.398574
   134     10.177914      0.367172     -8.892613
   135     12.034335      2.464450     -8.031310
   136      4.010411      9.353764      4.072859
   137      5.166744     10.371726      2.977776
   138      4.875218      7.720572      3.937382
   139     -1.390787      4.270724     -6.221772
   140     -0.323610      3.195317     -7.335424
   141     -2.823627      3.094317     -5.786710
   142     -2.856149     -0.917925     10.379644
   143     -2.505478     -2.513415     11.291968
   144     -2.856707     -1.209024      8.572550
   145      2.367472     -6.503600     -8.743366
   146      2.170443     -7.997561     -7.696049
   147      3.026559     -7.316638    -10.351504
   148     -6.803675     -2.841470     -9.043967
   149     -5.713485     -4.177368     -9.522230
   150     -7.761243     -2.538101    -10.626212
   151      6.434720      4.357544     -8.672872
   152      5.951235      4.801983     -6.952410
   153      7.967087      3.253370     -8.276301
   154    -10.781655      8.635665      8.222775
   155     -9.056975      8.851613      9.005885
   156    -11.924295      8.386744      9.844409
   157      8.590190     -6.481632     -4.596254
   158      7.140765     -6.209869     -3.481221
   159      9.419077     -7.969808     -3.830229
   160      4.784556     -6.630588     -0.527746
   161      5.307853     -6.082433      1.219777
   162      3.086318     -7.175802     -0.271053
   163    -11.512988     -8.910671     -1.617902
   164    -10.046154     -8.574697     -2.720234
   165    -11.526521     -7.492337     -0.418414
   166     -4.636727      8.232779     -3.064015
   167     -6.479956      8.570341     -2.820416
   168     -3.700641      7.960091     -1.379545
   169     -3.676865     11.677598      4.925516
   170     -3.228191     10.251898      3.755315
   171     -5.487442     12.298802      4.501730
   172    -10.017145      9.089454      1.182802
   173    -11.116047     10.211099      0.300395
   174     -8.791102     10.023858      2.164037
   175      0.215397     -9.453431     -0.978101
   176     -0.128668    -10.825323      0.253896
   177      0.742398    -10.236620     -2.561312
 
  MM charges 
  ---------- 
     1     -0.674440
     2      0.337220
     3      0.337220
     4     -0.674440
     5      0.337220
     6      0.337220
     7     -0.674440
     8      0.337220
     9      0.337220
    10     -0.674440
    11      0.337220
    12      0.337220
    13     -0.674440
    14      0.337220
    15      0.337220
    16     -0.674440
    17      0.337220
    18      0.337220
    19     -0.674440
    20      0.337220
    21      0.337220
    22     -0.674440
    23      0.337220
    24      0.337220
    25     -0.674440
    26      0.337220
    27      0.337220
    28     -0.674440
    29      0.337220
    30      0.337220
    31     -0.674440
    32      0.337220
    33      0.337220
    34     -0.674440
    35      0.337220
    36      0.337220
    37     -0.674440
    38      0.337220
    39      0.337220
    40     -0.674440
    41      0.337220
    42      0.337220
    43     -0.674440
    44      0.337220
    45      0.337220
    46     -0.674440
    47      0.337220
    48      0.337220
    49     -0.674440
    50      0.337220
    51      0.337220
    52     -0.674440
    53      0.337220
    54      0.337220
    55     -0.674440
    56      0.337220
    57      0.337220
    58     -0.674440
    59      0.337220
    60      0.337220
    61     -0.674440
    62      0.337220
    63      0.337220
    64     -0.674440
    65      0.337220
    66      0.337220
    67     -0.674440
    68      0.337220
    69      0.337220
    70     -0.674440
    71      0.337220
    72      0.337220
    73     -0.674440
    74      0.337220
    75      0.337220
    76     -0.674440
    77      0.337220
    78      0.337220
    79     -0.674440
    80      0.337220
    81      0.337220
    82     -0.674440
    83      0.337220
    84      0.337220
    85     -0.674440
    86      0.337220
    87      0.337220
    88     -0.674440
    89      0.337220
    90      0.337220
    91     -0.674440
    92      0.337220
    93      0.337220
    94     -0.674440
    95      0.337220
    96      0.337220
    97     -0.674440
    98      0.337220
    99      0.337220
   100     -0.674440
   101      0.337220
   102      0.337220
   103     -0.674440
   104      0.337220
   105      0.337220
   106     -0.674440
   107      0.337220
   108      0.337220
   109     -0.674440
   110      0.337220
   111      0.337220
   112     -0.674440
   113      0.337220
   114      0.337220
   115     -0.674440
   116      0.337220
   117      0.337220
   118     -0.674440
   119      0.337220
   120      0.337220
   121     -0.674440
   122      0.337220
   123      0.337220
   124     -0.674440
   125      0.337220
   126      0.337220
   127     -0.674440
   128      0.337220
   129      0.337220
   130     -0.674440
   131      0.337220
   132      0.337220
   133     -0.674440
   134      0.337220
   135      0.337220
   136     -0.674440
   137      0.337220
   138      0.337220
   139     -0.674440
   140      0.337220
   141      0.337220
   142     -0.674440
   143      0.337220
   144      0.337220
   145     -0.674440
   146      0.337220
   147      0.337220
   148     -0.674440
   149      0.337220
   150      0.337220
   151     -0.674440
   152      0.337220
   153      0.337220
   154     -0.674440
   155      0.337220
   156      0.337220
   157     -0.674440
   158      0.337220
   159      0.337220
   160     -0.674440
   161      0.337220
   162      0.337220
   163     -0.674440
   164      0.337220
   165      0.337220
   166     -0.674440
   167      0.337220
   168      0.337220
   169     -0.674440
   170      0.337220
   171      0.337220
   172     -0.674440
   173      0.337220
   174      0.337220
   175     -0.674440
   176      0.337220
   177      0.337220
 
  MM isotropic polarizabilities in au 
  ----------------------------------- 
     1      5.739350
     2      2.308390
     3      2.308390
     4      5.739350
     5      2.308390
     6      2.308390
     7      5.739350
     8      2.308390
     9      2.308390
    10      5.739350
    11      2.308390
    12      2.308390
    13      5.739350
    14      2.308390
    15      2.308390
    16      5.739350
    17      2.308390
    18      2.308390
    19      5.739350
    20      2.308390
    21      2.308390
    22      5.739350
    23      2.308390
    24      2.308390
    25      5.739350
    26      2.308390
    27      2.308390
    28      5.739350
    29      2.308390
    30      2.308390
    31      5.739350
    32      2.308390
    33      2.308390
    34      5.739350
    35      2.308390
    36      2.308390
    37      5.739350
    38      2.308390
    39      2.308390
    40      5.739350
    41      2.308390
    42      2.308390
    43      5.739350
    44      2.308390
    45      2.308390
    46      5.739350
    47      2.308390
    48      2.308390
    49      5.739350
    50      2.308390
    51      2.308390
    52      5.739350
    53      2.308390
    54      2.308390
    55      5.739350
    56      2.308390
    57      2.308390
    58      5.739350
    59      2.308390
    60      2.308390
    61      5.739350
    62      2.308390
    63      2.308390
    64      5.739350
    65      2.308390
    66      2.308390
    67      5.739350
    68      2.308390
    69      2.308390
    70      5.739350
    71      2.308390
    72      2.308390
    73      5.739350
    74      2.308390
    75      2.308390
    76      5.739350
    77      2.308390
    78      2.308390
    79      5.739350
    80      2.308390
    81      2.308390
    82      5.739350
    83      2.308390
    84      2.308390
    85      5.739350
    86      2.308390
    87      2.308390
    88      5.739350
    89      2.308390
    90      2.308390
    91      5.739350
    92      2.308390
    93      2.308390
    94      5.739350
    95      2.308390
    96      2.308390
    97      5.739350
    98      2.308390
    99      2.308390
   100      5.739350
   101      2.308390
   102      2.308390
   103      5.739350
   104      2.308390
   105      2.308390
   106      5.739350
   107      2.308390
   108      2.308390
   109      5.739350
   110      2.308390
   111      2.308390
   112      5.739350
   113      2.308390
   114      2.308390
   115      5.739350
   116      2.308390
   117      2.308390
   118      5.739350
   119      2.308390
   120      2.308390
   121      5.739350
   122      2.308390
   123      2.308390
   124      5.739350
   125      2.308390
   126      2.308390
   127      5.739350
   128      2.308390
   129      2.308390
   130      5.739350
   131      2.308390
   132      2.308390
   133      5.739350
   134      2.308390
   135      2.308390
   136      5.739350
   137      2.308390
   138      2.308390
   139      5.739350
   140      2.308390
   141      2.308390
   142      5.739350
   143      2.308390
   144      2.308390
   145      5.739350
   146      2.308390
   147      2.308390
   148      5.739350
   149      2.308390
   150      2.308390
   151      5.739350
   152      2.308390
   153      2.308390
   154      5.739350
   155      2.308390
   156      2.308390
   157      5.739350
   158      2.308390
   159      2.308390
   160      5.739350
   161      2.308390
   162      2.308390
   163      5.739350
   164      2.308390
   165      2.308390
   166      5.739350
   167      2.308390
   168      2.308390
   169      5.739350
   170      2.308390
   171      2.308390
   172      5.739350
   173      2.308390
   174      2.308390
   175      5.739350
   176      2.308390
   177      2.308390


     ************************************************************************
     ************************** Output from HERINT **************************
     ************************************************************************



                      Nuclear contribution to dipole moments
                      --------------------------------------

                 au               Debye          C m (/(10**-30)

      x     54.05069118       137.38314473       458.26084369
      y     16.07148763        40.84964436       136.25974659
      z      0.66244727         1.68377291         5.61646187


  Time used in HUCKEL     is       0.28 seconds
  Time used in OVERLAP    is       0.14 seconds
  Time used in POPOVLP    is       0.16 seconds
  Time used in DIPLEN     is       0.34 seconds
  Time used in QUADRUP    is       0.47 seconds
  Time used in KINENE     is       0.19 seconds

 Threshold for neglecting two-electron integrals:  1.00D-12
 HERMIT - Number of two-electron integrals written:    37415917 ( 42.9% )
 HERMIT - Megabytes written:                            428.430

  Time used in TWOINT     is      16.11 seconds
  Total CPU  time used in HERMIT:  17.75 seconds
  Total wall time used in HERMIT:   7.32 seconds


                        .----------------------------------.
                        | End of Integral Section (HERMIT) |
                        `----------------------------------'



                   .--------------------------------------------.
                   | Starting in Wave Function Section (SIRIUS) |
                   `--------------------------------------------'

NCCEXCI for singlet:   15
 CCSD_INPUT: core-val requested
 Requested number of core orbs per sym
                     1
 Indices of requested core orbs
                     1

 *** Output from Huckel module :

     Using EWMO model:          T
     Using EHT  model:          F
     Number of Huckel orbitals each symmetry:   37

 EWMO - Energy Weighted Maximum Overlap - is a Huckel type method,
        which normally is better than Extended Huckel Theory.
 Reference: Linderberg and Ohrn, Propagators in Quantum Chemistry (Wiley, 1973)

 Huckel EWMO eigenvalues for symmetry :  1
          -20.684823     -20.684509     -20.684225     -20.684085     -15.676216
           -1.829172      -1.614167      -1.609099      -1.578382      -1.481351
           -0.831299      -0.802201      -0.776571      -0.770471      -0.762251
           -0.745436      -0.731957      -0.693961      -0.691041      -0.658318
           -0.654029      -0.609677      -0.593893      -0.563763      -0.549063
           -0.265996      -0.252961      -0.238276      -0.234902      -0.189607
           -0.186480      -0.179251      -0.175553      -0.171074      -0.148568
           -0.142945      -0.130228

 **********************************************************************
 *SIRIUS* a direct, restricted step, second order MCSCF program       *
 **********************************************************************

 
     Date and time (Linux)  : Sun Dec  9 19:28:54 2018
     Host name              : n-62-23-15                              

 Title lines from ".mol" input file:
                                                                             
                                                                             

 Print level on unit LUPRI =   2 is   0
 Print level on unit LUW4  =   2 is  11

@    (Integral direct) CC calculation.

@    This is a combination run starting with
@              a restricted, closed shell Hartree-Fock calculation


 Initial molecular orbitals are obtained according to
 ".MOSTART EWMO  " input option

@    QM part is embedded in an environment :

@         Model: QMMM

     Wave function specification
     ============================

     For the specification of the Coupled Cluster: see later.

@    Wave function type        --- CC ---
@    Number of closed shell electrons          50
@    Number of electrons in active shells       0
@    Total charge of the molecule               1

@    Spin multiplicity and 2 M_S                1         0
@    Total number of symmetries                 1 (point group: C1 )
@    Reference state symmetry                   1 (irrep name : A  )

     Orbital specifications
     ======================
@    Abelian symmetry species          All |    1
@                                          |  A  
                                       --- |  ---
@    Occupied SCF orbitals              25 |   25
@    Secondary orbitals                137 |  137
@    Total number of orbitals          162 |  162
@    Number of basis functions         162 |  162

     Optimization information
     ========================
@    Number of configurations                 1
@    Number of orbital rotations           3425
     ------------------------------------------
@    Total number of variables             3426

     Maximum number of Fock   iterations      0
     Maximum number of DIIS   iterations     60
     Maximum number of QC-SCF iterations     60
     Threshold for SCF convergence     1.00D-07


 Changes of defaults for CC:
 ---------------------------


 -Implicit frozen core calculation
 -Excitation energies calculated
 -One-photon absorption strengths will be calculated
 -Oscillator strengths calculated
  
* Read MO coefficients from SIRIUS.RST with label "NEWORB  " and header info:  9Dec18  REORTHO 


 ***********************************************
 ***** DIIS acceleration of SCF iterations *****
 ***********************************************

 C1-DIIS algorithm; max error vectors =    8
 -----------------------------------------------------------------------------

 *** DIIS iteration number    1
 RDSUPM called. NFMAT, ISYMDM(1:NFMAT)                     1
                     1

Calculating AOSUPINT
     (Precalculated two-electron integrals are transformed to P-supermatrix elements.
      Threshold for discarding integrals :  1.00D-12 )
  CPU  time used in FORMSUP    is   8.62 seconds
  WALL time used in FORMSUP    is   9.86 seconds

 ITDIIS, energy, error norm, change in energy, scr.thr., difden:
@ DIIS iter.   1    -360.122194470        4.04764D+00   -3.60D+02  -20    F

 (DIIS_RED) Control Parameters C2DIIS =         F NEVC =    1


 (DIIS_RED) B matrix:

               Column   1
       1      16.38335144
    ==== End of matrix output ====

 DIIS C vector; C2DIIS = F, LAMBDA = -1.64D+01
    1.000000
* Read MO coefficients from SIRIUS.RST with label "NEWORB  " and header info:  9Dec18  DIIS   1
      Virial theorem: -V/T =      2.002493
@      MULPOP N       0.14; H       0.16; H       0.17; H       0.18; H       0.15; O      -0.62; O      -0.57; O      -0.63; O      -0.57; H       0.33; 
@             H       0.34; H       0.30; H       0.32; H       0.33; H       0.32; H       0.32; H       0.31; 
   1  Level shift: doubly occupied orbital energies shifted by -2.00D-01

 DIIS Fock eigenvalues in symmetry 1
      -20.87025      -20.83393      -20.83170      -20.80487      -16.50730
       -1.77464       -1.67940       -1.66455       -1.64151       -1.63948
       -1.26392       -1.23464       -1.22735       -1.04577       -1.03390
       -1.01346       -1.00116       -0.94447       -0.91424       -0.90019
       -0.89415       -0.88235       -0.86637       -0.86431       -0.83711
       -0.03949        0.02586        0.03365        0.06804        0.07892
        0.10627        0.13432        0.13945        0.15991        0.16759
        0.17392        0.23075        0.24260        0.26697        0.30064
        0.39398        0.39746        0.43210        0.45185        0.46209
        0.47640        0.49411        0.50044        0.56133        0.63270
        0.67286        0.67750        0.78115        0.85130        0.86182
        0.87142        0.89354        0.91898        0.93318        0.96131
        0.97556        0.98677        1.01280        1.02440        1.05141
        1.06521        1.08507        1.19425        1.23615        1.25406
        1.28819        1.29718        1.31589        1.33387        1.35129
        1.36647        1.38437        1.41239        1.43998        1.47657
        1.51674        1.54281        1.56023        1.58176        1.61513
        1.66682        1.71502        1.73776        1.76862        1.80664
        1.83715        1.89396        1.96738        1.98708        2.02736
        2.04035        2.10826        2.12638        2.13854        2.16291
        2.19043        2.20304        2.21474        2.27508        2.37029
        2.41928        2.44105        2.48557        2.49296        2.52118
        2.57244        2.61901        2.62435        2.66679        2.67656
        2.68072        2.71515        2.75337        2.96327        3.00034
        3.01913        3.08125        3.28883        3.31999        3.33432
        3.34480        3.36741        3.37911        3.40328        3.43312
        3.44510        3.48246        3.51716        3.58264        3.77947
        3.81467        3.84505        3.91469        4.03426        4.05634
        4.12235        4.15902        4.66099        4.73418        4.88823
        5.19977        5.23177        5.25904        5.35328        5.63366
        5.65794        5.68378        5.76234        5.81859        5.91054
        5.91470        6.02153       36.35299       51.39186       51.42864
       51.43639       51.48574
 Time used in FCKEIG, thr_jaco:   4.69D-01  4.70D-02  1.73D-04
 CPU and wall times used in FCKEIG, THR_FCKEIG:   4.69D-01  4.70D-02  4.05D-02
 -----------------------------------------------------------------------------

 *** DIIS iteration number    2
 RDSUPM called. NFMAT, ISYMDM(1:NFMAT)                     1
                     1

 ITDIIS, energy, error norm, change in energy, scr.thr., difden:
@ DIIS iter.   2    -361.041815125        1.16350D+00   -9.20D-01  -20    F

 (DIIS_RED) Control Parameters C2DIIS =         F NEVC =    2


 (DIIS_RED) B matrix:

               Column   1     Column   2
       1      16.38335144
       2       0.59969537     1.35373232
    ==== End of matrix output ====

 DIIS C vector; C2DIIS = F, LAMBDA = -1.32D+00
    0.045595    0.954405
* Read MO coefficients from SIRIUS.RST with label "NEWORB  " and header info:  9Dec18  DIIS   2
      Virial theorem: -V/T =      2.002226
@      MULPOP N      -0.51; H       0.34; H       0.31; H       0.34; H       0.32; O      -0.58; O      -0.59; O      -0.55; O      -0.57; H       0.37; 
@             H       0.27; H       0.32; H       0.34; H       0.28; H       0.29; H       0.31; H       0.31; 
   2  Level shift: doubly occupied orbital energies shifted by -1.00D-01

 DIIS Fock eigenvalues in symmetry 1
      -20.83775      -20.79839      -20.79652      -20.75169      -15.65817
       -1.57651       -1.55784       -1.54106       -1.52670       -1.41919
       -0.93459       -0.92646       -0.90947       -0.89924       -0.89212
       -0.88342       -0.87461       -0.82713       -0.81540       -0.78501
       -0.77878       -0.76935       -0.74756       -0.73246       -0.70020
        0.01853        0.07620        0.07725        0.10627        0.12588
        0.16726        0.16981        0.18898        0.20603        0.21605
        0.24928        0.28556        0.32856        0.37112        0.38110
        0.43118        0.44471        0.46772        0.49048        0.50117
        0.52115        0.53146        0.57565        0.63041        0.78084
        0.79887        0.82651        0.84434        0.89340        0.89790
        0.92415        0.92856        0.95449        0.97345        0.99436
        1.02254        1.02451        1.06074        1.07839        1.14287
        1.15796        1.18631        1.23075        1.28656        1.30333
        1.34214        1.34590        1.36066        1.39234        1.40692
        1.42899        1.44851        1.47883        1.50078        1.55144
        1.59611        1.61698        1.64486        1.67453        1.72353
        1.77010        1.77965        1.81909        1.84023        1.89466
        1.91918        1.99835        2.02496        2.06824        2.07572
        2.09272        2.17536        2.19009        2.23934        2.26384
        2.26782        2.30744        2.35158        2.36906        2.47385
        2.48777        2.51922        2.58798        2.59860        2.62468
        2.67314        2.70977        2.73191        2.73963        2.75555
        2.78143        2.90103        2.97710        3.12840        3.20491
        3.25824        3.30783        3.33822        3.35412        3.36149
        3.38448        3.41234        3.42843        3.46590        3.46943
        3.49402        3.53785        3.55230        3.61080        3.79545
        3.83116        3.86074        3.94178        4.05007        4.07352
        4.13855        4.18268        5.05995        5.13035        5.19157
        5.22758        5.23758        5.30806        5.35605        5.62892
        5.65153        5.67843        5.76832        5.82295        5.91826
        5.92034        6.04208       37.08446       51.32696       51.36688
       51.37406       51.44152
 Time used in FCKEIG, thr_jaco:   3.36D-01  3.40D-02  4.97D-05
 CPU and wall times used in FCKEIG, THR_FCKEIG:   3.36D-01  3.40D-02  1.16D-02
 -----------------------------------------------------------------------------

 *** DIIS iteration number    3
 RDSUPM called. NFMAT, ISYMDM(1:NFMAT)                     1
                     1

 ITDIIS, energy, error norm, change in energy, scr.thr., difden:
@ DIIS iter.   3    -361.119244488        3.77132D-01   -7.74D-02  -20    F

 (DIIS_RED) Control Parameters C2DIIS =         F NEVC =    3


 (DIIS_RED) B matrix:

               Column   1     Column   2     Column   3
       1      16.38335144
       2       0.59969537     1.35373232
       3       0.83020067    -0.00291269     0.14222824
    ==== End of matrix output ====

 DIIS C vector; C2DIIS = F, LAMBDA = -9.71D-02
   -0.045741    0.094046    0.951695
* Read MO coefficients from SIRIUS.RST with label "NEWORB  " and header info:  9Dec18  DIIS   3
      Virial theorem: -V/T =      2.002769
@      MULPOP N      -0.30; H       0.31; H       0.27; H       0.30; H       0.26; O      -0.64; O      -0.67; O      -0.60; O      -0.65; H       0.40; 
@             H       0.28; H       0.35; H       0.37; H       0.30; H       0.32; H       0.34; H       0.35; 
   3  Level shift: doubly occupied orbital energies shifted by -5.00D-02

 DIIS Fock eigenvalues in symmetry 1
      -20.73462      -20.70990      -20.69657      -20.66177      -15.81214
       -1.50280       -1.49085       -1.47124       -1.45897       -1.41676
       -0.91210       -0.87694       -0.86692       -0.84843       -0.83732
       -0.82562       -0.80520       -0.76039       -0.74678       -0.71496
       -0.70873       -0.69255       -0.67152       -0.65885       -0.62722
        0.02605        0.08230        0.08370        0.11259        0.13080
        0.17048        0.17586        0.19397        0.20973        0.22016
        0.25221        0.28827        0.32898        0.37362        0.38400
        0.44240        0.45328        0.47676        0.50219        0.51255
        0.53133        0.54249        0.58210        0.63423        0.77687
        0.79521        0.81488        0.84460        0.90518        0.91351
        0.93489        0.94109        0.96777        0.98718        1.00747
        1.03625        1.04003        1.07501        1.09231        1.14190
        1.15652        1.18562        1.24326        1.29942        1.31680
        1.35404        1.36097        1.37541        1.40635        1.42155
        1.44119        1.46183        1.49279        1.51258        1.56231
        1.60664        1.62661        1.65142        1.68172        1.72910
        1.77990        1.78836        1.82504        1.85107        1.90537
        1.92247        2.00279        2.04296        2.07910        2.08380
        2.10871        2.19179        2.21044        2.24933        2.26873
        2.28317        2.30968        2.35411        2.37343        2.48398
        2.50156        2.53044        2.59375        2.60872        2.63507
        2.68047        2.72046        2.74395        2.75062        2.76456
        2.79304        2.86592        2.94972        3.11969        3.19771
        3.24521        3.30688        3.34273        3.37743        3.38551
        3.40930        3.42524        3.43275        3.48761        3.49844
        3.51553        3.54941        3.56421        3.63700        3.82546
        3.85593        3.88857        3.96577        4.08286        4.10378
        4.16444        4.20988        4.98476        5.05610        5.19853
        5.23439        5.25789        5.29614        5.38651        5.66363
        5.68343        5.71496        5.79776        5.86175        5.94966
        5.95491        6.07324       36.88678       51.37973       51.40654
       51.42332       51.48162
 Time used in FCKEIG, thr_jaco:   2.88D-01  2.90D-02  1.61D-05
 CPU and wall times used in FCKEIG, THR_FCKEIG:   2.88D-01  2.90D-02  3.77D-03
 -----------------------------------------------------------------------------

 *** DIIS iteration number    4
 RDSUPM called. NFMAT, ISYMDM(1:NFMAT)                     1
                     1

 ITDIIS, energy, error norm, change in energy, scr.thr., difden:
@ DIIS iter.   4    -361.129678296        9.48628D-02   -1.04D-02  -20    F

 (DIIS_RED) Control Parameters C2DIIS =         F NEVC =    4


 (DIIS_RED) B matrix:

               Column   1     Column   2     Column   3     Column   4
       1      16.38335144
       2       0.59969537     1.35373232
       3       0.83020067    -0.00291269     0.14222824
       4       0.05312351     0.07838866     0.00621387     0.00899895
    ==== End of matrix output ====

 DIIS C vector; C2DIIS = F, LAMBDA = -4.98D-03
   -0.000551   -0.057948   -0.009619    1.068118
* Read MO coefficients from SIRIUS.RST with label "NEWORB  " and header info:  9Dec18  DIIS   4
      Virial theorem: -V/T =      2.002877
@      MULPOP N      -0.36; H       0.32; H       0.28; H       0.32; H       0.27; O      -0.65; O      -0.68; O      -0.62; O      -0.66; H       0.42; 
@             H       0.29; H       0.36; H       0.38; H       0.31; H       0.33; H       0.35; H       0.35; 
   4  Level shift: doubly occupied orbital energies shifted by -2.50D-02

 DIIS Fock eigenvalues in symmetry 1
      -20.72788      -20.69538      -20.68945      -20.65080      -15.75754
       -1.48383       -1.47020       -1.45111       -1.43916       -1.38160
       -0.87787       -0.84338       -0.83491       -0.82513       -0.81421
       -0.80501       -0.78460       -0.73818       -0.72391       -0.69288
       -0.68668       -0.66955       -0.64660       -0.63505       -0.60274
        0.02561        0.08208        0.08291        0.11184        0.13103
        0.17135        0.17590        0.19438        0.21090        0.22179
        0.25455        0.28987        0.33442        0.37795        0.38756
        0.44179        0.45345        0.47644        0.50088        0.51100
        0.52979        0.54136        0.58302        0.63588        0.78286
        0.79916        0.82107        0.84747        0.90578        0.91376
        0.93595        0.94123        0.96722        0.98689        1.00634
        1.03528        1.03741        1.07329        1.09203        1.14516
        1.16083        1.18866        1.24226        1.29922        1.31577
        1.35352        1.35945        1.37400        1.40475        1.41988
        1.43999        1.46029        1.49115        1.51167        1.56198
        1.60672        1.62735        1.65254        1.68487        1.73281
        1.78090        1.78934        1.82691        1.85043        1.90448
        1.92595        2.00625        2.03987        2.08054        2.08446
        2.10582        2.18803        2.20669        2.25068        2.27049
        2.27976        2.31347        2.35848        2.37455        2.48577
        2.49951        2.53061        2.59660        2.61321        2.63918
        2.68290        2.72041        2.74274        2.75006        2.76431
        2.79078        2.87706        2.95946        3.12731        3.20209
        3.25178        3.31536        3.33885        3.37486        3.38292
        3.40641        3.42563        3.42986        3.48511        3.49349
        3.51387        3.55048        3.56181        3.63316        3.82046
        3.85276        3.88383        3.96175        4.07767        4.09901
        4.16185        4.20585        5.00062        5.07191        5.20568
        5.23079        5.25285        5.29162        5.37967        5.65590
        5.67742        5.70665        5.79121        5.85229        5.94377
        5.94616        6.06577       36.91605       51.36206       51.39586
       51.40615       51.46793
 Time used in FCKEIG, thr_jaco:   2.68D-01  2.70D-02  4.05D-06
 CPU and wall times used in FCKEIG, THR_FCKEIG:   2.68D-01  2.70D-02  9.49D-04
 -----------------------------------------------------------------------------

 *** DIIS iteration number    5
 RDSUPM called. NFMAT, ISYMDM(1:NFMAT)                     1
                     1

 ITDIIS, energy, error norm, change in energy, scr.thr., difden:
@ DIIS iter.   5    -361.130738167        3.20955D-02   -1.06D-03  -20    F

 (DIIS_RED) Control Parameters C2DIIS =         F NEVC =    5


 (DIIS_RED) B matrix:

               Column   1     Column   2     Column   3     Column   4     Column   5
       1      16.38335144
       2       0.59969537     1.35373232
       3       0.83020067    -0.00291269     0.14222824
       4       0.05312351     0.07838866     0.00621387     0.00899895
       5       0.02505831     0.00827426     0.00632674     0.00090613     0.00103012
    ==== End of matrix output ====

 DIIS C vector; C2DIIS = F, LAMBDA = -6.88D-04
    0.001191   -0.012894   -0.049484    0.121290    0.939897
* Read MO coefficients from SIRIUS.RST with label "NEWORB  " and header info:  9Dec18  DIIS   5
      Virial theorem: -V/T =      2.002477
@      MULPOP N      -0.35; H       0.32; H       0.28; H       0.32; H       0.27; O      -0.66; O      -0.70; O      -0.63; O      -0.68; H       0.42; 
@             H       0.29; H       0.37; H       0.39; H       0.31; H       0.33; H       0.36; H       0.36; 
   5  Level shift: doubly occupied orbital energies shifted by -1.25D-02

 DIIS Fock eigenvalues in symmetry 1
      -20.70615      -20.67832      -20.66775      -20.63159      -15.74054
       -1.46806       -1.45601       -1.43546       -1.42428       -1.36719
       -0.86366       -0.82895       -0.82046       -0.81040       -0.80037
       -0.79027       -0.77043       -0.72308       -0.71027       -0.67781
       -0.67229       -0.65314       -0.63158       -0.61876       -0.58709
        0.02607        0.08255        0.08323        0.11217        0.13157
        0.17189        0.17641        0.19492        0.21153        0.22252
        0.25535        0.29057        0.33568        0.37916        0.38861
        0.44245        0.45431        0.47713        0.50155        0.51158
        0.53023        0.54207        0.58381        0.63682        0.78451
        0.80095        0.82249        0.84906        0.90743        0.91584
        0.93763        0.94290        0.96875        0.98849        1.00788
        1.03684        1.03905        1.07462        1.09373        1.14662
        1.16227        1.19008        1.24351        1.30062        1.31669
        1.35474        1.36029        1.37525        1.40543        1.42052
        1.44085        1.46101        1.49189        1.51250        1.56265
        1.60737        1.62815        1.65335        1.68589        1.73387
        1.78140        1.78998        1.82766        1.85073        1.90473
        1.92696        2.00746        2.04098        2.08153        2.08564
        2.10628        2.18872        2.20799        2.25194        2.27172
        2.28038        2.31484        2.35967        2.37561        2.48653
        2.49967        2.53114        2.59744        2.61431        2.64027
        2.68373        2.72080        2.74279        2.75034        2.76468
        2.79071        2.87887        2.96119        3.12882        3.20479
        3.25439        3.31766        3.34215        3.37674        3.38471
        3.40968        3.42857        3.43232        3.48758        3.49686
        3.51695        3.55327        3.56360        3.63555        3.82369
        3.85470        3.88706        3.96417        4.08130        4.10255
        4.16375        4.20850        5.00324        5.07454        5.20940
        5.23535        5.25614        5.29647        5.38373        5.66058
        5.68080        5.71148        5.79483        5.85719        5.94634
        5.95076        6.06920       36.92046       51.37108       51.40070
       51.41500       51.47455
 Time used in FCKEIG, thr_jaco:   2.56D-01  2.50D-02  1.37D-06
 CPU and wall times used in FCKEIG, THR_FCKEIG:   2.56D-01  2.50D-02  3.21D-04
 -----------------------------------------------------------------------------

 *** DIIS iteration number    6
 RDSUPM called. NFMAT, ISYMDM(1:NFMAT)                     1
                     1

 ITDIIS, energy, error norm, change in energy, scr.thr., difden:
@ DIIS iter.   6    -361.130840802        1.14062D-02   -1.03D-04  -20    F

 (DIIS_RED) Control Parameters C2DIIS =         F NEVC =    6


 (DIIS_RED) B matrix:

               Column   1     Column   2     Column   3     Column   4     Column   5     Column   6
       1      16.38335144
       2       0.59969537     1.35373232
       3       0.83020067    -0.00291269     0.14222824
       4       0.05312351     0.07838866     0.00621387     0.00899895
       5       0.02505831     0.00827426     0.00632674     0.00090613     0.00103012
       6      -0.00436957    -0.00005809     0.00090463     0.00063246     0.00004287     0.00013010
    ==== End of matrix output ====

 DIIS C vector; C2DIIS = F, LAMBDA = -3.95D-05
    0.000774    0.007256   -0.008861   -0.140381    0.095658    1.045554
* Read MO coefficients from SIRIUS.RST with label "NEWORB  " and header info:  9Dec18  DIIS   6
      Virial theorem: -V/T =      2.002740
@      MULPOP N      -0.34; H       0.32; H       0.28; H       0.31; H       0.27; O      -0.67; O      -0.70; O      -0.63; O      -0.68; H       0.42; 
@             H       0.29; H       0.37; H       0.39; H       0.31; H       0.33; H       0.36; H       0.36; 

 DIIS Fock eigenvalues in symmetry 1
      -20.69621      -20.66682      -20.65791      -20.62082      -15.73029
       -1.45624       -1.44367       -1.42374       -1.41224       -1.35529
       -0.85185       -0.81704       -0.80844       -0.79851       -0.78816
       -0.77859       -0.75851       -0.71150       -0.69832       -0.66636
       -0.66055       -0.64110       -0.61896       -0.60677       -0.57478
        0.02595        0.08235        0.08310        0.11207        0.13139
        0.17179        0.17630        0.19479        0.21145        0.22238
        0.25522        0.29040        0.33549        0.37893        0.38846
        0.44228        0.45404        0.47682        0.50129        0.51131
        0.53003        0.54180        0.58359        0.63657        0.78411
        0.80059        0.82215        0.84876        0.90716        0.91551
        0.93739        0.94253        0.96846        0.98822        1.00740
        1.03644        1.03858        1.07425        1.09348        1.14629
        1.16198        1.18978        1.24331        1.30031        1.31645
        1.35438        1.35997        1.37484        1.40506        1.42015
        1.44046        1.46072        1.49155        1.51210        1.56238
        1.60714        1.62787        1.65299        1.68567        1.73371
        1.78112        1.78970        1.82742        1.85051        1.90441
        1.92675        2.00719        2.04046        2.08101        2.08535
        2.10597        2.18821        2.20746        2.25147        2.27133
        2.28010        2.31453        2.35939        2.37525        2.48626
        2.49942        2.53085        2.59715        2.61424        2.64025
        2.68344        2.72046        2.74239        2.75007        2.76435
        2.79032        2.87824        2.96061        3.12858        3.20392
        3.25360        3.31693        3.34129        3.37643        3.38436
        3.40872        3.42776        3.43163        3.48693        3.49600
        3.51605        3.55242        3.56324        3.63490        3.82287
        3.85432        3.88606        3.96351        4.08038        4.10151
        4.16341        4.20781        5.00222        5.07347        5.20827
        5.23411        5.25551        5.29510        5.38279        5.65928
        5.68000        5.71017        5.79386        5.85579        5.94573
        5.94930        6.06821       36.91825       51.36858       51.39961
       51.41244       51.47283
 Time used in FCKEIG, thr_jaco:   2.55D-01  2.60D-02  4.87D-07
 CPU and wall times used in FCKEIG, THR_FCKEIG:   2.55D-01  2.60D-02  1.14D-04
 -----------------------------------------------------------------------------

 *** DIIS iteration number    7
 RDSUPM called. NFMAT, ISYMDM(1:NFMAT)                     1
                     1

 ITDIIS, energy, error norm, change in energy, scr.thr., difden:
@ DIIS iter.   7    -361.130856268        2.39829D-03   -1.55D-05  -20    F

 (DIIS_RED) Control Parameters C2DIIS =         F NEVC =    7


 (DIIS_RED) B matrix:

               Column   1     Column   2     Column   3     Column   4     Column   5     Column   6
       1      16.38335144
       2       0.59969537     1.35373232
       3       0.83020067    -0.00291269     0.14222824
       4       0.05312351     0.07838866     0.00621387     0.00899895
       5       0.02505831     0.00827426     0.00632674     0.00090613     0.00103012
       6      -0.00436957    -0.00005809     0.00090463     0.00063246     0.00004287     0.00013010
       7       0.00021351     0.00021231    -0.00000545     0.00000953     0.00005238     0.00000273

               Column   7
       7       0.00000575
    ==== End of matrix output ====

 DIIS C vector; C2DIIS = F, LAMBDA = -1.45D-06
   -0.000240   -0.000913    0.005657    0.024722   -0.097634   -0.150240    1.218648
* Read MO coefficients from SIRIUS.RST with label "NEWORB  " and header info:  9Dec18  DIIS   7
      Virial theorem: -V/T =      2.002683
@      MULPOP N      -0.34; H       0.31; H       0.28; H       0.31; H       0.27; O      -0.67; O      -0.70; O      -0.63; O      -0.68; H       0.43; 
@             H       0.29; H       0.37; H       0.39; H       0.32; H       0.33; H       0.36; H       0.36; 

 DIIS Fock eigenvalues in symmetry 1
      -20.69579      -20.66676      -20.65749      -20.62074      -15.72983
       -1.45604       -1.44359       -1.42354       -1.41217       -1.35506
       -0.85166       -0.81686       -0.80828       -0.79835       -0.78808
       -0.77845       -0.75848       -0.71142       -0.69837       -0.66628
       -0.66058       -0.64087       -0.61884       -0.60653       -0.57465
        0.02600        0.08240        0.08313        0.11210        0.13144
        0.17184        0.17634        0.19484        0.21151        0.22245
        0.25530        0.29047        0.33563        0.37906        0.38858
        0.44234        0.45412        0.47687        0.50134        0.51134
        0.53006        0.54185        0.58366        0.63667        0.78427
        0.80075        0.82230        0.84888        0.90724        0.91564
        0.93747        0.94264        0.96856        0.98832        1.00752
        1.03654        1.03866        1.07431        1.09355        1.14643
        1.16211        1.18991        1.24340        1.30040        1.31651
        1.35446        1.36002        1.37492        1.40509        1.42018
        1.44052        1.46076        1.49158        1.51215        1.56244
        1.60720        1.62793        1.65306        1.68578        1.73381
        1.78117        1.78976        1.82749        1.85054        1.90443
        1.92687        2.00731        2.04053        2.08106        2.08548
        2.10599        2.18822        2.20753        2.25157        2.27145
        2.28012        2.31465        2.35949        2.37534        2.48633
        2.49944        2.53089        2.59725        2.61435        2.64034
        2.68353        2.72049        2.74239        2.75009        2.76439
        2.79031        2.87847        2.96082        3.12876        3.20414
        3.25383        3.31714        3.34148        3.37650        3.38443
        3.40892        3.42795        3.43171        3.48702        3.49619
        3.51625        3.55263        3.56333        3.63497        3.82304
        3.85439        3.88624        3.96356        4.08059        4.10172
        4.16348        4.20789        5.00251        5.07376        5.20855
        5.23439        5.25563        5.29539        5.38287        5.65950
        5.68013        5.71040        5.79393        5.85604        5.94580
        5.94954        6.06827       36.91870       51.36899       51.39969
       51.41284       51.47292
 Time used in FCKEIG, thr_jaco:   2.51D-01  2.50D-02  1.02D-07
 CPU and wall times used in FCKEIG, THR_FCKEIG:   2.51D-01  2.50D-02  2.40D-05
 -----------------------------------------------------------------------------

 *** DIIS iteration number    8
 RDSUPM called. NFMAT, ISYMDM(1:NFMAT)                     1
                     1

 ITDIIS, energy, error norm, change in energy, scr.thr., difden:
@ DIIS iter.   8    -361.130856928        4.21282D-04   -6.61D-07  -20    F

 (DIIS_RED) Control Parameters C2DIIS =         F NEVC =    8


 (DIIS_RED) B matrix:

               Column   1     Column   2     Column   3     Column   4     Column   5     Column   6
       1      16.38335144
       2       0.59969537     1.35373232
       3       0.83020067    -0.00291269     0.14222824
       4       0.05312351     0.07838866     0.00621387     0.00899895
       5       0.02505831     0.00827426     0.00632674     0.00090613     0.00103012
       6      -0.00436957    -0.00005809     0.00090463     0.00063246     0.00004287     0.00013010
       7       0.00021351     0.00021231    -0.00000545     0.00000953     0.00005238     0.00000273
       8       0.00013064    -0.00004305     0.00000573     0.00000226     0.00000019     0.00000183

               Column   7     Column   8
       7       0.00000575
       8       0.00000039     0.00000018
    ==== End of matrix output ====

 DIIS C vector; C2DIIS = F, LAMBDA = -1.22D-07
   -0.000013   -0.000054   -0.000284    0.001069    0.008551   -0.018864   -0.124007    1.133603
* Read MO coefficients from SIRIUS.RST with label "NEWORB  " and header info:  9Dec18  DIIS   8
      Virial theorem: -V/T =      2.002699
@      MULPOP N      -0.34; H       0.31; H       0.28; H       0.31; H       0.27; O      -0.67; O      -0.70; O      -0.63; O      -0.68; H       0.43; 
@             H       0.29; H       0.37; H       0.39; H       0.32; H       0.33; H       0.36; H       0.36; 

 DIIS Fock eigenvalues in symmetry 1
      -20.69586      -20.66669      -20.65756      -20.62062      -15.72985
       -1.45605       -1.44356       -1.42356       -1.41213       -1.35506
       -0.85167       -0.81687       -0.80827       -0.79835       -0.78806
       -0.77846       -0.75844       -0.71146       -0.69836       -0.66633
       -0.66056       -0.64088       -0.61881       -0.60655       -0.57461
        0.02600        0.08239        0.08313        0.11210        0.13144
        0.17185        0.17635        0.19484        0.21151        0.22244
        0.25530        0.29047        0.33562        0.37905        0.38858
        0.44234        0.45412        0.47687        0.50135        0.51135
        0.53006        0.54185        0.58366        0.63667        0.78426
        0.80074        0.82230        0.84888        0.90724        0.91563
        0.93748        0.94263        0.96856        0.98832        1.00752
        1.03653        1.03865        1.07433        1.09356        1.14642
        1.16211        1.18991        1.24341        1.30041        1.31651
        1.35446        1.36001        1.37492        1.40509        1.42018
        1.44051        1.46076        1.49158        1.51214        1.56244
        1.60720        1.62794        1.65306        1.68577        1.73381
        1.78117        1.78976        1.82749        1.85054        1.90444
        1.92687        2.00731        2.04052        2.08105        2.08547
        2.10600        2.18823        2.20752        2.25156        2.27144
        2.28013        2.31465        2.35949        2.37534        2.48632
        2.49944        2.53089        2.59724        2.61434        2.64034
        2.68352        2.72049        2.74239        2.75009        2.76439
        2.79031        2.87846        2.96081        3.12875        3.20412
        3.25382        3.31714        3.34146        3.37653        3.38445
        3.40889        3.42794        3.43174        3.48704        3.49617
        3.51622        3.55261        3.56335        3.63501        3.82302
        3.85441        3.88621        3.96360        4.08056        4.10169
        4.16351        4.20793        5.00250        5.07375        5.20853
        5.23436        5.25566        5.29535        5.38293        5.65947
        5.68014        5.71037        5.79399        5.85600        5.94583
        5.94950        6.06833       36.91868       51.36893       51.39975
       51.41277       51.47303
 Time used in FCKEIG, thr_jaco:   2.52D-01  2.50D-02  1.80D-08
 CPU and wall times used in FCKEIG, THR_FCKEIG:   2.52D-01  2.50D-02  4.21D-06
 -----------------------------------------------------------------------------

 *** DIIS iteration number    9
 RDSUPM called. NFMAT, ISYMDM(1:NFMAT)                     1
                     1

 ITDIIS, energy, error norm, change in energy, scr.thr., difden:
@ DIIS iter.   9    -361.130856949        1.74201D-04   -2.10D-08  -20    F

 (DIIS_RED) Control Parameters C2DIIS =         F NEVC =    8


 (DIIS_RED) B matrix:

[...]

 Principal values of diagonalized transition strength matrix:

             a.u.               
 1      -0.00000000
 2       0.00000000
 3       0.00020875

 Principal axis of diagonalized transition strength matrix:


               Column   1     Column   2     Column   3
       1      -0.40500658     0.35782221     0.84138751
       2       0.41740982     0.89110577    -0.17804366
       3       0.81347324    -0.27909456     0.51026221
    ==== End of matrix output ====


 CCSD   oscillator strength matrix for state nr. 13 of symmetry 1
 CCSD  excitation energy:15.20311983


               Column   1     Column   2     Column   3
       1       0.00149784    -0.00031695     0.00090838
       2      -0.00031695     0.00006707    -0.00019222
       3       0.00090838    -0.00019222     0.00055087
    ==== End of matrix output ====

 Principal values of diagonalized oscillator strength matrix:

             a.u.               
 1      -0.00000002
 2       0.00000000
 3       0.00211579

 Principal axis of diagonalized oscillator strength matrix:


               Column   1     Column   2     Column   3
       1      -0.40500658     0.35782221     0.84138751
       2       0.41740982     0.89110577    -0.17804366
       3       0.81347324    -0.27909456     0.51026221
    ==== End of matrix output ====


 CCSD  Transition strength matrix for state nr. 14 of symmetry 1
 CCSD  excitation energy:15.22310841

 Gauge: length

               Column   1     Column   2     Column   3
       1     1.891849D-04   2.353959D-04  -1.082615D-04
       2     2.353959D-04   2.928891D-04  -1.347034D-04
       3    -1.082615D-04  -1.347034D-04   6.195181D-05
    ==== End of matrix output ====

 Principal values of diagonalized transition strength matrix:

             a.u.               
 1      -0.00000000
 2      -0.00000000
 3       0.00054403

 Principal axis of diagonalized transition strength matrix:


               Column   1     Column   2     Column   3
       1       0.80701646     0.03119780     0.58970427
       2      -0.55149949     0.39683212     0.73373876
       3       0.21112257     0.91736087    -0.33745563
    ==== End of matrix output ====


 CCSD   oscillator strength matrix for state nr. 14 of symmetry 1
 CCSD  excitation energy:15.22310841


               Column   1     Column   2     Column   3
       1       0.00191999     0.00238897    -0.00109872
       2       0.00238897     0.00297246    -0.00136707
       3      -0.00109872    -0.00136707     0.00062873
    ==== End of matrix output ====

 Principal values of diagonalized oscillator strength matrix:

             a.u.               
 1      -0.00000002
 2      -0.00000000
 3       0.00552120

 Principal axis of diagonalized oscillator strength matrix:


               Column   1     Column   2     Column   3
       1       0.80701646     0.03119780     0.58970427
       2      -0.55149949     0.39683212     0.73373876
       3       0.21112257     0.91736087    -0.33745563
    ==== End of matrix output ====


 CCSD  Transition strength matrix for state nr. 15 of symmetry 1
 CCSD  excitation energy:15.25421711

 Gauge: length

               Column   1     Column   2     Column   3
       1     2.193530D-04  -6.350651D-05   4.207646D-05
       2    -6.350651D-05   1.838623D-05  -1.218187D-05
       3     4.207646D-05  -1.218187D-05   8.071136D-06
    ==== End of matrix output ====

 Principal values of diagonalized transition strength matrix:

             a.u.               
 1      -0.00000000
 2       0.00000000
 3       0.00024581

 Principal axis of diagonalized transition strength matrix:


               Column   1     Column   2     Column   3
       1       0.16864422    -0.28141147     0.94465163
       2       0.87856669    -0.39156365    -0.27349310
       3       0.44685533     0.87606249     0.18120380
    ==== End of matrix output ====


 CCSD   oscillator strength matrix for state nr. 15 of symmetry 1
 CCSD  excitation energy:15.25421711


               Column   1     Column   2     Column   3
       1       0.00223071    -0.00064583     0.00042790
       2      -0.00064583     0.00018698    -0.00012388
       3       0.00042790    -0.00012388     0.00008208
    ==== End of matrix output ====

 Principal values of diagonalized oscillator strength matrix:

             a.u.               
 1      -0.00000000
 2      -0.00000000
 3       0.00249976

 Principal axis of diagonalized oscillator strength matrix:


               Column   1     Column   2     Column   3
       1       0.16864422    -0.28141147     0.94465163
       2       0.87856669    -0.39156365    -0.27349310
       3       0.44685533     0.87606249     0.18120380
    ==== End of matrix output ====

  Total time for    135 linear response residues:     386.25 seconds.
  

 *******************************************************************************
 *******************************************************************************
 *                                                                             *
 *                                                                             *
 *                   SUMMARY OF COUPLED CLUSTER CALCULATION                    *
 *                                                                             *
 *                                                                             *
 *******************************************************************************
 *******************************************************************************

                                                                                
                                                                                
            Total SCF   energy:                  -361.1308569514                
            Total MP2   energy:                  -362.2397735233                
            Total CCSD  energy:                  -362.2804923768                
                                                                                
                                                                                
            Total SCF   energy:                  -361.1308569514                
            Total RSTAR energy:                  -362.2804923768                
            Total CCSD  energy:                  -362.2806428707                
                                                                                
                                                                                
            Total SCF   energy:                  -361.1308569514                
            Total RSTAR energy:                  -362.2806428707                
            Total CCSD  energy:                  -362.2806445136                
                                                                                
                                                                                
            Total SCF   energy:                  -361.1308569514                
            Total RSTAR energy:                  -362.2806445136                
            Total CCSD  energy:                  -362.2806446523                
                                                                                
                                                                                
            Total SCF   energy:                  -361.1308569514                
            Total RSTAR energy:                  -362.2806446523                
            Total CCSD  energy:                  -362.2806446570                
                                                                                
                                                                                
            Total SCF   energy:                  -361.1308569514                
            Total RSTAR energy:                  -362.2806446570                
            Total CCSD  energy:                  -362.2806446572                
            CCSD Total  energy:                  -362.6411366479                
            CCSD E(QM/MM)     :                    -0.3558788423                
                                                                                
                                                                                
                                                                                
 +=============================================================================+
 |  sym. | Exci.  |        CCSD       Excitation energies            | ||T1||  |
 |(spin, |        +------------------------------------------------------------+
 | spat) |        |     Hartree    |       eV.      |     cm-1       |    %    |
 +=============================================================================+
 | ^1A   |    1   |    14.9185870  |     405.95540  |   3274251.360  |  88.67  |
 | ^1A   |    2   |    14.9702298  |     407.36067  |   3285585.630  |  88.96  |
 | ^1A   |    3   |    15.0052497  |     408.31361  |   3293271.614  |  88.85  |
 | ^1A   |    4   |    15.0249734  |     408.85032  |   3297600.474  |  88.93  |
 | ^1A   |    5   |    15.0527135  |     409.60517  |   3303688.711  |  88.37  |
 | ^1A   |    6   |    15.0877835  |     410.55947  |   3311385.698  |  88.19  |
 | ^1A   |    7   |    15.0989580  |     410.86355  |   3313838.212  |  88.12  |
 | ^1A   |    8   |    15.1089782  |     411.13621  |   3316037.394  |  88.07  |
 | ^1A   |    9   |    15.1226781  |     411.50900  |   3319044.163  |  88.33  |
 | ^1A   |   10   |    15.1477151  |     412.19030  |   3324539.164  |  87.88  |
 | ^1A   |   11   |    15.1758562  |     412.95605  |   3330715.422  |  88.21  |
 | ^1A   |   12   |    15.1814425  |     413.10806  |   3331941.464  |  88.00  |
 | ^1A   |   13   |    15.2031198  |     413.69793  |   3336699.090  |  88.19  |
 | ^1A   |   14   |    15.2231084  |     414.24185  |   3341086.075  |  88.29  |
 | ^1A   |   15   |    15.2542171  |     415.08836  |   3347913.646  |  88.07  |
 +=============================================================================+
                                                                                
                                                                                
     Total energies in Hartree:                                                 
             1 ^1A       -347.3666707699                                        
             2 ^1A       -347.3150280339                                        
             3 ^1A       -347.2800081169                                        
             4 ^1A       -347.2602843754                                        
             5 ^1A       -347.2325443274                                        
             6 ^1A       -347.1974742770                                        
             7 ^1A       -347.1862997978                                        
             8 ^1A       -347.1762795903                                        
             9 ^1A       -347.1625797428                                        
            10 ^1A       -347.1375426743                                        
            11 ^1A       -347.1094015692                                        
            12 ^1A       -347.1038153145                                        
            13 ^1A       -347.0821379716                                        
            14 ^1A       -347.0621494000                                        
            15 ^1A       -347.0310406959                                        
                                                                                
                                                                                
 +=============================================================================+
 |  sym. | Exci.  |        CCSD       Length   Gauge Oscillator Strength       |
 |(spin, |        +------------------------------------------------------------+
 | spat) |        | Dipole Strength(a.u.) | Oscillator strength  | Direction   |
 +=============================================================================+
 | ^1A   |    1   |        0.0008937      |      0.0088887       |  (Y,Z)      |
 | ^1A   |    2   |        0.0034258      |      0.0341904       |  (Y,Z)      |
 | ^1A   |    3   |        0.0028880      |      0.0288903       |  (Y,Z)      |
 | ^1A   |    4   |        0.0025387      |      0.0254289       |  (Y,Z)      |
 | ^1A   |    5   |        0.0011973      |      0.0120146       |  (Y,Z)      |
 | ^1A   |    6   |        0.0006597      |      0.0066356       |  (Y,Z)      |
 | ^1A   |    7   |        0.0003483      |      0.0035061       |  (Y,Z)      |
 | ^1A   |    8   |        0.0003062      |      0.0030846       |  (Y,Z)      |
 | ^1A   |    9   |        0.0002173      |      0.0021910       |  (Y,Z)      |
 | ^1A   |   10   |        0.0000350      |      0.0003535       |  (Y,Z)      |
 | ^1A   |   11   |        0.0006246      |      0.0063196       |  (Y,Z)      |
 | ^1A   |   12   |        0.0000841      |      0.0008516       |  (Y,Z)      |
 | ^1A   |   13   |        0.0002088      |      0.0021158       |  (Y,Z)      |
 | ^1A   |   14   |        0.0005440      |      0.0055212       |  (Y,Z)      |
 | ^1A   |   15   |        0.0002458      |      0.0024998       |  (Y,Z)      |
 +=============================================================================+

  1 a.u. =        27.21138 eV.  
  1 a.u. =    219474.62934 cm-1.
  

 *******************************************************************************
 *******************************************************************************
 *                                                                             *
 *                                                                             *
 *                      END OF COUPLED CLUSTER CALCULATION                     *
 *                                                                             *
 *                                                                             *
 *******************************************************************************
 *******************************************************************************


 CPU and wall time for CC :  587673.634   78608.394

 
     Date and time (Linux)  : Mon Dec 10 17:21:34 2018
     Host name              : n-62-23-15                              


                      .-------------------------------------.
                      | End of Coupled Cluster Section (CC) |
                      `-------------------------------------'

  Total CPU  time used in DALTON: 163 hours 29 minutes 51 seconds
  Total wall time used in DALTON:  21 hours 52 minutes 49 seconds

 
     Date and time (Linux)  : Mon Dec 10 17:21:35 2018
     Host name              : n-62-23-15                              
  

 +---------------------------------------------------------+ 
 | List of selected calculated molecular properties (a.u.) | 
 +---------------------------------------------------------+ 

  Properties are read from unit number                      4

 CCSD       properties :
 #  1 1 CCSD/MM  Ground state Energy =    -362.6411366479
 #  2 1 E_QM/MM  Ground state Energy =      -0.3558788423
 #  3 1 Sy: 1 Sp: 1 Exc:  1 E_tot:   -347.3666707699 w:     14.9185870358 E_grs:   -362.2852578056
 #  4 1 Exctot   Excited state Energy =    -347.3666707699
 #  5 1 Sy: 1 Sp: 1 Exc:  2 E_tot:   -347.3150280339 w:     14.9702297718 E_grs:   -362.2852578056
 #  6 1 Exctot   Excited state Energy =    -347.3150280339
 #  7 1 Sy: 1 Sp: 1 Exc:  3 E_tot:   -347.2800081169 w:     15.0052496888 E_grs:   -362.2852578056
 #  8 1 Exctot   Excited state Energy =    -347.2800081169
 #  9 1 Sy: 1 Sp: 1 Exc:  4 E_tot:   -347.2602843754 w:     15.0249734302 E_grs:   -362.2852578056
 # 10 1 Exctot   Excited state Energy =    -347.2602843754
 # 11 1 Sy: 1 Sp: 1 Exc:  5 E_tot:   -347.2325443274 w:     15.0527134782 E_grs:   -362.2852578056
 # 12 1 Exctot   Excited state Energy =    -347.2325443274
 # 13 1 Sy: 1 Sp: 1 Exc:  6 E_tot:   -347.1974742770 w:     15.0877835287 E_grs:   -362.2852578056
 # 14 1 Exctot   Excited state Energy =    -347.1974742770
 # 15 1 Sy: 1 Sp: 1 Exc:  7 E_tot:   -347.1862997978 w:     15.0989580078 E_grs:   -362.2852578056
 # 16 1 Exctot   Excited state Energy =    -347.1862997978
 # 17 1 Sy: 1 Sp: 1 Exc:  8 E_tot:   -347.1762795903 w:     15.1089782153 E_grs:   -362.2852578056
 # 18 1 Exctot   Excited state Energy =    -347.1762795903
 # 19 1 Sy: 1 Sp: 1 Exc:  9 E_tot:   -347.1625797428 w:     15.1226780629 E_grs:   -362.2852578056
 # 20 1 Exctot   Excited state Energy =    -347.1625797428
 # 21 1 Sy: 1 Sp: 1 Exc: 10 E_tot:   -347.1375426743 w:     15.1477151314 E_grs:   -362.2852578056
 # 22 1 Exctot   Excited state Energy =    -347.1375426743
 # 23 1 Sy: 1 Sp: 1 Exc: 11 E_tot:   -347.1094015692 w:     15.1758562364 E_grs:   -362.2852578056
 # 24 1 Exctot   Excited state Energy =    -347.1094015692
 # 25 1 Sy: 1 Sp: 1 Exc: 12 E_tot:   -347.1038153145 w:     15.1814424911 E_grs:   -362.2852578056
 # 26 1 Exctot   Excited state Energy =    -347.1038153145
 # 27 1 Sy: 1 Sp: 1 Exc: 13 E_tot:   -347.0821379716 w:     15.2031198340 E_grs:   -362.2852578056
 # 28 1 Exctot   Excited state Energy =    -347.0821379716
 # 29 1 Sy: 1 Sp: 1 Exc: 14 E_tot:   -347.0621494000 w:     15.2231084057 E_grs:   -362.2852578056
 # 30 1 Exctot   Excited state Energy =    -347.0621494000
 # 31 1 Sy: 1 Sp: 1 Exc: 15 E_tot:   -347.0310406959 w:     15.2542171097 E_grs:   -362.2852578056
 # 32 1 Exctot   Excited state Energy =    -347.0310406959
 # 33 1 |<O|XDIPLEN |i(14.918587)>| =     0.01685932
 # 35 1 |<O|XDIPLEN |i(14.970230)>| =     0.00348795
 # 37 1 |<O|XDIPLEN |i(15.005250)>| =     0.03810246
 # 39 1 |<O|XDIPLEN |i(15.024973)>| =     0.01589934
 # 41 1 |<O|XDIPLEN |i(15.052713)>| =     0.03393113
 # 43 1 |<O|XDIPLEN |i(15.087784)>| =     0.02329813
 # 45 1 |<O|XDIPLEN |i(15.098958)>| =     0.00324743
 # 47 1 |<O|XDIPLEN |i(15.108978)>| =     0.00412501
 # 49 1 |<O|XDIPLEN |i(15.122678)>| =     0.00955265
 # 51 1 |<O|XDIPLEN |i(15.147715)>| =     0.00258486
 # 53 1 |<O|XDIPLEN |i(15.175856)>| =     0.02009341
 # 55 1 |<O|XDIPLEN |i(15.181442)>| =     0.00650487
 # 57 1 |<O|XDIPLEN |i(15.203120)>| =     0.01215658
 # 59 1 |<O|XDIPLEN |i(15.223108)>| =     0.01375445
 # 61 1 |<O|XDIPLEN |i(15.254217)>| =     0.01481057
 # 63 1 |<O|YDIPLEN |i(14.918587)>| =     0.00711758
 # 65 1 |<O|YDIPLEN |i(14.970230)>| =     0.01934433
 # 67 1 |<O|YDIPLEN |i(15.005250)>| =     0.03541196
 # 69 1 |<O|YDIPLEN |i(15.024973)>| =     0.04365239
 # 71 1 |<O|YDIPLEN |i(15.052713)>| =     0.00637117
 # 73 1 |<O|YDIPLEN |i(15.087784)>| =     0.00766370
 # 75 1 |<O|YDIPLEN |i(15.098958)>| =     0.01796398
 # 77 1 |<O|YDIPLEN |i(15.108978)>| =     0.00319847
 # 79 1 |<O|YDIPLEN |i(15.122678)>| =     0.00338726
 # 81 1 |<O|YDIPLEN |i(15.147715)>| =     0.00512186
 # 83 1 |<O|YDIPLEN |i(15.175856)>| =     0.01456232
 # 85 1 |<O|YDIPLEN |i(15.181442)>| =     0.00063022
 # 87 1 |<O|YDIPLEN |i(15.203120)>| =     0.00257236
 # 89 1 |<O|YDIPLEN |i(15.223108)>| =     0.01711400
 # 91 1 |<O|YDIPLEN |i(15.254217)>| =     0.00428792
 # 93 1 |<O|ZDIPLEN |i(14.918587)>| =     0.02363943
 # 95 1 |<O|ZDIPLEN |i(14.970230)>| =     0.05513139
 # 97 1 |<O|ZDIPLEN |i(15.005250)>| =     0.01349874
 # 99 1 |<O|ZDIPLEN |i(15.024973)>| =     0.01950242
 #101 1 |<O|ZDIPLEN |i(15.052713)>| =     0.00231106
 #103 1 |<O|ZDIPLEN |i(15.087784)>| =     0.00762641
 #105 1 |<O|ZDIPLEN |i(15.098958)>| =     0.00388124
 #107 1 |<O|ZDIPLEN |i(15.108978)>| =     0.01670285
 #109 1 |<O|ZDIPLEN |i(15.122678)>| =     0.01070511
 #111 1 |<O|ZDIPLEN |i(15.147715)>| =     0.00144574
 #113 1 |<O|ZDIPLEN |i(15.175856)>| =     0.00297240
 #115 1 |<O|ZDIPLEN |i(15.181442)>| =     0.00643687
 #117 1 |<O|ZDIPLEN |i(15.203120)>| =     0.00737232
 #119 1 |<O|ZDIPLEN |i(15.223108)>| =     0.00787095
 #121 1 |<O|ZDIPLEN |i(15.254217)>| =     0.00284097

 THE_END   
