

     ************************************************************************
     *************** Dalton - An Electronic Structure Program ***************
     ************************************************************************

    This is output from DALTON release Dalton2017.alpha (2016)
         ( Web site: http://daltonprogram.org )

   ----------------------------------------------------------------------------

    NOTE:
     
    Dalton is an experimental code for the evaluation of molecular
    properties using (MC)SCF, DFT, CI, and CC wave functions.
    The authors accept no responsibility for the performance of
    the code or for the correctness of the results.
     
    The code (in whole or part) is provided under a licence and
    is not to be reproduced for further distribution without
    the written permission of the authors or their representatives.
     
    See the home page "http://daltonprogram.org" for further information.
     
    If results obtained with this code are published,
    the appropriate citations would be both of:
     
       K. Aidas, C. Angeli, K. L. Bak, V. Bakken, R. Bast,
       L. Boman, O. Christiansen, R. Cimiraglia, S. Coriani,
       P. Dahle, E. K. Dalskov, U. Ekstroem,
       T. Enevoldsen, J. J. Eriksen, P. Ettenhuber, B. Fernandez,
       L. Ferrighi, H. Fliegl, L. Frediani, K. Hald, A. Halkier,
       C. Haettig, H. Heiberg, T. Helgaker, A. C. Hennum,
       H. Hettema, E. Hjertenaes, S. Hoest, I.-M. Hoeyvik,
       M. F. Iozzi, B. Jansik, H. J. Aa. Jensen, D. Jonsson,
       P. Joergensen, J. Kauczor, S. Kirpekar,
       T. Kjaergaard, W. Klopper, S. Knecht, R. Kobayashi, H. Koch,
       J. Kongsted, A. Krapp, K. Kristensen, A. Ligabue,
       O. B. Lutnaes, J. I. Melo, K. V. Mikkelsen, R. H. Myhre,
       C. Neiss, C. B. Nielsen, P. Norman, J. Olsen,
       J. M. H. Olsen, A. Osted, M. J. Packer, F. Pawlowski,
       T. B. Pedersen, P. F. Provasi, S. Reine, Z. Rinkevicius,
       T. A. Ruden, K. Ruud, V. Rybkin, P. Salek, C. C. M. Samson,
       A. Sanchez de Meras, T. Saue, S. P. A. Sauer,
       B. Schimmelpfennig, K. Sneskov, A. H. Steindal,
       K. O. Sylvester-Hvid, P. R. Taylor, A. M. Teale,
       E. I. Tellgren, D. P. Tew, A. J. Thorvaldsen, L. Thoegersen,
       O. Vahtras, M. A. Watson, D. J. D. Wilson, M. Ziolkowski
       and H. Agren,
       "The Dalton quantum chemistry program system",
       WIREs Comput. Mol. Sci. 2014, 4:269–284 (doi: 10.1002/wcms.1172)
     
    and
     
       Dalton, a Molecular Electronic Structure Program,
       Release Dalton2017.alpha (2016), see http://daltonprogram.org
   ----------------------------------------------------------------------------

    Authors in alphabetical order (major contribution(s) in parenthesis):

  Kestutis Aidas,           Vilnius University,           Lithuania   (QM/MM)
  Celestino Angeli,         University of Ferrara,        Italy       (NEVPT2)
  Keld L. Bak,              UNI-C,                        Denmark     (AOSOPPA, non-adiabatic coupling, magnetic properties)
  Vebjoern Bakken,          University of Oslo,           Norway      (DALTON; geometry optimizer, symmetry detection)
  Radovan Bast,             UiT The Arctic U. of Norway,  Norway      (DALTON installation and execution frameworks)
  Pablo Baudin,             University of Valencia,       Spain       (Cholesky excitation energies)
  Linus Boman,              NTNU,                         Norway      (Cholesky decomposition and subsystems)
  Ove Christiansen,         Aarhus University,            Denmark     (CC module)
  Renzo Cimiraglia,         University of Ferrara,        Italy       (NEVPT2)
  Sonia Coriani,            University of Trieste,        Italy       (CC module, MCD in RESPONS)
  Janusz Cukras,            University of Trieste,        Italy       (MChD in RESPONS)
  Paal Dahle,               University of Oslo,           Norway      (Parallelization)
  Erik K. Dalskov,          UNI-C,                        Denmark     (SOPPA)
  Thomas Enevoldsen,        Univ. of Southern Denmark,    Denmark     (SOPPA)
  Janus J. Eriksen,         Aarhus University,            Denmark     (Polarizable embedding model, TDA)
  Rasmus Faber,             University of Copenhagen,     Denmark     (Vib.avg. NMR with SOPPA, parallel AO-SOPPA)
  Berta Fernandez,          U. of Santiago de Compostela, Spain       (doublet spin, ESR in RESPONS)
  Lara Ferrighi,            Aarhus University,            Denmark     (PCM Cubic response)
  Heike Fliegl,             University of Oslo,           Norway      (CCSD(R12))
  Luca Frediani,            UiT The Arctic U. of Norway,  Norway      (PCM)
  Bin Gao,                  UiT The Arctic U. of Norway,  Norway      (Gen1Int library)
  Christof Haettig,         Ruhr-University Bochum,       Germany     (CC module)
  Kasper Hald,              Aarhus University,            Denmark     (CC module)
  Asger Halkier,            Aarhus University,            Denmark     (CC module)
  Frederik Beyer Hansen,    University of Copenhagen,     Denmark     (Parallel AO-SOPPA)
  Erik D. Hedegaard,        Univ. of Southern Denmark,    Denmark     (Polarizable embedding model, QM/MM)
  Hanne Heiberg,            University of Oslo,           Norway      (geometry analysis, selected one-electron integrals)
  Trygve Helgaker,          University of Oslo,           Norway      (DALTON; ABACUS, ERI, DFT modules, London, and much more)
  Alf Christian Hennum,     University of Oslo,           Norway      (Parity violation)
  Hinne Hettema,            University of Auckland,       New Zealand (quadratic response in RESPONS; SIRIUS supersymmetry)
  Eirik Hjertenaes,         NTNU,                         Norway      (Cholesky decomposition)
  Pi A. B. Haase,           University of Copenhagen,     Denmark     (Triplet AO-SOPPA)
  Maria Francesca Iozzi,    University of Oslo,           Norway      (RPA)
  Brano Jansik              Technical Univ. of Ostrava    Czech Rep.  (DFT cubic response)
  Hans Joergen Aa. Jensen,  Univ. of Southern Denmark,    Denmark     (DALTON; SIRIUS, RESPONS, ABACUS modules, London, and much more)
  Dan Jonsson,              UiT The Arctic U. of Norway,  Norway      (cubic response in RESPONS module)
  Poul Joergensen,          Aarhus University,            Denmark     (RESPONS, ABACUS, and CC modules)
  Maciej Kaminski,          University of Warsaw,         Poland      (CPPh in RESPONS)
  Joanna Kauczor,           Linkoeping University,        Sweden      (Complex polarization propagator (CPP) module)
  Sheela Kirpekar,          Univ. of Southern Denmark,    Denmark     (Mass-velocity & Darwin integrals)
  Wim Klopper,              KIT Karlsruhe,                Germany     (R12 code in CC, SIRIUS, and ABACUS modules)
  Stefan Knecht,            ETH Zurich,                   Switzerland (Parallel CI and MCSCF)
  Rika Kobayashi,           Australian National Univ.,    Australia   (DIIS in CC, London in MCSCF)
  Henrik Koch,              NTNU,                         Norway      (CC module, Cholesky decomposition)
  Jacob Kongsted,           Univ. of Southern Denmark,    Denmark     (Polarizable embedding model, QM/MM)
  Andrea Ligabue,           University of Modena,         Italy       (CTOCD, AOSOPPA)
  Nanna H. List             Univ. of Southern Denmark,    Denmark     (Polarizable embedding model)
  Ola B. Lutnaes,           University of Oslo,           Norway      (DFT Hessian)
  Juan I. Melo,             University of Buenos Aires,   Argentina   (LRESC, Relativistic Effects on NMR Shieldings)
  Kurt V. Mikkelsen,        University of Copenhagen,     Denmark     (MC-SCRF and QM/MM)
  Rolf H. Myhre,            NTNU,                         Norway      (Cholesky, subsystems and ECC2)
  Christian Neiss,          Univ. Erlangen-Nuernberg,     Germany     (CCSD(R12))
  Christian B. Nielsen,     University of Copenhagen,     Denmark     (QM/MM)
  Patrick Norman,           Linkoeping University,        Sweden      (Cubic response and complex frequency response in RESPONS)
  Jeppe Olsen,              Aarhus University,            Denmark     (SIRIUS CI/density modules)
  Jogvan Magnus H. Olsen,   Univ. of Southern Denmark,    Denmark     (Polarizable embedding model, QM/MM)
  Anders Osted,             Copenhagen University,        Denmark     (QM/MM)
  Martin J. Packer,         University of Sheffield,      UK          (SOPPA)
  Filip Pawlowski,          Kazimierz Wielki University,  Poland      (CC3)
  Morten N. Pedersen,       Univ. of Southern Denmark,    Denmark     (Polarizable embedding model)
  Thomas B. Pedersen,       University of Oslo,           Norway      (Cholesky decomposition)
  Patricio F. Provasi,      University of Northeastern,   Argentina   (Analysis of coupling constants in localized orbitals)
  Zilvinas Rinkevicius,     KTH Stockholm,                Sweden      (open-shell DFT, ESR)
  Elias Rudberg,            KTH Stockholm,                Sweden      (DFT grid and basis info)
  Torgeir A. Ruden,         University of Oslo,           Norway      (Numerical derivatives in ABACUS)
  Kenneth Ruud,             UiT The Arctic U. of Norway,  Norway      (DALTON; ABACUS magnetic properties and much more)
  Pawel Salek,              KTH Stockholm,                Sweden      (DALTON; DFT code)
  Claire C. M. Samson       University of Karlsruhe       Germany     (Boys localization, r12 integrals in ERI)
  Alfredo Sanchez de Meras, University of Valencia,       Spain       (CC module, Cholesky decomposition)
  Trond Saue,               Paul Sabatier University,     France      (direct Fock matrix construction)
  Stephan P. A. Sauer,      University of Copenhagen,     Denmark     (SOPPA(CCSD), SOPPA prop., AOSOPPA, vibrational g-factors)
  Bernd Schimmelpfennig,    Forschungszentrum Karlsruhe,  Germany     (AMFI module)
  Kristian Sneskov,         Aarhus University,            Denmark     (Polarizable embedding model, QM/MM)
  Arnfinn H. Steindal,      UiT The Arctic U. of Norway,  Norway      (parallel QM/MM, Polarizable embedding model)
  Casper Steinmann,         Univ. of Southern Denmark,    Denmark     (QFIT, Polarizable embedding model)
  K. O. Sylvester-Hvid,     University of Copenhagen,     Denmark     (MC-SCRF)
  Peter R. Taylor,          VLSCI/Univ. of Melbourne,     Australia   (Symmetry handling ABACUS, integral transformation)
  Andrew M. Teale,          University of Nottingham,     England     (DFT-AC, DFT-D)
  David P. Tew,             University of Bristol,        England     (CCSD(R12))
  Olav Vahtras,             KTH Stockholm,                Sweden      (triplet response, spin-orbit, ESR, TDDFT, open-shell DFT)
  David J. Wilson,          La Trobe University,          Australia   (DFT Hessian and DFT magnetizabilities)
  Hans Agren,               KTH Stockholm,                Sweden      (SIRIUS module, RESPONS, MC-SCRF solvation model)
 --------------------------------------------------------------------------------

     Date and time (Linux)  : Wed Dec  5 05:53:37 2018
     Host name              : n-62-23-10                              

 * Work memory size             :  1280000000 =  9.537 gigabytes.

 * Directories for basis set searches:
   1) /zhome/37/3/129401/NH3NH4/CCSD/AIMD_SAMPLING/nh4_4h2o_nd
   2) /zhome/9a/4/124800/source/dalton/build-mlcc/basis


Compilation information
-----------------------

 Who compiled             | rfaber
 Host                     | hpclogin1
 System                   | Linux-2.6.32-696.1.1.el6.x86_64
 CMake generator          | Unix Makefiles
 Processor                | x86_64
 64-bit integers          | ON
 MPI                      | OFF
 Fortran compiler         | /opt/intel/2016update2/compilers_and_libraries_201
                          | 6.2.181/linux/bin/intel64/ifort
 Fortran compiler version | ifort (IFORT) 16.0.2 20160204
 C compiler               | /opt/intel/2016update2/compilers_and_libraries_201
                          | 6.2.181/linux/bin/intel64/icc
 C compiler version       | icc (ICC) 16.0.2 20160204
 C++ compiler             | /opt/intel/2016update2/compilers_and_libraries_201
                          | 6.2.181/linux/bin/intel64/icpc
 C++ compiler version     | icpc (ICC) 16.0.2 20160204
 Static linking           | OFF
 Last Git revision        | bb4d1599ca5680a9f3980451fc8bbefdba436d59
 Git branch               | mlcc
 Configuration time       | 2017-06-13 16:11:03.928841


   Content of the .dal input file
 ----------------------------------

**DALTON
.RUN WAVE FUNCTIONS
*QMMM
.QMMM
**INTEGRALS
.DIPLEN
**WAVE FUNCTIONS
.CC
*PRINT
!To check the origin of excit
.PRINTL
   0 11
*SCF INP
.THRESH
1.0D-7
*CC INP
.CCSD
.THRLEQ
 1.0D-9
.THRENR
 1.0D-10
.FROIMP
4
0
.PRINT
 1
.MAX IT
 1200
.MAXRED
 1200
.MXLRV
1199
*CCSLV
.CCMM
.MXSLIT
200
.MXINIT
4 5
*CCEXCI
.NCCEXC
 15
.CVSEPARA
1
1
*CCLRSD
.DIPOLE
**END OF DALTON INPUT


   Content of the .mol file
 ----------------------------

ATOMBASIS


Atomtypes=4 Charge=1 Nosymm Angstrom
   7.00000    1    Basis=6-311G**
N          0.000000        0.000000        0.000000
   1.00000    4    Basis=6-311G**
H          0.192323        0.952901       -0.345422
H          0.945781       -0.497833       -0.154842
H         -0.735130       -0.448550       -0.596096
H         -0.324309       -0.009614        0.978507
   8.00000    4    Basis=6-311G**
O          0.614277        2.469389       -1.830281
O         -1.875302       -1.439185       -1.306268
O         -1.392787        1.807925        1.839272
O          2.467599       -0.915059       -1.016996
   1.00000    8    Basis=6-311G**
H          0.077900        2.074244       -2.572455
H          1.580476        2.204560       -1.975984
H         -1.875365       -2.489911       -1.251165
H         -2.679676       -1.183862       -0.815547
H         -0.821826        1.658261        2.664516
H         -1.046736        2.728487        1.541994
H          2.566189       -1.857970       -0.642201
H          3.313694       -0.499036       -0.868771


       *******************************************************************
       *********** Output from DALTON general input processing ***********
       *******************************************************************

 --------------------------------------------------------------------------------
   Overall default print level:    0
   Print level for DALTON.STAT:    1

    HERMIT 1- and 2-electron integral sections will be executed
    "Old" integral transformation used (limited to max 255 basis functions)
    Wave function sections will be executed (SIRIUS module)
 --------------------------------------------------------------------------------


 Changes of defaults for *QMMM  :
 --------------------------------

 +------------------+
 |  WORD: | CHANGE: |
 +------------------+
 |   QMMM |       T |
 +------------------+
 


   ****************************************************************************
   *************** Output of molecule and basis set information ***************
   ****************************************************************************


    The two title cards from your ".mol" input:
    ------------------------------------------------------------------------
 1:                                                                         
 2:                                                                         
    ------------------------------------------------------------------------

  Coordinates are entered in Angstrom and converted to atomic units.
          - Conversion factor : 1 bohr = 0.52917721 A

  Atomic type no.    1
  --------------------
  Nuclear charge:   7.00000
  Number of symmetry independent centers:    1
  Number of basis sets to read;    2
  The basis set is "6-311G**" from the basis set library.
  Basis set file used for this atomic type with Z =   7 :
     "/zhome/9a/4/124800/source/dalton/build-mlcc/basis/6-311G**"

  Info about the basis set file: your basis has no documentation.
  Basis set: 6-311G**                                                                        

  Atomic type no.    2
  --------------------
  Nuclear charge:   1.00000
  Number of symmetry independent centers:    4
  Number of basis sets to read;    2
  The basis set is "6-311G**" from the basis set library.
  Basis set file used for this atomic type with Z =   1 :
     "/zhome/9a/4/124800/source/dalton/build-mlcc/basis/6-311G**"

  Info about the basis set file: your basis has no documentation.
  Basis set: 6-311G**                                                                        

  Atomic type no.    3
  --------------------
  Nuclear charge:   8.00000
  Number of symmetry independent centers:    4
  Number of basis sets to read;    2
  The basis set is "6-311G**" from the basis set library.
  Basis set file used for this atomic type with Z =   8 :
     "/zhome/9a/4/124800/source/dalton/build-mlcc/basis/6-311G**"

  Info about the basis set file: your basis has no documentation.
  Basis set: 6-311G**                                                                        

  Atomic type no.    4
  --------------------
  Nuclear charge:   1.00000
  Number of symmetry independent centers:    8
  Number of basis sets to read;    2
  The basis set is "6-311G**" from the basis set library.
  Basis set file used for this atomic type with Z =   1 :
     "/zhome/9a/4/124800/source/dalton/build-mlcc/basis/6-311G**"

  Info about the basis set file: your basis has no documentation.
  Basis set: 6-311G**                                                                        


                         SYMGRP: Point group information
                         -------------------------------

@    Point group: C1 


                                 Isotopic Masses
                                 ---------------

                           N          14.003074
                           H           1.007825
                           H           1.007825
                           H           1.007825
                           H           1.007825
                           O          15.994915
                           O          15.994915
                           O          15.994915
                           O          15.994915
                           H           1.007825
                           H           1.007825
                           H           1.007825
                           H           1.007825
                           H           1.007825
                           H           1.007825
                           H           1.007825
                           H           1.007825

                       Total mass:    90.076634 amu
                       Natural abundance:  98.500 %

 Center-of-mass coordinates (a.u.):   -0.037255    0.700945   -0.861940


  Atoms and basis sets
  --------------------

  Number of atom types :    4
  Total number of atoms:   17

  label    atoms   charge   prim   cont     basis
  ----------------------------------------------------------------------
  N           1    7.0000    31    18      [11s5p1d|4s3p1d]                                   
  H           4    1.0000     8     6      [5s1p|3s1p]                                        
  O           4    8.0000    31    18      [11s5p1d|4s3p1d]                                   
  H           8    1.0000     8     6      [5s1p|3s1p]                                        
  ----------------------------------------------------------------------
  total:     17   51.0000   251   162
  ----------------------------------------------------------------------
  Spherical harmonic basis used.

  Threshold for neglecting AO integrals:  1.00D-12


  Cartesian Coordinates (a.u.)
  ----------------------------

  Total number of coordinates:   51
  N       :     1  x   0.0000000000    2  y   0.0000000000    3  z   0.0000000000
  H       :     4  x   0.3634377975    5  y   1.8007219142    6  z  -0.6527529775
  H       :     7  x   1.7872670642    8  y  -0.9407680260    9  z  -0.2926089726
  H       :    10  x  -1.3891943663   11  y  -0.8476366534   12  z  -1.1264581842
  H       :    13  x  -0.6128551899   14  y  -0.0181678270   15  z   1.8491102414
  O       :    16  x   1.1608152949   17  y   4.6664689061   18  z  -3.4587298218
  O       :    19  x  -3.5438071817   20  y  -2.7196654932   21  z  -2.4684887658
  O       :    22  x  -2.6319859805   23  y   3.4164831045   24  z   3.4757203494
  O       :    25  x   4.6630862963   26  y  -1.7292108982   27  z  -1.9218439102
  H       :    28  x   0.1472096651   29  y   3.9197530764   30  z  -4.8612354189
  H       :    31  x   2.9866667871   32  y   4.1660146261   33  z  -3.7340685874
  H       :    34  x  -3.5439262344   35  y  -4.7052498656   36  z  -2.3643591872
  H       :    37  x  -5.0638537437   38  y  -2.2371749498   39  z  -1.5411604721
  H       :    40  x  -1.5530260624   41  y   3.1336591338   42  z   5.0352054957
  H       :    43  x  -1.9780443652   44  y   5.1560931656   45  z   2.9139463464
  H       :    46  x   4.8493943950   47  y  -3.5110544485   48  z  -1.2135840072
  H       :    49  x   6.2619741220   50  y  -0.9430413665   51  z  -1.6417392553

  Max    interatomic separation is    6.2337 Angstrom (   11.7801 Bohr)
  between atoms   16 and   15, "H     " and "H     ".

  Min HX interatomic separation is    0.9544 Angstrom (    1.8036 Bohr)

  Min YX interatomic separation is    2.7008 Angstrom (    5.1038 Bohr)


  Bond distances (Angstrom):
  --------------------------

                  atom 1     atom 2       distance
                  ------     ------       --------
  bond distance:  H          N            1.031661
  bond distance:  H          N            1.079961
  bond distance:  H          N            1.047351
  bond distance:  H          N            1.030895
  bond distance:  H          O            0.997327
  bond distance:  H          O            1.012376
  bond distance:  H          O            1.052170
  bond distance:  H          O            0.976225
  bond distance:  H          O            1.014605
  bond distance:  H          O            1.027404
  bond distance:  H          O            1.019447
  bond distance:  H          O            0.954423


  Bond angles (degrees):
  ----------------------

                  atom 1     atom 2     atom 3         angle
                  ------     ------     ------         -----
  bond angle:     H          N          H            102.387
  bond angle:     H          N          H            109.625
  bond angle:     H          N          H            112.648
  bond angle:     H          N          H            109.613
  bond angle:     H          N          H            114.035
  bond angle:     H          N          H            108.386
  bond angle:     H          O          H            107.610
  bond angle:     H          O          H            103.580
  bond angle:     H          O          H            100.252
  bond angle:     H          O          H            105.090




 Principal moments of inertia (u*A**2) and principal axes
 --------------------------------------------------------

   IA     316.200865          0.702377   -0.454163   -0.548090
   IB     387.003466          0.550639    0.834625    0.014050
   IC     495.000345          0.451068   -0.311668    0.836302


 Rotational constants
 --------------------

               A                   B                   C

           1598.2847           1305.8772           1020.9670 MHz
            0.053313            0.043559            0.034056 cm-1


@  Nuclear repulsion energy :  199.180885003396 Hartree


                     .---------------------------------------.
                     | Starting in Integral Section (HERMIT) |
                     `---------------------------------------'



 ***************************************************************************************
 ****************** Output from **INTEGRALS input processing (HERMIT) ******************
 ***************************************************************************************



    *************************************************************************
    ****************** Output from HERMIT input processing ******************
    *************************************************************************


 Default print level:        1

 * Nuclear model: Point charge

 Calculation of one- and two-electron Hamiltonian integrals.

 The following one-electron property integrals are calculated as requested:
          - overlap integrals
          - dipole length integrals

 Center of mass  (bohr):     -0.037254723923      0.700945311757     -0.861939882779
 Operator center (bohr):      0.000000000000      0.000000000000      0.000000000000
 Gauge origin    (bohr):      0.000000000000      0.000000000000      0.000000000000
 Dipole origin   (bohr):      0.000000000000      0.000000000000      0.000000000000
 
  *********************************** 
  QMMM electrostatic potential: 
  Multipole order                                    0
  Isotropic polarization  
  *********************************** 
 
  ---------------- 
  QMMM information 
  ---------------- 
 
  MM coordinates in au 
  -------------------- 
     1     -9.286566      5.965837     -8.763202
     2    -10.099106      7.468568     -9.537204
     3     -8.747926      4.984865    -10.209128
     4      7.051160      5.363009     -3.103945
     5      8.149686      6.566160     -2.407689
     6      7.823024      4.496758     -4.557967
     7     10.241123      9.314594     -1.723400
     8     10.419772      9.002519      0.156677
     9     11.879888      8.620689     -2.357059
    10     11.460410     -5.803723    -11.171605
    11     11.051670     -6.324120    -12.834521
    12     13.186641     -5.474852    -11.244381
    13      6.585650      3.427935      2.136732
    14      8.146127      4.208549      2.651530
    15      5.956766      3.940697      0.552870
    16     -8.549195      6.641424     -3.278922
    17     -8.876185      4.771224     -3.490286
    18     -7.605983      7.201510     -4.839840
    19      3.077857     -8.404345      5.057595
    20      1.320697     -8.693075      5.649297
    21      4.173984     -8.256926      6.558867
    22      9.233795     -1.173951     -9.376230
    23      7.401205     -1.731722     -9.448449
    24     10.209124     -2.753327     -9.670613
    25     11.098993    -11.299190      4.960144
    26     12.392021    -10.140119      4.270645
    27     11.942999    -12.707575      5.858106
    28      1.425279      6.898447     -9.564235
    29      1.971742      8.012830    -10.971455
    30      0.360065      5.629092    -10.392692
    31     -6.336847     -0.053789      1.871194
    32     -8.042690      0.113574      2.602688
    33     -5.129936      1.252601      2.379617
    34      8.808798     -9.085042     -8.553932
    35     10.141937     -7.990457     -9.235067
    36      8.570821     -8.766398     -6.774851
    37      3.731355     -2.430190     -7.364928
    38      3.059434     -4.180280     -7.115541
    39      4.376649     -2.008104     -5.586766
    40     -9.170319      1.434272     -3.051205
    41     -8.054655      1.332423     -4.515608
    42     -8.124872      1.214555     -1.468047
    43    -10.554179     -5.300247     -1.558221
    44    -11.993961     -6.526131     -2.019889
    45    -11.333542     -3.673835     -1.939216
    46     11.014660      4.981785      4.505591
    47     12.584357      5.937527      4.041015
    48     10.612513      5.784633      6.122595
    49     10.293814      9.510941    -10.281970
    50      9.089362      8.222234    -10.056087
    51      9.577603     11.071070     -9.696279
    52     -0.291161      7.531233      0.900371
    53      1.216521      7.083081      2.055140
    54      0.342228      6.993954     -0.847905
    55    -11.050790      0.054562      3.240686
    56    -11.310619     -1.250893      4.441180
    57    -11.609404      1.730103      3.954605
    58      3.098225     10.839773     -5.971880
    59      4.477033      9.710549     -6.014955
    60      1.431592      9.854808     -5.952416
    61     -6.019513     -4.318209      5.659864
    62     -7.355362     -5.194613      4.721303
    63     -5.431447     -3.003332      4.431415
    64      0.273321     -2.189431      5.461390
    65      2.082214     -1.275108      5.383208
    66      0.268216     -3.752847      4.360732
    67      0.536136      3.894024      8.504293
    68      1.388446      2.628815      9.566478
    69      1.432800      5.479291      8.409293
    70     -7.453348     -9.809139     -3.970883
    71     -7.226120    -10.096992     -5.825874
    72     -8.390352     -8.176563     -3.707405
    73     -2.015393      9.302948     -6.307218
    74     -2.757022      9.670337     -4.641120
    75     -2.203742      7.540850     -6.870413
    76    -10.379950     -5.926351      3.650104
    77    -11.816157     -5.563112      4.685627
    78    -10.689043     -5.655977      1.828699
    79     -3.578113     -6.447090     -9.368370
    80     -4.464276     -8.133243     -9.068378
    81     -1.819525     -6.702123     -8.700690
    82      6.614760     10.896129      2.960479
    83      8.502838     11.347012      3.034534
    84      5.735685     12.481150      3.540145
    85     -6.010178     -0.041198     -7.127215
    86     -6.723869     -1.172095     -8.357915
    87     -5.125425     -1.229000     -5.929978
    88      4.745151      0.118308      5.441276
    89      4.896044      1.209797      3.987022
    90      4.991050      1.285601      6.897374
    91      5.222485     -9.284247     11.453736
    92      4.404179    -10.910761     11.268605
    93      6.322597     -9.359832     12.980912
    94      1.100928      0.971646    -10.446228
    95      0.424965     -0.582646    -11.294689
    96      2.456039      0.103139     -9.355669
    97      6.452767      3.533121      8.330300
    98      6.452772      4.343793     10.031008
    99      8.213381      2.982105      8.204543
   100     -2.795939     -8.796284      3.800364
   101     -2.646223     -8.286625      1.981412
   102     -4.217111     -7.809223      4.535033
   103     -5.784382    -11.483308     -9.164284
   104     -6.109579    -12.055117    -10.837672
   105     -4.414812    -12.580559     -8.425472
   106      9.074176     -7.720368      8.217364
   107      9.492884     -9.162142      7.189187
   108      7.787756     -8.481191      9.401588
   109     -6.139832      8.500973      9.412577
   110     -5.266230      6.955505     10.099441
   111     -4.904370      9.236796      8.222780
   112     -2.400536     -7.606533     -1.630320
   113     -0.748354     -8.584882     -1.594861
   114     -3.624151     -8.720939     -2.405266
   115     11.087983      1.622430      9.057941
   116     12.919904      1.433289      8.958557
   117     10.469986      0.568908     10.346986
   118      7.737425     -3.946640      4.453106
   119      7.900427     -5.272077      5.781080
   120      6.671242     -2.425932      5.108912
   121      2.579862      9.226157      9.319054
   122      0.883662      9.778547      8.657366
   123      3.588686      8.613789      7.941723
   124      9.651731     -0.816726     -1.146440
   125     10.331278     -0.185843      0.552104
   126     10.473217      0.256251     -2.403768
   127     -4.321609      3.952670     10.487268
   128     -2.814738      4.004681      9.439955
   129     -3.919196      3.771185     12.358588
   130     -7.434676      0.398207      8.879967
   131     -5.869070      1.299910      9.361607
   132     -7.074220     -0.945874      7.677644
   133     10.175667      2.778568     -6.684137
   134     10.289765      1.184131     -7.727137
   135     11.523304      3.969908     -7.472495
   136      3.503448      7.325829      4.434454
   137      4.840541      8.682258      4.035470
   138      4.470884      5.783484      4.154996
   139     -2.019118      3.077427     -7.222265
   140     -0.998119      2.015176     -8.377902
   141     -3.574574      1.983245     -6.793981
   142     -0.816706     -2.853853     10.339361
   143     -1.675660     -4.350227     11.138879
   144     -0.636399     -2.922229      8.443922
   145      1.507578     -7.013802     -7.855718
   146      1.633732     -8.269271     -6.551824
   147      2.652788     -7.824490     -9.132534
   148     -7.621456     -3.075025    -10.660100
   149     -5.808187     -3.839976    -10.829170
   150     -7.550295     -1.947093    -12.206327
   151      6.618324      5.710990    -10.256747
   152      4.946645      6.276661     -9.646415
   153      7.483773      4.771400     -8.853305
   154    -11.279660      8.419155      8.549841
   155     -9.346474      8.297702      8.806532
   156    -11.968340      9.554682      9.799063
   157      9.315116     -8.665044     -2.411396
   158      8.035864     -8.064331     -1.135013
   159      9.889192    -10.278243     -1.676918
   160      5.552760     -6.333474      0.646827
   161      5.846306     -5.807922      2.476046
   162      4.502773     -7.860924      0.623906
   163     -7.774662    -11.211329      1.106406
   164     -8.372428    -11.389030     -0.705110
   165     -6.056293    -10.806524      0.820016
   166     -3.908188      9.774357     -1.636735
   167     -5.474478      8.851836     -1.748652
   168     -2.909589      8.877595     -0.408396
   169     -1.338742     10.401017      6.403186
   170     -0.589379      9.288136      5.076783
   171     -2.201247     11.724146      5.430627
   172     -8.093397      7.853278      3.140489
   173     -7.833758      9.714054      2.528951
   174     -6.425303      7.208398      3.701716
   175      2.169770    -10.512569     -0.861035
   176      1.934358    -11.868117      0.471211
   177      2.674875    -11.527911     -2.334218
 
  MM charges 
  ---------- 
     1     -0.674440
     2      0.337220
     3      0.337220
     4     -0.674440
     5      0.337220
     6      0.337220
     7     -0.674440
     8      0.337220
     9      0.337220
    10     -0.674440
    11      0.337220
    12      0.337220
    13     -0.674440
    14      0.337220
    15      0.337220
    16     -0.674440
    17      0.337220
    18      0.337220
    19     -0.674440
    20      0.337220
    21      0.337220
    22     -0.674440
    23      0.337220
    24      0.337220
    25     -0.674440
    26      0.337220
    27      0.337220
    28     -0.674440
    29      0.337220
    30      0.337220
    31     -0.674440
    32      0.337220
    33      0.337220
    34     -0.674440
    35      0.337220
    36      0.337220
    37     -0.674440
    38      0.337220
    39      0.337220
    40     -0.674440
    41      0.337220
    42      0.337220
    43     -0.674440
    44      0.337220
    45      0.337220
    46     -0.674440
    47      0.337220
    48      0.337220
    49     -0.674440
    50      0.337220
    51      0.337220
    52     -0.674440
    53      0.337220
    54      0.337220
    55     -0.674440
    56      0.337220
    57      0.337220
    58     -0.674440
    59      0.337220
    60      0.337220
    61     -0.674440
    62      0.337220
    63      0.337220
    64     -0.674440
    65      0.337220
    66      0.337220
    67     -0.674440
    68      0.337220
    69      0.337220
    70     -0.674440
    71      0.337220
    72      0.337220
    73     -0.674440
    74      0.337220
    75      0.337220
    76     -0.674440
    77      0.337220
    78      0.337220
    79     -0.674440
    80      0.337220
    81      0.337220
    82     -0.674440
    83      0.337220
    84      0.337220
    85     -0.674440
    86      0.337220
    87      0.337220
    88     -0.674440
    89      0.337220
    90      0.337220
    91     -0.674440
    92      0.337220
    93      0.337220
    94     -0.674440
    95      0.337220
    96      0.337220
    97     -0.674440
    98      0.337220
    99      0.337220
   100     -0.674440
   101      0.337220
   102      0.337220
   103     -0.674440
   104      0.337220
   105      0.337220
   106     -0.674440
   107      0.337220
   108      0.337220
   109     -0.674440
   110      0.337220
   111      0.337220
   112     -0.674440
   113      0.337220
   114      0.337220
   115     -0.674440
   116      0.337220
   117      0.337220
   118     -0.674440
   119      0.337220
   120      0.337220
   121     -0.674440
   122      0.337220
   123      0.337220
   124     -0.674440
   125      0.337220
   126      0.337220
   127     -0.674440
   128      0.337220
   129      0.337220
   130     -0.674440
   131      0.337220
   132      0.337220
   133     -0.674440
   134      0.337220
   135      0.337220
   136     -0.674440
   137      0.337220
   138      0.337220
   139     -0.674440
   140      0.337220
   141      0.337220
   142     -0.674440
   143      0.337220
   144      0.337220
   145     -0.674440
   146      0.337220
   147      0.337220
   148     -0.674440
   149      0.337220
   150      0.337220
   151     -0.674440
   152      0.337220
   153      0.337220
   154     -0.674440
   155      0.337220
   156      0.337220
   157     -0.674440
   158      0.337220
   159      0.337220
   160     -0.674440
   161      0.337220
   162      0.337220
   163     -0.674440
   164      0.337220
   165      0.337220
   166     -0.674440
   167      0.337220
   168      0.337220
   169     -0.674440
   170      0.337220
   171      0.337220
   172     -0.674440
   173      0.337220
   174      0.337220
   175     -0.674440
   176      0.337220
   177      0.337220
 
  MM isotropic polarizabilities in au 
  ----------------------------------- 
     1      5.739350
     2      2.308390
     3      2.308390
     4      5.739350
     5      2.308390
     6      2.308390
     7      5.739350
     8      2.308390
     9      2.308390
    10      5.739350
    11      2.308390
    12      2.308390
    13      5.739350
    14      2.308390
    15      2.308390
    16      5.739350
    17      2.308390
    18      2.308390
    19      5.739350
    20      2.308390
    21      2.308390
    22      5.739350
    23      2.308390
    24      2.308390
    25      5.739350
    26      2.308390
    27      2.308390
    28      5.739350
    29      2.308390
    30      2.308390
    31      5.739350
    32      2.308390
    33      2.308390
    34      5.739350
    35      2.308390
    36      2.308390
    37      5.739350
    38      2.308390
    39      2.308390
    40      5.739350
    41      2.308390
    42      2.308390
    43      5.739350
    44      2.308390
    45      2.308390
    46      5.739350
    47      2.308390
    48      2.308390
    49      5.739350
    50      2.308390
    51      2.308390
    52      5.739350
    53      2.308390
    54      2.308390
    55      5.739350
    56      2.308390
    57      2.308390
    58      5.739350
    59      2.308390
    60      2.308390
    61      5.739350
    62      2.308390
    63      2.308390
    64      5.739350
    65      2.308390
    66      2.308390
    67      5.739350
    68      2.308390
    69      2.308390
    70      5.739350
    71      2.308390
    72      2.308390
    73      5.739350
    74      2.308390
    75      2.308390
    76      5.739350
    77      2.308390
    78      2.308390
    79      5.739350
    80      2.308390
    81      2.308390
    82      5.739350
    83      2.308390
    84      2.308390
    85      5.739350
    86      2.308390
    87      2.308390
    88      5.739350
    89      2.308390
    90      2.308390
    91      5.739350
    92      2.308390
    93      2.308390
    94      5.739350
    95      2.308390
    96      2.308390
    97      5.739350
    98      2.308390
    99      2.308390
   100      5.739350
   101      2.308390
   102      2.308390
   103      5.739350
   104      2.308390
   105      2.308390
   106      5.739350
   107      2.308390
   108      2.308390
   109      5.739350
   110      2.308390
   111      2.308390
   112      5.739350
   113      2.308390
   114      2.308390
   115      5.739350
   116      2.308390
   117      2.308390
   118      5.739350
   119      2.308390
   120      2.308390
   121      5.739350
   122      2.308390
   123      2.308390
   124      5.739350
   125      2.308390
   126      2.308390
   127      5.739350
   128      2.308390
   129      2.308390
   130      5.739350
   131      2.308390
   132      2.308390
   133      5.739350
   134      2.308390
   135      2.308390
   136      5.739350
   137      2.308390
   138      2.308390
   139      5.739350
   140      2.308390
   141      2.308390
   142      5.739350
   143      2.308390
   144      2.308390
   145      5.739350
   146      2.308390
   147      2.308390
   148      5.739350
   149      2.308390
   150      2.308390
   151      5.739350
   152      2.308390
   153      2.308390
   154      5.739350
   155      2.308390
   156      2.308390
   157      5.739350
   158      2.308390
   159      2.308390
   160      5.739350
   161      2.308390
   162      2.308390
   163      5.739350
   164      2.308390
   165      2.308390
   166      5.739350
   167      2.308390
   168      2.308390
   169      5.739350
   170      2.308390
   171      2.308390
   172      5.739350
   173      2.308390
   174      2.308390
   175      5.739350
   176      2.308390
   177      2.308390


     ************************************************************************
     ************************** Output from HERINT **************************
     ************************************************************************



                      Nuclear contribution to dipole moments
                      --------------------------------------

                 au               Debye          C m (/(10**-30)

      x     -0.56008270        -1.42358813        -4.74857886
      y     34.04575373        86.53566884       288.65192080
      z    -42.61644217      -108.32018452      -361.31724343


  Time used in HUCKEL     is       0.12 seconds
  Time used in OVERLAP    is       0.15 seconds
  Time used in POPOVLP    is       0.25 seconds
  Time used in DIPLEN     is       0.21 seconds
  Time used in QUADRUP    is       0.44 seconds
  Time used in KINENE     is       0.25 seconds

 Threshold for neglecting two-electron integrals:  1.00D-12
 HERMIT - Number of two-electron integrals written:    37566971 ( 43.1% )
 HERMIT - Megabytes written:                            430.161

  Time used in TWOINT     is      16.99 seconds
  Total CPU  time used in HERMIT:  18.47 seconds
  Total wall time used in HERMIT:   7.60 seconds


                        .----------------------------------.
                        | End of Integral Section (HERMIT) |
                        `----------------------------------'



                   .--------------------------------------------.
                   | Starting in Wave Function Section (SIRIUS) |
                   `--------------------------------------------'

NCCEXCI for singlet:   15
 CCSD_INPUT: core-val requested
 Requested number of core orbs per sym
                     1
 Indices of requested core orbs
                     1

 *** Output from Huckel module :

     Using EWMO model:          T
     Using EHT  model:          F
     Number of Huckel orbitals each symmetry:   37

 EWMO - Energy Weighted Maximum Overlap - is a Huckel type method,
        which normally is better than Extended Huckel Theory.
 Reference: Linderberg and Ohrn, Propagators in Quantum Chemistry (Wiley, 1973)

 Huckel EWMO eigenvalues for symmetry :  1
          -20.684653     -20.684334     -20.684280     -20.684076     -15.675337
           -1.798408      -1.611215      -1.591843      -1.578155      -1.478651
           -0.817764      -0.802564      -0.792617      -0.778731      -0.761828
           -0.753023      -0.719276      -0.696622      -0.681866      -0.666441
           -0.661620      -0.611556      -0.588479      -0.561345      -0.553238
           -0.266337      -0.249775      -0.247697      -0.240214      -0.189201
           -0.186151      -0.182570      -0.180917      -0.175099      -0.152382
           -0.146326      -0.141208

 **********************************************************************
 *SIRIUS* a direct, restricted step, second order MCSCF program       *
 **********************************************************************

 
     Date and time (Linux)  : Wed Dec  5 05:53:46 2018
     Host name              : n-62-23-10                              

 Title lines from ".mol" input file:
                                                                             
                                                                             

 Print level on unit LUPRI =   2 is   0
 Print level on unit LUW4  =   2 is  11

@    (Integral direct) CC calculation.

@    This is a combination run starting with
@              a restricted, closed shell Hartree-Fock calculation


 Initial molecular orbitals are obtained according to
 ".MOSTART EWMO  " input option

@    QM part is embedded in an environment :

@         Model: QMMM

     Wave function specification
     ============================

     For the specification of the Coupled Cluster: see later.

@    Wave function type        --- CC ---
@    Number of closed shell electrons          50
@    Number of electrons in active shells       0
@    Total charge of the molecule               1

@    Spin multiplicity and 2 M_S                1         0
@    Total number of symmetries                 1 (point group: C1 )
@    Reference state symmetry                   1 (irrep name : A  )

     Orbital specifications
     ======================
@    Abelian symmetry species          All |    1
@                                          |  A  
                                       --- |  ---
@    Occupied SCF orbitals              25 |   25
@    Secondary orbitals                137 |  137
@    Total number of orbitals          162 |  162
@    Number of basis functions         162 |  162

     Optimization information
     ========================
@    Number of configurations                 1
@    Number of orbital rotations           3425
     ------------------------------------------
@    Total number of variables             3426

     Maximum number of Fock   iterations      0
     Maximum number of DIIS   iterations     60
     Maximum number of QC-SCF iterations     60
     Threshold for SCF convergence     1.00D-07


 Changes of defaults for CC:
 ---------------------------


 -Implicit frozen core calculation
 -Excitation energies calculated
 -One-photon absorption strengths will be calculated
 -Oscillator strengths calculated
  
* Read MO coefficients from SIRIUS.RST with label "NEWORB  " and header info:  5Dec18  REORTHO 


 ***********************************************
 ***** DIIS acceleration of SCF iterations *****
 ***********************************************

 C1-DIIS algorithm; max error vectors =    8
 -----------------------------------------------------------------------------

 *** DIIS iteration number    1
 RDSUPM called. NFMAT, ISYMDM(1:NFMAT)                     1
                     1

Calculating AOSUPINT
     (Precalculated two-electron integrals are transformed to P-supermatrix elements.
      Threshold for discarding integrals :  1.00D-12 )
  CPU  time used in FORMSUP    is   9.39 seconds
  WALL time used in FORMSUP    is   9.47 seconds

 ITDIIS, energy, error norm, change in energy, scr.thr., difden:
@ DIIS iter.   1    -360.210205999        3.95525D+00   -3.60D+02  -20    F

 (DIIS_RED) Control Parameters C2DIIS =         F NEVC =    1


 (DIIS_RED) B matrix:

               Column   1
       1      15.64400512
    ==== End of matrix output ====

 DIIS C vector; C2DIIS = F, LAMBDA = -1.56D+01
    1.000000
* Read MO coefficients from SIRIUS.RST with label "NEWORB  " and header info:  5Dec18  DIIS   1
      Virial theorem: -V/T =      2.003270
@      MULPOP N       0.13; H       0.16; H       0.17; H       0.18; H       0.16; O      -0.62; O      -0.57; O      -0.63; O      -0.58; H       0.33; 
@             H       0.33; H       0.31; H       0.33; H       0.33; H       0.33; H       0.32; H       0.32; 
   1  Level shift: doubly occupied orbital energies shifted by -2.00D-01

 DIIS Fock eigenvalues in symmetry 1
      -20.83696      -20.82555      -20.77865      -20.77076      -16.47682
       -1.73198       -1.64781       -1.63644       -1.59548       -1.59419
       -1.21695       -1.20365       -1.19016       -1.02288       -1.00377
       -0.97681       -0.96462       -0.89598       -0.88931       -0.86253
       -0.85854       -0.85209       -0.85068       -0.80717       -0.80539
       -0.00737        0.06209        0.06443        0.07770        0.11803
        0.13012        0.16387        0.16787        0.18028        0.19060
        0.19899        0.22869        0.26791        0.27091        0.30274
        0.43021        0.45325        0.45656        0.47577        0.48689
        0.50219        0.51254        0.51723        0.53805        0.65043
        0.69316        0.70256        0.83263        0.86292        0.88889
        0.89382        0.91887        0.95157        0.97130        0.98831
        1.00826        1.02144        1.03015        1.05514        1.05888
        1.10181        1.12203        1.23198        1.25894        1.29512
        1.33554        1.35799        1.37485        1.37762        1.38267
        1.41422        1.41889        1.42847        1.46360        1.51137
        1.54612        1.55888        1.57206        1.59078        1.65657
        1.67893        1.75665        1.76195        1.77665        1.79360
        1.80505        1.91495        1.98003        2.04441        2.04994
        2.09090        2.10890        2.11572        2.14798        2.17793
        2.20349        2.22084        2.24485        2.24757        2.38365
        2.43455        2.49244        2.50726        2.53290        2.54795
        2.58615        2.61605        2.65709        2.68082        2.69883
        2.70937        2.71586        2.73145        2.95722        2.96297
        3.03982        3.04805        3.31039        3.35154        3.36062
        3.37460        3.38211        3.41441        3.41952        3.43713
        3.51007        3.53114        3.54079        3.54602        3.83932
        3.86020        3.86297        3.93482        4.08592        4.09052
        4.11199        4.12013        4.63669        4.73879        4.78557
        5.25256        5.27489        5.31454        5.36093        5.66799
        5.68136        5.69869        5.72562        5.90203        5.91538
        5.98989        5.99267       36.33147       51.45096       51.45557
       51.46593       51.48110
 Time used in FCKEIG, thr_jaco:   4.74D-01  4.70D-02  1.69D-04
 CPU and wall times used in FCKEIG, THR_FCKEIG:   4.74D-01  4.70D-02  3.96D-02
 -----------------------------------------------------------------------------

 *** DIIS iteration number    2
 RDSUPM called. NFMAT, ISYMDM(1:NFMAT)                     1
                     1

 ITDIIS, energy, error norm, change in energy, scr.thr., difden:
@ DIIS iter.   2    -361.091560890        1.14892D+00   -8.81D-01  -20    F

 (DIIS_RED) Control Parameters C2DIIS =         F NEVC =    2


 (DIIS_RED) B matrix:

               Column   1     Column   2
       1      15.64400512
       2       0.59664849     1.32002852
    ==== End of matrix output ====

 DIIS C vector; C2DIIS = F, LAMBDA = -1.29D+00
    0.045869    0.954131
* Read MO coefficients from SIRIUS.RST with label "NEWORB  " and header info:  5Dec18  DIIS   2
      Virial theorem: -V/T =      2.003130
@      MULPOP N      -0.55; H       0.30; H       0.33; H       0.35; H       0.34; O      -0.58; O      -0.57; O      -0.55; O      -0.60; H       0.35; 
@             H       0.28; H       0.34; H       0.30; H       0.29; H       0.30; H       0.34; H       0.33; 
   2  Level shift: doubly occupied orbital energies shifted by -1.00D-01

 DIIS Fock eigenvalues in symmetry 1
      -20.78545      -20.76680      -20.76277      -20.74675      -15.63981
       -1.53373       -1.53206       -1.50067       -1.49351       -1.38077
       -0.89998       -0.88990       -0.88055       -0.87286       -0.85881
       -0.85138       -0.84553       -0.77611       -0.77204       -0.76686
       -0.75247       -0.72326       -0.71064       -0.69409       -0.68547
        0.06138        0.09996        0.10665        0.13269        0.17399
        0.18076        0.18668        0.20872        0.22671        0.24104
        0.27206        0.29796        0.34794        0.37062        0.38905
        0.47028        0.48701        0.49289        0.50846        0.52939
        0.54137        0.55320        0.57867        0.61515        0.80124
        0.82146        0.83937        0.87790        0.90258        0.93072
        0.94682        0.96519        0.99395        1.01305        1.03095
        1.04460        1.05469        1.06802        1.08682        1.13930
        1.20016        1.23322        1.27322        1.31273        1.34553
        1.38574        1.40651        1.42086        1.43335        1.43812
        1.46973        1.47425        1.49203        1.51543        1.60136
        1.62240        1.64135        1.65096        1.67810        1.77196
        1.77912        1.81464        1.82340        1.84117        1.85379
        1.91154        2.01928        2.06308        2.09139        2.10099
        2.14239        2.15518        2.24425        2.24786        2.26913
        2.28384        2.29703        2.30637        2.36438        2.49244
        2.54057        2.57349        2.58779        2.62052        2.64371
        2.67814        2.70129        2.73293        2.75837        2.76816
        2.79615        2.93787        2.94502        3.13655        3.19881
        3.27279        3.31915        3.34814        3.37335        3.38832
        3.38860        3.40001        3.42966        3.48246        3.52914
        3.54006        3.54542        3.56660        3.57792        3.85718
        3.86741        3.89275        3.95186        4.10281        4.10605
        4.12245        4.14363        5.03704        5.10103        5.17874
        5.26868        5.28856        5.30327        5.35142        5.64752
        5.67215        5.71448        5.72748        5.89070        5.92304
        5.99449        6.02178       37.05160       51.37281       51.39767
       51.41577       51.42764
 Time used in FCKEIG, thr_jaco:   3.26D-01  3.30D-02  4.91D-05
 CPU and wall times used in FCKEIG, THR_FCKEIG:   3.26D-01  3.30D-02  1.15D-02
 -----------------------------------------------------------------------------

 *** DIIS iteration number    3
 RDSUPM called. NFMAT, ISYMDM(1:NFMAT)                     1
                     1

 ITDIIS, energy, error norm, change in energy, scr.thr., difden:
@ DIIS iter.   3    -361.167158844        3.77620D-01   -7.56D-02  -20    F

 (DIIS_RED) Control Parameters C2DIIS =         F NEVC =    3


 (DIIS_RED) B matrix:

               Column   1     Column   2     Column   3
       1      15.64400512
       2       0.59664849     1.32002852
       3       0.81891655    -0.01279881     0.14259662
    ==== End of matrix output ====

 DIIS C vector; C2DIIS = F, LAMBDA = -9.47D-02
   -0.047317    0.102291    0.945027
* Read MO coefficients from SIRIUS.RST with label "NEWORB  " and header info:  5Dec18  DIIS   3
      Virial theorem: -V/T =      2.003658
@      MULPOP N      -0.35; H       0.25; H       0.29; H       0.33; H       0.30; O      -0.64; O      -0.64; O      -0.61; O      -0.67; H       0.38; 
@             H       0.30; H       0.37; H       0.32; H       0.31; H       0.33; H       0.37; H       0.36; 
   3  Level shift: doubly occupied orbital energies shifted by -5.00D-02

 DIIS Fock eigenvalues in symmetry 1
      -20.68239      -20.67888      -20.66429      -20.65501      -15.79506
       -1.46526       -1.46006       -1.42972       -1.42509       -1.38081
       -0.86660       -0.85412       -0.84018       -0.81633       -0.80950
       -0.78933       -0.77740       -0.70890       -0.70392       -0.69542
       -0.68121       -0.64740       -0.63969       -0.61689       -0.60984
        0.06705        0.10731        0.11349        0.13830        0.17629
        0.18616        0.19334        0.21327        0.23243        0.24261
        0.27170        0.30147        0.35027        0.37031        0.38914
        0.48114        0.49854        0.50376        0.51960        0.54130
        0.55238        0.56459        0.58788        0.61427        0.78612
        0.81707        0.83308        0.89052        0.91858        0.93810
        0.95857        0.97187        1.00816        1.02771        1.04505
        1.05898        1.07157        1.08051        1.10173        1.13666
        1.20451        1.22856        1.28535        1.32200        1.35712
        1.39889        1.42129        1.43558        1.44938        1.45255
        1.48462        1.48854        1.50293        1.52800        1.61001
        1.63264        1.65060        1.65894        1.68537        1.77500
        1.78379        1.82759        1.83522        1.85297        1.86600
        1.91027        2.02165        2.07429        2.10919        2.11257
        2.15745        2.17277        2.25976        2.26416        2.26619
        2.29791        2.30181        2.32097        2.36312        2.49942
        2.54764        2.58519        2.59773        2.63023        2.65177
        2.68702        2.71312        2.74569        2.77179        2.78069
        2.80697        2.90514        2.91248        3.12871        3.17598
        3.24710        3.28905        3.37166        3.39916        3.40244
        3.41702        3.42806        3.45592        3.49632        3.54313
        3.56407        3.56988        3.59227        3.60300        3.88747
        3.89529        3.91690        3.97658        4.13241        4.13715
        4.15265        4.16995        4.95671        5.03979        5.10179
        5.29686        5.31933        5.33032        5.38099        5.68302
        5.70251        5.74295        5.76401        5.92766        5.96202
        6.02654        6.05053       36.85249       51.42527       51.44955
       51.45854       51.46203
 Time used in FCKEIG, thr_jaco:   2.86D-01  2.90D-02  1.61D-05
 CPU and wall times used in FCKEIG, THR_FCKEIG:   2.87D-01  2.90D-02  3.78D-03
 -----------------------------------------------------------------------------

 *** DIIS iteration number    4
 RDSUPM called. NFMAT, ISYMDM(1:NFMAT)                     1
                     1

 ITDIIS, energy, error norm, change in energy, scr.thr., difden:
@ DIIS iter.   4    -361.177469846        9.28606D-02   -1.03D-02  -20    F

 (DIIS_RED) Control Parameters C2DIIS =         F NEVC =    4


 (DIIS_RED) B matrix:

               Column   1     Column   2     Column   3     Column   4
       1      15.64400512
       2       0.59664849     1.32002852
       3       0.81891655    -0.01279881     0.14259662
       4       0.04929895     0.07700472     0.00513218     0.00862310
    ==== End of matrix output ====

 DIIS C vector; C2DIIS = F, LAMBDA = -4.62D-03
   -0.000341   -0.058762   -0.009346    1.068449
* Read MO coefficients from SIRIUS.RST with label "NEWORB  " and header info:  5Dec18  DIIS   4
      Virial theorem: -V/T =      2.003735
@      MULPOP N      -0.42; H       0.27; H       0.31; H       0.35; H       0.31; O      -0.65; O      -0.65; O      -0.62; O      -0.68; H       0.39; 
@             H       0.30; H       0.38; H       0.33; H       0.32; H       0.33; H       0.37; H       0.36; 
   4  Level shift: doubly occupied orbital energies shifted by -1.25D-02

 DIIS Fock eigenvalues in symmetry 1
      -20.66353      -20.65422      -20.64075      -20.62967      -15.72767
       -1.43231       -1.42809       -1.39694       -1.39205       -1.33238
       -0.81994       -0.80748       -0.79817       -0.77890       -0.77328
       -0.75553       -0.74312       -0.67352       -0.66858       -0.66046
       -0.64564       -0.61057       -0.60265       -0.58012       -0.57252
        0.06805        0.10646        0.11267        0.13813        0.17730
        0.18629        0.19331        0.21389        0.23260        0.24529
        0.27542        0.30326        0.35481        0.37631        0.39382
        0.48110        0.49800        0.50353        0.51901        0.54029
        0.55053        0.56278        0.58742        0.61898        0.79295
        0.82215        0.83866        0.89148        0.91892        0.93969
        0.96004        0.97342        1.00713        1.02769        1.04446
        1.05790        1.06937        1.07981        1.10091        1.14083
        1.20707        1.23223        1.28558        1.32295        1.35746
        1.39870        1.42022        1.43446        1.44776        1.45059
        1.48337        1.48732        1.50249        1.52737        1.61214
        1.63322        1.65104        1.66128        1.68778        1.77951
        1.78813        1.82626        1.83458        1.85254        1.86505
        1.91498        2.02603        2.07548        2.10660        2.11298
        2.15507        2.17015        2.26101        2.26216        2.27020
        2.29741        2.30386        2.31797        2.36776        2.50230
        2.55169        2.58499        2.59902        2.63079        2.65552
        2.69025        2.71356        2.74424        2.77023        2.77970
        2.80873        2.91589        2.92300        3.13633        3.18425
        3.25604        3.29957        3.36874        3.39622        3.40120
        3.41363        3.42369        3.45277        3.49519        3.54461
        3.55996        3.56653        3.58935        3.59977        3.88270
        3.89175        3.91318        3.97344        4.12899        4.13254
        4.14921        4.16648        4.97324        5.05341        5.11773
        5.29063        5.31272        5.32430        5.37546        5.67680
        5.69709        5.73680        5.75571        5.92054        5.95283
        6.02016        6.04375       36.88207       51.41163       51.43218
       51.44596       51.44944
 Time used in FCKEIG, thr_jaco:   2.64D-01  2.70D-02  3.97D-06
 CPU and wall times used in FCKEIG, THR_FCKEIG:   2.64D-01  2.70D-02  9.29D-04
 -----------------------------------------------------------------------------

 *** DIIS iteration number    5
 RDSUPM called. NFMAT, ISYMDM(1:NFMAT)                     1
                     1

 ITDIIS, energy, error norm, change in energy, scr.thr., difden:
@ DIIS iter.   5    -361.178479482        3.08214D-02   -1.01D-03  -20    F

 (DIIS_RED) Control Parameters C2DIIS =         F NEVC =    5


 (DIIS_RED) B matrix:

               Column   1     Column   2     Column   3     Column   4     Column   5
       1      15.64400512
       2       0.59664849     1.32002852
       3       0.81891655    -0.01279881     0.14259662
       4       0.04929895     0.07700472     0.00513218     0.00862310
       5       0.02300391     0.00750870     0.00587335     0.00076794     0.00094996
    ==== End of matrix output ====

 DIIS C vector; C2DIIS = F, LAMBDA = -6.34D-04
    0.001222   -0.013537   -0.046717    0.132729    0.926302
* Read MO coefficients from SIRIUS.RST with label "NEWORB  " and header info:  5Dec18  DIIS   5
      Virial theorem: -V/T =      2.003338
@      MULPOP N      -0.41; H       0.26; H       0.31; H       0.34; H       0.31; O      -0.67; O      -0.66; O      -0.63; O      -0.70; H       0.40; 
@             H       0.31; H       0.38; H       0.33; H       0.32; H       0.34; H       0.38; H       0.37; 

 DIIS Fock eigenvalues in symmetry 1
      -20.64102      -20.63481      -20.62179      -20.61127      -15.71077
       -1.41735       -1.41202       -1.38203       -1.37746       -1.31804
       -0.80572       -0.79313       -0.78393       -0.76406       -0.75863
       -0.74169       -0.72882       -0.65893       -0.65337       -0.64616
       -0.63139       -0.59448       -0.58642       -0.56446       -0.55710
        0.06867        0.10687        0.11303        0.13853        0.17782
        0.18673        0.19388        0.21439        0.23303        0.24608
        0.27638        0.30397        0.35594        0.37762        0.39495
        0.48199        0.49868        0.50423        0.51963        0.54116
        0.55099        0.56326        0.58799        0.62015        0.79434
        0.82380        0.84021        0.89329        0.92084        0.94145
        0.96199        0.97506        1.00855        1.02936        1.04619
        1.05918        1.07113        1.08124        1.10249        1.14225
        1.20851        1.23368        1.28706        1.32433        1.35877
        1.40006        1.42118        1.43555        1.44847        1.45109
        1.48413        1.48798        1.50334        1.52818        1.61305
        1.63395        1.65186        1.66210        1.68870        1.78064
        1.78927        1.82641        1.83493        1.85291        1.86532
        1.91612        2.02721        2.07675        2.10742        2.11419
        2.15580        2.17077        2.26250        2.26336        2.27153
        2.29815        2.30505        2.31876        2.36896        2.50325
        2.55267        2.58540        2.59974        2.63136        2.65642
        2.69111        2.71409        2.74415        2.77028        2.77983
        2.80932        2.91760        2.92469        3.13786        3.18660
        3.25819        3.30168        3.37135        3.39881        3.40346
        3.41622        3.42738        3.45497        3.49771        3.54791
        3.56361        3.56903        3.59149        3.60223        3.88635
        3.89432        3.91564        3.97558        4.13156        4.13629
        4.15191        4.16917        4.97580        5.05636        5.12037
        5.29486        5.31788        5.32869        5.37911        5.68049
        5.70044        5.74067        5.76122        5.92405        5.95816
        6.02322        6.04729       36.88638       51.41803       51.44162
       51.45220       51.45627
 Time used in FCKEIG, thr_jaco:   2.53D-01  2.50D-02  1.32D-06
 CPU and wall times used in FCKEIG, THR_FCKEIG:   2.53D-01  2.50D-02  3.08D-04
 -----------------------------------------------------------------------------

 *** DIIS iteration number    6
 RDSUPM called. NFMAT, ISYMDM(1:NFMAT)                     1
                     1

 ITDIIS, energy, error norm, change in energy, scr.thr., difden:
@ DIIS iter.   6    -361.178570702        1.10088D-02   -9.12D-05  -20    F

 (DIIS_RED) Control Parameters C2DIIS =         F NEVC =    6


 (DIIS_RED) B matrix:

               Column   1     Column   2     Column   3     Column   4     Column   5     Column   6
       1      15.64400512
       2       0.59664849     1.32002852
       3       0.81891655    -0.01279881     0.14259662
       4       0.04929895     0.07700472     0.00513218     0.00862310
       5       0.02300391     0.00750870     0.00587335     0.00076794     0.00094996
       6      -0.00466508    -0.00012132     0.00082263     0.00057808     0.00002394     0.00012119
    ==== End of matrix output ====

 DIIS C vector; C2DIIS = F, LAMBDA = -3.71D-05
    0.000789    0.007036   -0.008975   -0.136236    0.103894    1.033493
* Read MO coefficients from SIRIUS.RST with label "NEWORB  " and header info:  5Dec18  DIIS   6
      Virial theorem: -V/T =      2.003602
@      MULPOP N      -0.40; H       0.26; H       0.30; H       0.34; H       0.31; O      -0.67; O      -0.66; O      -0.64; O      -0.70; H       0.40; 
@             H       0.31; H       0.38; H       0.33; H       0.32; H       0.34; H       0.38; H       0.37; 

 DIIS Fock eigenvalues in symmetry 1
      -20.64383      -20.63667      -20.62336      -20.61289      -15.71287
       -1.41785       -1.41280       -1.38237       -1.37792       -1.31859
       -0.80627       -0.79368       -0.78445       -0.76470       -0.75922
       -0.74230       -0.72919       -0.65976       -0.65435       -0.64685
       -0.63206       -0.59480       -0.58685       -0.56456       -0.55723
        0.06857        0.10669        0.11289        0.13838        0.17770
        0.18662        0.19376        0.21430        0.23290        0.24602
        0.27624        0.30382        0.35580        0.37743        0.39480
        0.48174        0.49852        0.50399        0.51940        0.54086
        0.55074        0.56302        0.58773        0.61996        0.79404
        0.82342        0.83985        0.89304        0.92056        0.94116
        0.96171        0.97472        1.00814        1.02912        1.04585
        1.05879        1.07064        1.08088        1.10225        1.14199
        1.20826        1.23335        1.28681        1.32409        1.35848
        1.39971        1.42083        1.43521        1.44810        1.45074
        1.48381        1.48765        1.50302        1.52787        1.61282
        1.63367        1.65157        1.66189        1.68848        1.78042
        1.78916        1.82607        1.83466        1.85267        1.86504
        1.91595        2.02704        2.07640        2.10704        2.11387
        2.15534        2.17027        2.26206        2.26298        2.27131
        2.29769        2.30481        2.31831        2.36867        2.50297
        2.55252        2.58516        2.59944        2.63107        2.65627
        2.69098        2.71381        2.74374        2.76997        2.77955
        2.80912        2.91706        2.92415        3.13765        3.18587
        3.25756        3.30102        3.37070        3.39830        3.40286
        3.41570        3.42640        3.45433        3.49703        3.54701
        3.56265        3.56853        3.59089        3.60158        3.88536
        3.89379        3.91494        3.97494        4.13087        4.13528
        4.15138        4.16844        4.97481        5.05528        5.11939
        5.29387        5.31662        5.32771        5.37825        5.67965
        5.69954        5.73961        5.75970        5.92318        5.95663
        6.02225        6.04623       36.88431       51.41648       51.43900
       51.45046       51.45442
 Time used in FCKEIG, thr_jaco:   2.47D-01  2.50D-02  4.70D-07
 CPU and wall times used in FCKEIG, THR_FCKEIG:   2.48D-01  2.50D-02  1.10D-04
 -----------------------------------------------------------------------------

 *** DIIS iteration number    7
 RDSUPM called. NFMAT, ISYMDM(1:NFMAT)                     1
                     1

 ITDIIS, energy, error norm, change in energy, scr.thr., difden:
@ DIIS iter.   7    -361.178584687        2.32460D-03   -1.40D-05  -20    F

 (DIIS_RED) Control Parameters C2DIIS =         F NEVC =    7


 (DIIS_RED) B matrix:

               Column   1     Column   2     Column   3     Column   4     Column   5     Column   6
       1      15.64400512
       2       0.59664849     1.32002852
       3       0.81891655    -0.01279881     0.14259662
       4       0.04929895     0.07700472     0.00513218     0.00862310
       5       0.02300391     0.00750870     0.00587335     0.00076794     0.00094996
       6      -0.00466508    -0.00012132     0.00082263     0.00057808     0.00002394     0.00012119
       7       0.00026753     0.00019934     0.00000015     0.00000629     0.00004988     0.00000185

               Column   7
       7       0.00000540
    ==== End of matrix output ====

 DIIS C vector; C2DIIS = F, LAMBDA = -1.27D-06
   -0.000250   -0.000916    0.005468    0.024879   -0.099730   -0.154912    1.225463
* Read MO coefficients from SIRIUS.RST with label "NEWORB  " and header info:  5Dec18  DIIS   7
      Virial theorem: -V/T =      2.003543
@      MULPOP N      -0.40; H       0.26; H       0.30; H       0.34; H       0.31; O      -0.67; O      -0.67; O      -0.64; O      -0.70; H       0.40; 
@             H       0.31; H       0.39; H       0.33; H       0.32; H       0.34; H       0.38; H       0.37; 

 DIIS Fock eigenvalues in symmetry 1
      -20.64336      -20.63649      -20.62313      -20.61271      -15.71243
       -1.41773       -1.41259       -1.38223       -1.37781       -1.31836
       -0.80610       -0.79350       -0.78432       -0.76456       -0.75907
       -0.74225       -0.72910       -0.65972       -0.65426       -0.64685
       -0.63206       -0.59460       -0.58663       -0.56438       -0.55706
        0.06864        0.10672        0.11293        0.13842        0.17775
        0.18667        0.19380        0.21434        0.23294        0.24609
        0.27632        0.30390        0.35592        0.37758        0.39493
        0.48181        0.49858        0.50405        0.51945        0.54092
        0.55076        0.56305        0.58778        0.62011        0.79420
        0.82356        0.84000        0.89313        0.92066        0.94127
        0.96186        0.97483        1.00822        1.02923        1.04596
        1.05887        1.07073        1.08096        1.10233        1.14213
        1.20839        1.23350        1.28692        1.32420        1.35857
        1.39981        1.42088        1.43528        1.44813        1.45076
        1.48384        1.48768        1.50308        1.52791        1.61290
        1.63373        1.65163        1.66197        1.68857        1.78055
        1.78928        1.82608        1.83468        1.85270        1.86507
        1.91607        2.02717        2.07649        2.10708        2.11396
        2.15537        2.17028        2.26215        2.26304        2.27145
        2.29772        2.30493        2.31834        2.36879        2.50306
        2.55263        2.58519        2.59950        2.63112        2.65637
        2.69107        2.71385        2.74373        2.76996        2.77956
        2.80918        2.91727        2.92436        3.13782        3.18610
        3.25777        3.30124        3.37081        3.39843        3.40298
        3.41583        3.42661        3.45442        3.49717        3.54725
        3.56287        3.56866        3.59099        3.60169        3.88556
        3.89391        3.91503        3.97503        4.13100        4.13550
        4.15152        4.16856        4.97510        5.05558        5.11968
        5.29402        5.31689        5.32792        5.37839        5.67981
        5.69967        5.73975        5.75999        5.92333        5.95691
        6.02237        6.04635       36.88474       51.41670       51.43943
       51.45067       51.45461
 Time used in FCKEIG, thr_jaco:   2.45D-01  2.50D-02  9.93D-08
 CPU and wall times used in FCKEIG, THR_FCKEIG:   2.45D-01  2.50D-02  2.32D-05
 -----------------------------------------------------------------------------

 *** DIIS iteration number    8
 RDSUPM called. NFMAT, ISYMDM(1:NFMAT)                     1
                     1

 ITDIIS, energy, error norm, change in energy, scr.thr., difden:
@ DIIS iter.   8    -361.178585311        3.77697D-04   -6.24D-07  -20    F

 (DIIS_RED) Control Parameters C2DIIS =         F NEVC =    8


 (DIIS_RED) B matrix:

               Column   1     Column   2     Column   3     Column   4     Column   5     Column   6
       1      15.64400512
       2       0.59664849     1.32002852
       3       0.81891655    -0.01279881     0.14259662
       4       0.04929895     0.07700472     0.00513218     0.00862310
       5       0.02300391     0.00750870     0.00587335     0.00076794     0.00094996
       6      -0.00466508    -0.00012132     0.00082263     0.00057808     0.00002394     0.00012119
       7       0.00026753     0.00019934     0.00000015     0.00000629     0.00004988     0.00000185
       8       0.00010722    -0.00004308     0.00000749     0.00000213     0.00000012     0.00000169

               Column   7     Column   8
       7       0.00000540
       8       0.00000037     0.00000014
    ==== End of matrix output ====

 DIIS C vector; C2DIIS = F, LAMBDA = -7.72D-08
    0.000010    0.000043   -0.000726   -0.001316    0.016533   -0.004476   -0.219667    1.209598
* Read MO coefficients from SIRIUS.RST with label "NEWORB  " and header info:  5Dec18  DIIS   8
      Virial theorem: -V/T =      2.003559
@      MULPOP N      -0.40; H       0.26; H       0.30; H       0.34; H       0.31; O      -0.67; O      -0.67; O      -0.64; O      -0.70; H       0.40; 
@             H       0.31; H       0.39; H       0.33; H       0.32; H       0.34; H       0.38; H       0.37; 

 DIIS Fock eigenvalues in symmetry 1
      -20.64344      -20.63642      -20.62313      -20.61270      -15.71246
       -1.41771       -1.41261       -1.38222       -1.37781       -1.31837
       -0.80610       -0.79351       -0.78431       -0.76456       -0.75907
       -0.74225       -0.72908       -0.65973       -0.65429       -0.64687
       -0.63208       -0.59460       -0.58664       -0.56436       -0.55705
        0.06864        0.10672        0.11292        0.13842        0.17775
        0.18667        0.19380        0.21434        0.23294        0.24609
        0.27632        0.30389        0.35591        0.37757        0.39493
        0.48180        0.49858        0.50405        0.51945        0.54092
        0.55076        0.56305        0.58778        0.62010        0.79419
        0.82355        0.83998        0.89313        0.92065        0.94126
        0.96185        0.97482        1.00823        1.02923        1.04596
        1.05887        1.07072        1.08096        1.10233        1.14212
        1.20838        1.23349        1.28692        1.32420        1.35857
        1.39980        1.42088        1.43527        1.44812        1.45076
        1.48384        1.48767        1.50308        1.52791        1.61290
        1.63373        1.65163        1.66196        1.68856        1.78054
        1.78927        1.82607        1.83468        1.85270        1.86507
        1.91607        2.02716        2.07648        2.10708        2.11395
        2.15538        2.17028        2.26214        2.26304        2.27144
        2.29772        2.30493        2.31835        2.36878        2.50305
        2.55262        2.58519        2.59949        2.63112        2.65636
        2.69106        2.71385        2.74372        2.76996        2.77956
        2.80918        2.91726        2.92435        3.13781        3.18608
        3.25776        3.30123        3.37082        3.39843        3.40297
        3.41583        3.42658        3.45442        3.49718        3.54722
        3.56284        3.56867        3.59099        3.60171        3.88553
        3.89391        3.91505        3.97503        4.13099        4.13547
        4.15152        4.16858        4.97508        5.05556        5.11966
        5.29405        5.31686        5.32791        5.37839        5.67981
        5.69967        5.73978        5.75995        5.92333        5.95686
        6.02237        6.04638       36.88472       51.41670       51.43936
       51.45067       51.45467
 Time used in FCKEIG, thr_jaco:   2.46D-01  2.50D-02  1.61D-08
 CPU and wall times used in FCKEIG, THR_FCKEIG:   2.46D-01  2.50D-02  3.78D-06
 -----------------------------------------------------------------------------

 *** DIIS iteration number    9
 RDSUPM called. NFMAT, ISYMDM(1:NFMAT)                     1
                     1

 ITDIIS, energy, error norm, change in energy, scr.thr., difden:
@ DIIS iter.   9    -361.178585330        1.22326D-04   -1.91D-08  -20    F

 (DIIS_RED) Control Parameters C2DIIS =         F NEVC =    8


 (DIIS_RED) B matrix:

[...]

 Principal values of diagonalized transition strength matrix:

             a.u.               
 1      -0.00000000
 2      -0.00000000
 3       0.00038966

 Principal axis of diagonalized transition strength matrix:


               Column   1     Column   2     Column   3
       1      -0.50237334    -0.68171350     0.53187191
       2       0.82147532    -0.18435581     0.53962138
       3      -0.26981350     0.70801105     0.65262626
    ==== End of matrix output ====


 CCSD   oscillator strength matrix for state nr. 13 of symmetry 1
 CCSD  excitation energy:15.19745948


               Column   1     Column   2     Column   3
       1       0.00111681     0.00113310     0.00137037
       2       0.00113310     0.00114958     0.00139035
       3       0.00137037     0.00139035     0.00168150
    ==== End of matrix output ====

 Principal values of diagonalized oscillator strength matrix:

             a.u.               
 1      -0.00000003
 2      -0.00000000
 3       0.00394791

 Principal axis of diagonalized oscillator strength matrix:


               Column   1     Column   2     Column   3
       1      -0.50237334    -0.68171350     0.53187191
       2       0.82147532    -0.18435581     0.53962138
       3      -0.26981350     0.70801105     0.65262626
    ==== End of matrix output ====


 CCSD  Transition strength matrix for state nr. 14 of symmetry 1
 CCSD  excitation energy:15.21550096

 Gauge: length

               Column   1     Column   2     Column   3
       1     2.906080D-04  -6.383444D-05  -8.183536D-05
       2    -6.383444D-05   1.401789D-05   1.797209D-05
       3    -8.183536D-05   1.797209D-05   2.304131D-05
    ==== End of matrix output ====

 Principal values of diagonalized transition strength matrix:

             a.u.               
 1      -0.00000001
 2      -0.00000000
 3       0.00032767

 Principal axis of diagonalized transition strength matrix:


               Column   1     Column   2     Column   3
       1       0.33245487     0.05088776     0.94174529
       2       0.69185082    -0.69177508    -0.20685666
       3       0.64094946     0.72031776    -0.26519073
    ==== End of matrix output ====


 CCSD   oscillator strength matrix for state nr. 14 of symmetry 1
 CCSD  excitation energy:15.21550096


               Column   1     Column   2     Column   3
       1       0.00294783    -0.00064752    -0.00083011
       2      -0.00064752     0.00014219     0.00018230
       3      -0.00083011     0.00018230     0.00023372
    ==== End of matrix output ====

 Principal values of diagonalized oscillator strength matrix:

             a.u.               
 1      -0.00000007
 2       0.00000000
 3       0.00332381

 Principal axis of diagonalized oscillator strength matrix:


               Column   1     Column   2     Column   3
       1       0.33245487     0.05088776     0.94174529
       2       0.69185082    -0.69177508    -0.20685666
       3       0.64094946     0.72031776    -0.26519073
    ==== End of matrix output ====


 CCSD  Transition strength matrix for state nr. 15 of symmetry 1
 CCSD  excitation energy:15.22877765

 Gauge: length

               Column   1     Column   2     Column   3
       1     2.867856D-05   5.407326D-06   4.962666D-05
       2     5.407326D-06   1.019532D-06   9.357056D-06
       3     4.962666D-05   9.357056D-06   8.587614D-05
    ==== End of matrix output ====

 Principal values of diagonalized transition strength matrix:

             a.u.               
 1      -0.00000000
 2      -0.00000000
 3       0.00011557

 Principal axis of diagonalized transition strength matrix:


               Column   1     Column   2     Column   3
       1      -0.56824215     0.65495122     0.49813628
       2       0.78625251     0.61072533     0.09392313
       3       0.24270937    -0.44503198     0.86199692
    ==== End of matrix output ====


 CCSD   oscillator strength matrix for state nr. 15 of symmetry 1
 CCSD  excitation energy:15.22877765


               Column   1     Column   2     Column   3
       1     2.911596D-04   5.489798D-05   5.038355D-04
       2     5.489798D-05   1.035082D-05   9.499768D-05
       3     5.038355D-04   9.499768D-05   8.718591D-04
    ==== End of matrix output ====

 Principal values of diagonalized oscillator strength matrix:

             a.u.               
 1      -0.00000000
 2       0.00000000
 3       0.00117337

 Principal axis of diagonalized oscillator strength matrix:


               Column   1     Column   2     Column   3
       1      -0.56824215     0.65495122     0.49813628
       2       0.78625251     0.61072533     0.09392313
       3       0.24270937    -0.44503198     0.86199692
    ==== End of matrix output ====

  Total time for    135 linear response residues:     134.81 seconds.
  

 *******************************************************************************
 *******************************************************************************
 *                                                                             *
 *                                                                             *
 *                   SUMMARY OF COUPLED CLUSTER CALCULATION                    *
 *                                                                             *
 *                                                                             *
 *******************************************************************************
 *******************************************************************************

                                                                                
                                                                                
            Total SCF   energy:                  -361.1785853314                
            Total MP2   energy:                  -362.2900452092                
            Total CCSD  energy:                  -362.3306999761                
                                                                                
                                                                                
            Total SCF   energy:                  -361.1785853314                
            Total RSTAR energy:                  -362.3306999761                
            Total CCSD  energy:                  -362.3308445001                
                                                                                
                                                                                
            Total SCF   energy:                  -361.1785853314                
            Total RSTAR energy:                  -362.3308445001                
            Total CCSD  energy:                  -362.3308447233                
                                                                                
                                                                                
            Total SCF   energy:                  -361.1785853314                
            Total RSTAR energy:                  -362.3308447233                
            Total CCSD  energy:                  -362.3308448528                
                                                                                
                                                                                
            Total SCF   energy:                  -361.1785853314                
            Total RSTAR energy:                  -362.3308448528                
            Total CCSD  energy:                  -362.3308448527                
                                                                                
                                                                                
            Total SCF   energy:                  -361.1785853314                
            Total RSTAR energy:                  -362.3308448527                
            Total CCSD  energy:                  -362.3308448532                
            CCSD Total  energy:                  -362.7371298475                
            CCSD E(QM/MM)     :                    -0.4019282629                
                                                                                
                                                                                
                                                                                
 +=============================================================================+
 |  sym. | Exci.  |        CCSD       Excitation energies            | ||T1||  |
 |(spin, |        +------------------------------------------------------------+
 | spat) |        |     Hartree    |       eV.      |     cm-1       |    %    |
 +=============================================================================+
 | ^1A   |    1   |    14.9235955  |     406.09169  |   3275350.584  |  88.50  |
 | ^1A   |    2   |    14.9802737  |     407.63398  |   3287790.008  |  88.97  |
 | ^1A   |    3   |    14.9861140  |     407.79291  |   3289071.814  |  88.79  |
 | ^1A   |    4   |    15.0204902  |     408.72833  |   3296616.520  |  88.69  |
 | ^1A   |    5   |    15.0753629  |     410.22149  |   3308659.680  |  87.90  |
 | ^1A   |    6   |    15.0810797  |     410.37705  |   3309914.373  |  87.93  |
 | ^1A   |    7   |    15.1061530  |     411.05933  |   3315417.338  |  87.98  |
 | ^1A   |    8   |    15.1121945  |     411.22373  |   3316743.289  |  88.01  |
 | ^1A   |    9   |    15.1283067  |     411.66217  |   3320279.504  |  87.96  |
 | ^1A   |   10   |    15.1491937  |     412.23053  |   3324863.668  |  87.81  |
 | ^1A   |   11   |    15.1703610  |     412.80652  |   3329509.361  |  87.89  |
 | ^1A   |   12   |    15.1788650  |     413.03793  |   3331375.775  |  87.99  |
 | ^1A   |   13   |    15.1974595  |     413.54391  |   3335456.786  |  87.94  |
 | ^1A   |   14   |    15.2155010  |     414.03484  |   3339416.434  |  88.11  |
 | ^1A   |   15   |    15.2287776  |     414.39612  |   3342330.329  |  87.78  |
 +=============================================================================+
                                                                                
                                                                                
     Total energies in Hartree:                                                 
             1 ^1A       -347.4116061178                                        
             2 ^1A       -347.3549279301                                        
             3 ^1A       -347.3490875896                                        
             4 ^1A       -347.3147113808                                        
             5 ^1A       -347.2598387065                                        
             6 ^1A       -347.2541219045                                        
             7 ^1A       -347.2290485482                                        
             8 ^1A       -347.2230070747                                        
             9 ^1A       -347.2068948912                                        
            10 ^1A       -347.1860079033                                        
            11 ^1A       -347.1648405683                                        
            12 ^1A       -347.1563365601                                        
            13 ^1A       -347.1377421053                                        
            14 ^1A       -347.1197006235                                        
            15 ^1A       -347.1064239377                                        
                                                                                
                                                                                
 +=============================================================================+
 |  sym. | Exci.  |        CCSD       Length   Gauge Oscillator Strength       |
 |(spin, |        +------------------------------------------------------------+
 | spat) |        | Dipole Strength(a.u.) | Oscillator strength  | Direction   |
 +=============================================================================+
 | ^1A   |    1   |        0.0002642      |      0.0026282       |  (Y,Z)      |
 | ^1A   |    2   |        0.0041076      |      0.0410222       |  (Y,Z)      |
 | ^1A   |    3   |        0.0040207      |      0.0401702       |  (Y,Z)      |
 | ^1A   |    4   |        0.0029065      |      0.0291051       |  (Y,Z)      |
 | ^1A   |    5   |        0.0001180      |      0.0011861       |  (Y,Z)      |
 | ^1A   |    6   |        0.0003038      |      0.0030543       |  (Y,Z)      |
 | ^1A   |    7   |        0.0000811      |      0.0008165       |  (Y,Z)      |
 | ^1A   |    8   |        0.0006449      |      0.0064973       |  (Y,Z)      |
 | ^1A   |    9   |        0.0003695      |      0.0037264       |  (Y,Z)      |
 | ^1A   |   10   |        0.0004092      |      0.0041323       |  (Y,Z)      |
 | ^1A   |   11   |        0.0003668      |      0.0037100       |  (Y,Z)      |
 | ^1A   |   12   |        0.0003582      |      0.0036248       |  (Y,Z)      |
 | ^1A   |   13   |        0.0003897      |      0.0039479       |  (Y,Z)      |
 | ^1A   |   14   |        0.0003277      |      0.0033237       |  (Y,Z)      |
 | ^1A   |   15   |        0.0001156      |      0.0011734       |  (Y,Z)      |
 +=============================================================================+

  1 a.u. =        27.21138 eV.  
  1 a.u. =    219474.62934 cm-1.
  

 *******************************************************************************
 *******************************************************************************
 *                                                                             *
 *                                                                             *
 *                      END OF COUPLED CLUSTER CALCULATION                     *
 *                                                                             *
 *                                                                             *
 *******************************************************************************
 *******************************************************************************


 CPU and wall time for CC :  546334.389   64714.349

 
     Date and time (Linux)  : Wed Dec  5 23:54:45 2018
     Host name              : n-62-23-10                              


                      .-------------------------------------.
                      | End of Coupled Cluster Section (CC) |
                      `-------------------------------------'

  Total CPU  time used in DALTON: 152 hours  0 minutes 46 seconds
  Total wall time used in DALTON:  18 hours  1 minute   8 seconds

 
     Date and time (Linux)  : Wed Dec  5 23:54:45 2018
     Host name              : n-62-23-10                              
  

 +---------------------------------------------------------+ 
 | List of selected calculated molecular properties (a.u.) | 
 +---------------------------------------------------------+ 

  Properties are read from unit number                      4

 CCSD       properties :
 #  1 1 CCSD/MM  Ground state Energy =    -362.7371298475
 #  2 1 E_QM/MM  Ground state Energy =      -0.4019282629
 #  3 1 Sy: 1 Sp: 1 Exc:  1 E_tot:   -347.4116061178 w:     14.9235954668 E_grs:   -362.3352015846
 #  4 1 Exctot   Excited state Energy =    -347.4116061178
 #  5 1 Sy: 1 Sp: 1 Exc:  2 E_tot:   -347.3549279301 w:     14.9802736545 E_grs:   -362.3352015846
 #  6 1 Exctot   Excited state Energy =    -347.3549279301
 #  7 1 Sy: 1 Sp: 1 Exc:  3 E_tot:   -347.3490875896 w:     14.9861139950 E_grs:   -362.3352015846
 #  8 1 Exctot   Excited state Energy =    -347.3490875896
 #  9 1 Sy: 1 Sp: 1 Exc:  4 E_tot:   -347.3147113808 w:     15.0204902038 E_grs:   -362.3352015846
 # 10 1 Exctot   Excited state Energy =    -347.3147113808
 # 11 1 Sy: 1 Sp: 1 Exc:  5 E_tot:   -347.2598387065 w:     15.0753628781 E_grs:   -362.3352015846
 # 12 1 Exctot   Excited state Energy =    -347.2598387065
 # 13 1 Sy: 1 Sp: 1 Exc:  6 E_tot:   -347.2541219045 w:     15.0810796801 E_grs:   -362.3352015846
 # 14 1 Exctot   Excited state Energy =    -347.2541219045
 # 15 1 Sy: 1 Sp: 1 Exc:  7 E_tot:   -347.2290485482 w:     15.1061530364 E_grs:   -362.3352015846
 # 16 1 Exctot   Excited state Energy =    -347.2290485482
 # 17 1 Sy: 1 Sp: 1 Exc:  8 E_tot:   -347.2230070747 w:     15.1121945099 E_grs:   -362.3352015846
 # 18 1 Exctot   Excited state Energy =    -347.2230070747
 # 19 1 Sy: 1 Sp: 1 Exc:  9 E_tot:   -347.2068948912 w:     15.1283066934 E_grs:   -362.3352015846
 # 20 1 Exctot   Excited state Energy =    -347.2068948912
 # 21 1 Sy: 1 Sp: 1 Exc: 10 E_tot:   -347.1860079033 w:     15.1491936813 E_grs:   -362.3352015846
 # 22 1 Exctot   Excited state Energy =    -347.1860079033
 # 23 1 Sy: 1 Sp: 1 Exc: 11 E_tot:   -347.1648405683 w:     15.1703610163 E_grs:   -362.3352015846
 # 24 1 Exctot   Excited state Energy =    -347.1648405683
 # 25 1 Sy: 1 Sp: 1 Exc: 12 E_tot:   -347.1563365601 w:     15.1788650245 E_grs:   -362.3352015846
 # 26 1 Exctot   Excited state Energy =    -347.1563365601
 # 27 1 Sy: 1 Sp: 1 Exc: 13 E_tot:   -347.1377421053 w:     15.1974594793 E_grs:   -362.3352015846
 # 28 1 Exctot   Excited state Energy =    -347.1377421053
 # 29 1 Sy: 1 Sp: 1 Exc: 14 E_tot:   -347.1197006235 w:     15.2155009611 E_grs:   -362.3352015846
 # 30 1 Exctot   Excited state Energy =    -347.1197006235
 # 31 1 Sy: 1 Sp: 1 Exc: 15 E_tot:   -347.1064239377 w:     15.2287776469 E_grs:   -362.3352015846
 # 32 1 Exctot   Excited state Energy =    -347.1064239377
 # 33 1 |<O|XDIPLEN |i(14.923595)>| =     0.00704527
 # 35 1 |<O|XDIPLEN |i(14.980274)>| =     0.01294648
 # 37 1 |<O|XDIPLEN |i(14.986114)>| =     0.03817340
 # 39 1 |<O|XDIPLEN |i(15.020490)>| =     0.04323855
 # 41 1 |<O|XDIPLEN |i(15.075363)>| =     0.00977232
 # 43 1 |<O|XDIPLEN |i(15.081080)>| =     0.01034603
 # 45 1 |<O|XDIPLEN |i(15.106153)>| =     0.00750461
 # 47 1 |<O|XDIPLEN |i(15.112195)>| =     0.01748791
 # 49 1 |<O|XDIPLEN |i(15.128307)>| =     0.01553438
 # 51 1 |<O|XDIPLEN |i(15.149194)>| =     0.01556853
 # 53 1 |<O|XDIPLEN |i(15.170361)>| =     0.00792068
 # 55 1 |<O|XDIPLEN |i(15.178865)>| =     0.01184667
 # 57 1 |<O|XDIPLEN |i(15.197459)>| =     0.01049904
 # 59 1 |<O|XDIPLEN |i(15.215501)>| =     0.01704723
 # 61 1 |<O|XDIPLEN |i(15.228778)>| =     0.00535524
 # 63 1 |<O|YDIPLEN |i(14.923595)>| =     0.00408795
 # 65 1 |<O|YDIPLEN |i(14.980274)>| =     0.03877056
 # 67 1 |<O|YDIPLEN |i(14.986114)>| =     0.04559787
 # 69 1 |<O|YDIPLEN |i(15.020490)>| =     0.01847979
 # 71 1 |<O|YDIPLEN |i(15.075363)>| =     0.00026372
 # 73 1 |<O|YDIPLEN |i(15.081080)>| =     0.01361007
 # 75 1 |<O|YDIPLEN |i(15.106153)>| =     0.00065472
 # 77 1 |<O|YDIPLEN |i(15.112195)>| =     0.01045605
 # 79 1 |<O|YDIPLEN |i(15.128307)>| =     0.00112360
 # 81 1 |<O|YDIPLEN |i(15.149194)>| =     0.01290418
 # 83 1 |<O|YDIPLEN |i(15.170361)>| =     0.01607138
 # 85 1 |<O|YDIPLEN |i(15.178865)>| =     0.00941037
 # 87 1 |<O|YDIPLEN |i(15.197459)>| =     0.01065196
 # 89 1 |<O|YDIPLEN |i(15.215501)>| =     0.00374405
 # 91 1 |<O|YDIPLEN |i(15.228778)>| =     0.00100972
 # 93 1 |<O|ZDIPLEN |i(14.923595)>| =     0.01406474
 # 95 1 |<O|ZDIPLEN |i(14.980274)>| =     0.04936445
 # 97 1 |<O|ZDIPLEN |i(14.986114)>| =     0.02200837
 # 99 1 |<O|ZDIPLEN |i(15.020490)>| =     0.02637163
 #101 1 |<O|ZDIPLEN |i(15.075363)>| =     0.00473770
 #103 1 |<O|ZDIPLEN |i(15.081080)>| =     0.00339383
 #105 1 |<O|ZDIPLEN |i(15.106153)>| =     0.00493213
 #107 1 |<O|ZDIPLEN |i(15.112195)>| =     0.01515757
 #109 1 |<O|ZDIPLEN |i(15.128307)>| =     0.01126494
 #111 1 |<O|ZDIPLEN |i(15.149194)>| =     0.00051539
 #113 1 |<O|ZDIPLEN |i(15.170361)>| =     0.00676835
 #115 1 |<O|ZDIPLEN |i(15.178865)>| =     0.01137143
 #117 1 |<O|ZDIPLEN |i(15.197459)>| =     0.01288274
 #119 1 |<O|ZDIPLEN |i(15.215501)>| =     0.00480014
 #121 1 |<O|ZDIPLEN |i(15.228778)>| =     0.00926694

 THE_END   
