

     ************************************************************************
     *************** Dalton - An Electronic Structure Program ***************
     ************************************************************************

    This is output from DALTON release Dalton2017.alpha (2016)
         ( Web site: http://daltonprogram.org )

   ----------------------------------------------------------------------------

    NOTE:
     
    Dalton is an experimental code for the evaluation of molecular
    properties using (MC)SCF, DFT, CI, and CC wave functions.
    The authors accept no responsibility for the performance of
    the code or for the correctness of the results.
     
    The code (in whole or part) is provided under a licence and
    is not to be reproduced for further distribution without
    the written permission of the authors or their representatives.
     
    See the home page "http://daltonprogram.org" for further information.
     
    If results obtained with this code are published,
    the appropriate citations would be both of:
     
       K. Aidas, C. Angeli, K. L. Bak, V. Bakken, R. Bast,
       L. Boman, O. Christiansen, R. Cimiraglia, S. Coriani,
       P. Dahle, E. K. Dalskov, U. Ekstroem,
       T. Enevoldsen, J. J. Eriksen, P. Ettenhuber, B. Fernandez,
       L. Ferrighi, H. Fliegl, L. Frediani, K. Hald, A. Halkier,
       C. Haettig, H. Heiberg, T. Helgaker, A. C. Hennum,
       H. Hettema, E. Hjertenaes, S. Hoest, I.-M. Hoeyvik,
       M. F. Iozzi, B. Jansik, H. J. Aa. Jensen, D. Jonsson,
       P. Joergensen, J. Kauczor, S. Kirpekar,
       T. Kjaergaard, W. Klopper, S. Knecht, R. Kobayashi, H. Koch,
       J. Kongsted, A. Krapp, K. Kristensen, A. Ligabue,
       O. B. Lutnaes, J. I. Melo, K. V. Mikkelsen, R. H. Myhre,
       C. Neiss, C. B. Nielsen, P. Norman, J. Olsen,
       J. M. H. Olsen, A. Osted, M. J. Packer, F. Pawlowski,
       T. B. Pedersen, P. F. Provasi, S. Reine, Z. Rinkevicius,
       T. A. Ruden, K. Ruud, V. Rybkin, P. Salek, C. C. M. Samson,
       A. Sanchez de Meras, T. Saue, S. P. A. Sauer,
       B. Schimmelpfennig, K. Sneskov, A. H. Steindal,
       K. O. Sylvester-Hvid, P. R. Taylor, A. M. Teale,
       E. I. Tellgren, D. P. Tew, A. J. Thorvaldsen, L. Thoegersen,
       O. Vahtras, M. A. Watson, D. J. D. Wilson, M. Ziolkowski
       and H. Agren,
       "The Dalton quantum chemistry program system",
       WIREs Comput. Mol. Sci. 2014, 4:269–284 (doi: 10.1002/wcms.1172)
     
    and
     
       Dalton, a Molecular Electronic Structure Program,
       Release Dalton2017.alpha (2016), see http://daltonprogram.org
   ----------------------------------------------------------------------------

    Authors in alphabetical order (major contribution(s) in parenthesis):

  Kestutis Aidas,           Vilnius University,           Lithuania   (QM/MM)
  Celestino Angeli,         University of Ferrara,        Italy       (NEVPT2)
  Keld L. Bak,              UNI-C,                        Denmark     (AOSOPPA, non-adiabatic coupling, magnetic properties)
  Vebjoern Bakken,          University of Oslo,           Norway      (DALTON; geometry optimizer, symmetry detection)
  Radovan Bast,             UiT The Arctic U. of Norway,  Norway      (DALTON installation and execution frameworks)
  Pablo Baudin,             University of Valencia,       Spain       (Cholesky excitation energies)
  Linus Boman,              NTNU,                         Norway      (Cholesky decomposition and subsystems)
  Ove Christiansen,         Aarhus University,            Denmark     (CC module)
  Renzo Cimiraglia,         University of Ferrara,        Italy       (NEVPT2)
  Sonia Coriani,            University of Trieste,        Italy       (CC module, MCD in RESPONS)
  Janusz Cukras,            University of Trieste,        Italy       (MChD in RESPONS)
  Paal Dahle,               University of Oslo,           Norway      (Parallelization)
  Erik K. Dalskov,          UNI-C,                        Denmark     (SOPPA)
  Thomas Enevoldsen,        Univ. of Southern Denmark,    Denmark     (SOPPA)
  Janus J. Eriksen,         Aarhus University,            Denmark     (Polarizable embedding model, TDA)
  Rasmus Faber,             University of Copenhagen,     Denmark     (Vib.avg. NMR with SOPPA, parallel AO-SOPPA)
  Berta Fernandez,          U. of Santiago de Compostela, Spain       (doublet spin, ESR in RESPONS)
  Lara Ferrighi,            Aarhus University,            Denmark     (PCM Cubic response)
  Heike Fliegl,             University of Oslo,           Norway      (CCSD(R12))
  Luca Frediani,            UiT The Arctic U. of Norway,  Norway      (PCM)
  Bin Gao,                  UiT The Arctic U. of Norway,  Norway      (Gen1Int library)
  Christof Haettig,         Ruhr-University Bochum,       Germany     (CC module)
  Kasper Hald,              Aarhus University,            Denmark     (CC module)
  Asger Halkier,            Aarhus University,            Denmark     (CC module)
  Frederik Beyer Hansen,    University of Copenhagen,     Denmark     (Parallel AO-SOPPA)
  Erik D. Hedegaard,        Univ. of Southern Denmark,    Denmark     (Polarizable embedding model, QM/MM)
  Hanne Heiberg,            University of Oslo,           Norway      (geometry analysis, selected one-electron integrals)
  Trygve Helgaker,          University of Oslo,           Norway      (DALTON; ABACUS, ERI, DFT modules, London, and much more)
  Alf Christian Hennum,     University of Oslo,           Norway      (Parity violation)
  Hinne Hettema,            University of Auckland,       New Zealand (quadratic response in RESPONS; SIRIUS supersymmetry)
  Eirik Hjertenaes,         NTNU,                         Norway      (Cholesky decomposition)
  Pi A. B. Haase,           University of Copenhagen,     Denmark     (Triplet AO-SOPPA)
  Maria Francesca Iozzi,    University of Oslo,           Norway      (RPA)
  Brano Jansik              Technical Univ. of Ostrava    Czech Rep.  (DFT cubic response)
  Hans Joergen Aa. Jensen,  Univ. of Southern Denmark,    Denmark     (DALTON; SIRIUS, RESPONS, ABACUS modules, London, and much more)
  Dan Jonsson,              UiT The Arctic U. of Norway,  Norway      (cubic response in RESPONS module)
  Poul Joergensen,          Aarhus University,            Denmark     (RESPONS, ABACUS, and CC modules)
  Maciej Kaminski,          University of Warsaw,         Poland      (CPPh in RESPONS)
  Joanna Kauczor,           Linkoeping University,        Sweden      (Complex polarization propagator (CPP) module)
  Sheela Kirpekar,          Univ. of Southern Denmark,    Denmark     (Mass-velocity & Darwin integrals)
  Wim Klopper,              KIT Karlsruhe,                Germany     (R12 code in CC, SIRIUS, and ABACUS modules)
  Stefan Knecht,            ETH Zurich,                   Switzerland (Parallel CI and MCSCF)
  Rika Kobayashi,           Australian National Univ.,    Australia   (DIIS in CC, London in MCSCF)
  Henrik Koch,              NTNU,                         Norway      (CC module, Cholesky decomposition)
  Jacob Kongsted,           Univ. of Southern Denmark,    Denmark     (Polarizable embedding model, QM/MM)
  Andrea Ligabue,           University of Modena,         Italy       (CTOCD, AOSOPPA)
  Nanna H. List             Univ. of Southern Denmark,    Denmark     (Polarizable embedding model)
  Ola B. Lutnaes,           University of Oslo,           Norway      (DFT Hessian)
  Juan I. Melo,             University of Buenos Aires,   Argentina   (LRESC, Relativistic Effects on NMR Shieldings)
  Kurt V. Mikkelsen,        University of Copenhagen,     Denmark     (MC-SCRF and QM/MM)
  Rolf H. Myhre,            NTNU,                         Norway      (Cholesky, subsystems and ECC2)
  Christian Neiss,          Univ. Erlangen-Nuernberg,     Germany     (CCSD(R12))
  Christian B. Nielsen,     University of Copenhagen,     Denmark     (QM/MM)
  Patrick Norman,           Linkoeping University,        Sweden      (Cubic response and complex frequency response in RESPONS)
  Jeppe Olsen,              Aarhus University,            Denmark     (SIRIUS CI/density modules)
  Jogvan Magnus H. Olsen,   Univ. of Southern Denmark,    Denmark     (Polarizable embedding model, QM/MM)
  Anders Osted,             Copenhagen University,        Denmark     (QM/MM)
  Martin J. Packer,         University of Sheffield,      UK          (SOPPA)
  Filip Pawlowski,          Kazimierz Wielki University,  Poland      (CC3)
  Morten N. Pedersen,       Univ. of Southern Denmark,    Denmark     (Polarizable embedding model)
  Thomas B. Pedersen,       University of Oslo,           Norway      (Cholesky decomposition)
  Patricio F. Provasi,      University of Northeastern,   Argentina   (Analysis of coupling constants in localized orbitals)
  Zilvinas Rinkevicius,     KTH Stockholm,                Sweden      (open-shell DFT, ESR)
  Elias Rudberg,            KTH Stockholm,                Sweden      (DFT grid and basis info)
  Torgeir A. Ruden,         University of Oslo,           Norway      (Numerical derivatives in ABACUS)
  Kenneth Ruud,             UiT The Arctic U. of Norway,  Norway      (DALTON; ABACUS magnetic properties and much more)
  Pawel Salek,              KTH Stockholm,                Sweden      (DALTON; DFT code)
  Claire C. M. Samson       University of Karlsruhe       Germany     (Boys localization, r12 integrals in ERI)
  Alfredo Sanchez de Meras, University of Valencia,       Spain       (CC module, Cholesky decomposition)
  Trond Saue,               Paul Sabatier University,     France      (direct Fock matrix construction)
  Stephan P. A. Sauer,      University of Copenhagen,     Denmark     (SOPPA(CCSD), SOPPA prop., AOSOPPA, vibrational g-factors)
  Bernd Schimmelpfennig,    Forschungszentrum Karlsruhe,  Germany     (AMFI module)
  Kristian Sneskov,         Aarhus University,            Denmark     (Polarizable embedding model, QM/MM)
  Arnfinn H. Steindal,      UiT The Arctic U. of Norway,  Norway      (parallel QM/MM, Polarizable embedding model)
  Casper Steinmann,         Univ. of Southern Denmark,    Denmark     (QFIT, Polarizable embedding model)
  K. O. Sylvester-Hvid,     University of Copenhagen,     Denmark     (MC-SCRF)
  Peter R. Taylor,          VLSCI/Univ. of Melbourne,     Australia   (Symmetry handling ABACUS, integral transformation)
  Andrew M. Teale,          University of Nottingham,     England     (DFT-AC, DFT-D)
  David P. Tew,             University of Bristol,        England     (CCSD(R12))
  Olav Vahtras,             KTH Stockholm,                Sweden      (triplet response, spin-orbit, ESR, TDDFT, open-shell DFT)
  David J. Wilson,          La Trobe University,          Australia   (DFT Hessian and DFT magnetizabilities)
  Hans Agren,               KTH Stockholm,                Sweden      (SIRIUS module, RESPONS, MC-SCRF solvation model)
 --------------------------------------------------------------------------------

     Date and time (Linux)  : Sun Dec  2 12:01:31 2018
     Host name              : n-62-29-12                              

 * Work memory size             :  1280000000 =  9.537 gigabytes.

 * Directories for basis set searches:
   1) /zhome/37/3/129401/NH3NH4/CCSD/AIMD_SAMPLING/nh4_4h2o_nd
   2) /zhome/9a/4/124800/source/dalton/build-mlcc/basis


Compilation information
-----------------------

 Who compiled             | rfaber
 Host                     | hpclogin1
 System                   | Linux-2.6.32-696.1.1.el6.x86_64
 CMake generator          | Unix Makefiles
 Processor                | x86_64
 64-bit integers          | ON
 MPI                      | OFF
 Fortran compiler         | /opt/intel/2016update2/compilers_and_libraries_201
                          | 6.2.181/linux/bin/intel64/ifort
 Fortran compiler version | ifort (IFORT) 16.0.2 20160204
 C compiler               | /opt/intel/2016update2/compilers_and_libraries_201
                          | 6.2.181/linux/bin/intel64/icc
 C compiler version       | icc (ICC) 16.0.2 20160204
 C++ compiler             | /opt/intel/2016update2/compilers_and_libraries_201
                          | 6.2.181/linux/bin/intel64/icpc
 C++ compiler version     | icpc (ICC) 16.0.2 20160204
 Static linking           | OFF
 Last Git revision        | bb4d1599ca5680a9f3980451fc8bbefdba436d59
 Git branch               | mlcc
 Configuration time       | 2017-06-13 16:11:03.928841


   Content of the .dal input file
 ----------------------------------

**DALTON
.RUN WAVE FUNCTIONS
*QMMM
.QMMM
**INTEGRALS
.DIPLEN
**WAVE FUNCTIONS
.CC
*PRINT
!To check the origin of excit
.PRINTL
   0 11
*SCF INP
.THRESH
1.0D-7
*ORBITAL INPUT
.MOSTART
 NEWORB
*CC INP
.RESTART
.CCSD
.THRLEQ
 1.0D-9
.THRENR
 1.0D-10
.FROIMP
4
0
.PRINT
 1
.MAX IT
 1200
.MAXRED
 1200
.MXLRV
1199
*CCSLV
.CCMM
.MXSLIT
200
.MXINIT
4 5
*CCEXCI
.NCCEXC
 30
.CVSEPARA
1
1
*CCLRSD
.DIPOLE
**END OF DALTON INPUT


   Content of the .mol file
 ----------------------------

ATOMBASIS


Atomtypes=4 Charge=1 Nosymm Angstrom
   7.00000    1    Basis=6-311G**
N          0.000000        0.000000        0.000000
   1.00000    4    Basis=6-311G**
H         -0.425935        0.896599       -0.554794
H          0.791967       -0.449760       -0.571556
H         -0.749465       -0.678381        0.184888
H          0.442031        0.394692        0.898963
   8.00000    4    Basis=6-311G**
O         -0.351844        2.108668       -1.650025
O         -2.517600       -1.172349       -0.949832
O          1.625054        0.416112        2.493974
O          2.170129       -1.105711       -1.707235
   1.00000    8    Basis=6-311G**
H         -1.050190        1.952729       -2.430792
H          0.545432        1.807218       -1.906556
H         -2.842822       -2.053586       -0.622778
H         -3.085092       -0.460156       -0.550869
H          2.088798        1.169612        2.025669
H          1.855189        0.559960        3.493746
H          2.084255       -1.966338       -1.171623
H          3.119621       -0.762637       -1.478896


       *******************************************************************
       *********** Output from DALTON general input processing ***********
       *******************************************************************

 --------------------------------------------------------------------------------
   Overall default print level:    0
   Print level for DALTON.STAT:    1

    HERMIT 1- and 2-electron integral sections will be executed
    "Old" integral transformation used (limited to max 255 basis functions)
    Wave function sections will be executed (SIRIUS module)
 --------------------------------------------------------------------------------


 Changes of defaults for *QMMM  :
 --------------------------------

 +------------------+
 |  WORD: | CHANGE: |
 +------------------+
 |   QMMM |       T |
 +------------------+
 


   ****************************************************************************
   *************** Output of molecule and basis set information ***************
   ****************************************************************************


    The two title cards from your ".mol" input:
    ------------------------------------------------------------------------
 1:                                                                         
 2:                                                                         
    ------------------------------------------------------------------------

  Coordinates are entered in Angstrom and converted to atomic units.
          - Conversion factor : 1 bohr = 0.52917721 A

  Atomic type no.    1
  --------------------
  Nuclear charge:   7.00000
  Number of symmetry independent centers:    1
  Number of basis sets to read;    1
  The basis set is "6-311G**" from the basis set library.
  Basis set file used for this atomic type with Z =   7 :
     "/zhome/9a/4/124800/source/dalton/build-mlcc/basis/6-311G**"

  Info about the basis set file: your basis has no documentation.
  Basis set: 6-311G**                                                                        

  Atomic type no.    2
  --------------------
  Nuclear charge:   1.00000
  Number of symmetry independent centers:    4
  Number of basis sets to read;    1
  The basis set is "6-311G**" from the basis set library.
  Basis set file used for this atomic type with Z =   1 :
     "/zhome/9a/4/124800/source/dalton/build-mlcc/basis/6-311G**"

  Info about the basis set file: your basis has no documentation.
  Basis set: 6-311G**                                                                        

  Atomic type no.    3
  --------------------
  Nuclear charge:   8.00000
  Number of symmetry independent centers:    4
  Number of basis sets to read;    1
  The basis set is "6-311G**" from the basis set library.
  Basis set file used for this atomic type with Z =   8 :
     "/zhome/9a/4/124800/source/dalton/build-mlcc/basis/6-311G**"

  Info about the basis set file: your basis has no documentation.
  Basis set: 6-311G**                                                                        

  Atomic type no.    4
  --------------------
  Nuclear charge:   1.00000
  Number of symmetry independent centers:    8
  Number of basis sets to read;    1
  The basis set is "6-311G**" from the basis set library.
  Basis set file used for this atomic type with Z =   1 :
     "/zhome/9a/4/124800/source/dalton/build-mlcc/basis/6-311G**"

  Info about the basis set file: your basis has no documentation.
  Basis set: 6-311G**                                                                        


                         SYMGRP: Point group information
                         -------------------------------

@    Point group: C1 


                                 Isotopic Masses
                                 ---------------

                           N          14.003074
                           H           1.007825
                           H           1.007825
                           H           1.007825
                           H           1.007825
                           O          15.994915
                           O          15.994915
                           O          15.994915
                           O          15.994915
                           H           1.007825
                           H           1.007825
                           H           1.007825
                           H           1.007825
                           H           1.007825
                           H           1.007825
                           H           1.007825
                           H           1.007825

                       Total mass:    90.076634 amu
                       Natural abundance:  98.500 %

 Center-of-mass coordinates (a.u.):    0.369287    0.091457   -0.665169


  Atoms and basis sets
  --------------------

  Number of atom types :    4
  Total number of atoms:   17

  label    atoms   charge   prim   cont     basis
  ----------------------------------------------------------------------
  N           1    7.0000    31    18      [11s5p1d|4s3p1d]                                   
  H           4    1.0000     8     6      [5s1p|3s1p]                                        
  O           4    8.0000    31    18      [11s5p1d|4s3p1d]                                   
  H           8    1.0000     8     6      [5s1p|3s1p]                                        
  ----------------------------------------------------------------------
  total:     17   51.0000   251   162
  ----------------------------------------------------------------------
  Spherical harmonic basis used.

  Threshold for neglecting AO integrals:  1.00D-12


  Cartesian Coordinates (a.u.)
  ----------------------------

  Total number of coordinates:   51
  N       :     1  x   0.0000000000    2  y   0.0000000000    3  z   0.0000000000
  H       :     4  x  -0.8049004970    5  y   1.6943265539    6  z  -1.0484087158
  H       :     7  x   1.4966007300    8  y  -0.8499232220    9  z  -1.0800843051
  H       :    10  x  -1.4162835903   11  y  -1.2819542984   12  z   0.3493876838
  H       :    13  x   0.8353175288   14  y   0.7458597837   15  z   1.6987938665
  O       :    16  x  -0.6648887987   17  y   3.9848050085   18  z  -3.1180953494
  O       :    19  x  -4.7575744923   20  y  -2.2154185329   21  z  -1.7949223448
  O       :    22  x   3.0709069983   23  y   0.7863377173   24  z   4.7129278229
  O       :    25  x   4.1009494659   26  y  -2.0894909634   27  z  -3.2262065810
  H       :    28  x  -1.9845714792   29  y   3.6901230063   30  z  -4.5935311468
  H       :    31  x   1.0307170998   32  y   3.4151470682   33  z  -3.6028686820
  H       :    34  x  -5.3721550021   35  y  -3.8807151141   36  z  -1.1768798567
  H       :    37  x  -5.8299789504   38  y  -0.8695688148   39  z  -1.0409915407
  H       :    40  x   3.9472561504   41  y   2.2102463525   42  z   3.8279596299
  H       :    43  x   3.5057991201   44  y   1.0581710410   45  z   6.6022230903
  H       :    46  x   3.9386711246   47  y  -3.7158402892   48  z  -2.2140465917
  H       :    49  x   5.8952293038   50  y  -1.4411750628   51  z  -2.7947084073

  Max    interatomic separation is    6.7711 Angstrom (   12.7955 Bohr)
  between atoms   15 and   12, "H     " and "H     ".

  Min HX interatomic separation is    0.9807 Angstrom (    1.8533 Bohr)

  Min YX interatomic separation is    2.7005 Angstrom (    5.1033 Bohr)


  Bond distances (Angstrom):
  --------------------------

                  atom 1     atom 2       distance
                  ------     ------       --------
  bond distance:  H          N            1.137149
  bond distance:  H          N            1.075254
  bond distance:  H          N            1.027659
  bond distance:  H          N            1.076712
  bond distance:  H          O            1.059057
  bond distance:  H          O            0.980706
  bond distance:  H          O            0.994642
  bond distance:  H          O            0.994202
  bond distance:  H          O            1.001065
  bond distance:  H          O            1.035953
  bond distance:  H          O            1.017317
  bond distance:  H          O            1.035072


  Bond angles (degrees):
  ----------------------

                  atom 1     atom 2     atom 3         angle
                  ------     ------     ------         -----
  bond angle:     H          N          H            110.264
  bond angle:     H          N          H            109.578
  bond angle:     H          N          H            105.788
  bond angle:     H          N          H            110.896
  bond angle:     H          N          H            107.143
  bond angle:     H          N          H            113.028
  bond angle:     H          O          H            111.420
  bond angle:     H          O          H            108.426
  bond angle:     H          O          H            104.125
  bond angle:     H          O          H            103.986




 Principal moments of inertia (u*A**2) and principal axes
 --------------------------------------------------------

   IA     305.548432          0.787503    0.083685    0.610603
   IB     447.235302         -0.616007    0.075797    0.784085
   IC     486.511599         -0.019335    0.993605   -0.111241


 Rotational constants
 --------------------

               A                   B                   C

           1654.0062           1130.0070           1038.7810 MHz
            0.055172            0.037693            0.034650 cm-1


@  Nuclear repulsion energy :  197.378943987396 Hartree


                     .---------------------------------------.
                     | Starting in Integral Section (HERMIT) |
                     `---------------------------------------'



 ***************************************************************************************
 ****************** Output from **INTEGRALS input processing (HERMIT) ******************
 ***************************************************************************************



    *************************************************************************
    ****************** Output from HERMIT input processing ******************
    *************************************************************************


 Default print level:        1

 * Nuclear model: Point charge

 Calculation of one- and two-electron Hamiltonian integrals.

 The following one-electron property integrals are calculated as requested:
          - overlap integrals
          - dipole length integrals

 Center of mass  (bohr):      0.369286811499      0.091456790952     -0.665168870905
 Operator center (bohr):      0.000000000000      0.000000000000      0.000000000000
 Gauge origin    (bohr):      0.000000000000      0.000000000000      0.000000000000
 Dipole origin   (bohr):      0.000000000000      0.000000000000      0.000000000000
 
  *********************************** 
  QMMM electrostatic potential: 
  Multipole order                                    0
  Isotropic polarization  
  *********************************** 
 
  ---------------- 
  QMMM information 
  ---------------- 
 
  MM coordinates in au 
  -------------------- 
     1    -10.854362      4.017552     -9.859017
     2    -11.591208      5.475387    -10.752377
     3     -9.570348      3.465561    -11.078385
     4      4.309477      4.278304     -3.126306
     5      4.452516      6.029351     -3.705127
     6      5.238767      3.257304     -4.335788
     7      5.600167      9.286341     -3.684909
     8      6.089062     10.260691     -2.079481
     9      7.144421      8.462798     -4.183948
    10    -10.916258     -6.263658     11.338017
    11    -10.201314     -4.684833     10.493647
    12    -12.003962     -5.742725     12.730278
    13      5.457646      5.116827      2.108551
    14      7.241276      5.608533      2.335339
    15      5.164661      4.917725      0.330044
    16      9.598410      6.482018     -5.485153
    17     10.767548      4.945759     -5.350151
    18     10.644257      7.558778     -6.653830
    19     -0.542353     -7.451993      6.605636
    20     -1.032784     -9.194585      6.068685
    21     -0.905615     -7.679384      8.531947
    22      6.591236     -1.641437     11.058919
    23      5.421203     -2.530814     12.387586
    24      7.112493     -3.013760      9.936879
    25     10.375541    -10.331025      4.052795
    26     12.225765    -10.048861      3.844088
    27     10.395752    -11.334471      5.573844
    28      0.570469      6.653682     11.523556
    29      1.509060      8.086439     10.659286
    30      2.005958      5.536327     12.218956
    31     -7.264041      1.065775      1.105044
    32     -8.940908      1.349178      1.757545
    33     -6.114022      2.404355      1.705157
    34      9.864132    -11.229168     -8.844281
    35     11.470774    -10.517137     -9.212222
    36      9.250818    -10.360834     -7.170632
    37      3.629302     -2.922683     -8.416330
    38      3.177971     -4.730391     -8.166737
    39      4.117118     -2.519479     -6.704686
    40    -10.425211      2.336781     -4.439664
    41     -9.327255      1.368373     -5.610988
    42     -9.941620      1.918454     -2.759106
    43     10.820661     -4.228848     -7.181248
    44      9.548839     -5.122399     -6.283887
    45      9.955221     -2.616528     -7.405697
    46     10.129440      7.330384      2.762007
    47     11.346492      7.993676      1.586176
    48     10.631915      7.959432      4.461768
    49      8.494555      7.892745     11.581200
    50      7.339341      6.786417     12.400594
    51      8.716409      9.428853     12.814645
    52     -1.281750      8.316552      0.610262
    53      0.560383      8.552728      1.074109
    54     -1.326508      7.103237     -0.819268
    55     11.176836      2.054968      1.901779
    56     10.421503      1.315372      3.494740
    57     11.085415      3.857670      2.480936
    58      2.004251    -11.685190     -5.755255
    59      3.666089    -12.406347     -5.021358
    60      1.049862    -13.193030     -6.331886
    61     -7.812341     -4.120468      3.419701
    62     -9.349384     -3.617187      2.450102
    63     -6.619544     -2.741070      3.053548
    64     -1.918994     -3.045532      4.618455
    65     -0.636643     -1.996581      5.270425
    66     -1.257186     -4.749107      5.044032
    67     -2.209245      3.933274      7.921254
    68     -0.974178      2.580701      7.429145
    69     -1.041574      4.921134      8.925135
    70     -8.380803     -9.061104     -5.757737
    71     -8.045811    -10.660419     -6.713303
    72     -7.883932     -7.636644     -6.812285
    73     -1.924002      8.988065     -8.213899
    74     -3.184542      7.867965     -7.433746
    75     -1.294999      8.029083     -9.748188
    76     10.910825     -4.337647      0.847659
    77      9.302014     -4.629151      1.627676
    78     10.456042     -3.184502     -0.563010
    79     -2.167678     -8.405865     11.391131
    80     -3.459232     -9.716061     11.548683
    81     -0.625760     -8.835399     12.418849
    82      6.552295    -10.869245      0.335147
    83      8.034813    -10.606659      1.339914
    84      5.465509     -9.317801      0.142671
    85     -6.264947     -1.053951     -6.383259
    86     -6.408503     -2.243286     -7.777181
    87     -5.568314     -1.806444     -4.857188
    88      6.300606     -8.942719     11.396517
    89      5.404717    -10.270076     10.473134
    90      7.630293     -9.826772     12.385558
    91     -0.617449     -0.454566    -10.820137
    92     -1.878932     -1.347369    -11.748374
    93      0.369789     -1.515305     -9.638958
    94      2.853056      1.726926      9.570926
    95      1.650336      1.033846     10.852429
    96      4.459393      1.599477     10.355667
    97     -4.232138      4.471940      3.143763
    98     -3.572242      4.028371      4.754216
    99     -2.972127      5.637934      2.380539
   100     -7.606030     -9.159601      3.257425
   101     -7.200896     -8.748867      1.477976
   102     -7.338583     -7.447222      4.174031
   103     -6.187115    -11.632445     -9.824433
   104     -6.370240    -12.967189    -11.088461
   105     -4.870733    -12.167707     -8.717698
   106      7.787422     -5.648429      7.765667
   107      9.613543     -5.994644      7.953901
   108      6.994619     -6.917917      8.995807
   109     -7.119093      8.757133      9.502817
   110     -6.613408      6.939792      9.801475
   111     -5.831549      9.750588      8.568663
   112     -5.577627     -7.770894     -1.448509
   113     -3.820790     -8.576635     -1.600088
   114     -6.331193     -8.309791     -3.194431
   115      9.749862      0.241507      6.381059
   116     11.016090     -0.555069      7.497630
   117      8.395745      0.751336      7.457918
   118      5.342908     -4.088893      3.290419
   119      6.203264     -4.892299      4.750014
   120      4.932293     -2.338466      4.004700
   121      3.839542      9.960608      8.441894
   122      3.352711      9.752489      6.641924
   123      5.356312      8.879632      8.617206
   124      8.403419      0.140870     -2.221687
   125      9.129431      0.982958     -0.807115
   126      9.612882      0.891393     -3.614201
   127     -6.106675      4.066664     11.098789
   128     -4.578784      3.941600      9.971064
   129     -5.309031      4.076188     12.832384
   130     -9.178795     -2.526554      8.771602
   131     -8.003608     -1.776677      9.935437
   132     -8.073944     -2.847931      7.294755
   133      8.573117      1.296972     -8.598360
   134      8.310284     -0.028338     -9.959065
   135     10.297358      2.044593     -8.904886
   136      2.883102      9.457896      2.804917
   137      4.095859     10.552527      1.834302
   138      3.693473      7.763981      2.611993
   139     -3.722407      2.976052     -7.759934
   140     -2.431443      2.140793     -8.806400
   141     -4.918050      1.476539     -7.159723
   142     -3.752095     -3.104049      9.503862
   143     -3.703141     -4.985666      9.352572
   144     -3.253598     -2.556964      7.854907
   145      2.088642     -8.286598     -9.073169
   146      1.859840     -9.793776     -7.902338
   147      3.504726     -8.904104    -10.141712
   148     -6.481069     -5.599417     -9.059714
   149     -4.870843     -6.483894     -9.610312
   150     -7.935542     -6.037397    -10.299482
   151      5.137948      4.851430     -9.375464
   152      4.679984      5.340676     -7.684116
   153      6.382505      3.361154     -9.069818
   154     11.461334      8.778696      7.457717
   155     13.340427      8.780862      7.838138
   156     10.722304      8.492622      9.116334
   157      7.837390     -8.414625     -4.915964
   158      6.020824     -8.660826     -4.486025
   159      8.936366     -9.170967     -3.519982
   160      3.297939     -6.657719     -0.506227
   161      3.607548     -5.659344      1.081643
   162      1.527700     -7.360784     -0.621947
   163     11.684313     -9.116942     -1.566736
   164     12.824454     -8.650350     -2.891011
   165     11.204800     -7.494788     -0.785654
   166     -7.271009      7.861743     -5.559450
   167     -7.430220      9.048523     -4.212430
   168     -7.866849      6.251131     -4.670301
   169     -3.429479     11.416913      5.150435
   170     -3.208441      9.836144      4.290018
   171     -5.042693     12.216981      4.405466
   172     -9.145670      9.797109     -0.522156
   173     -9.935184     11.427539     -0.601094
   174     -7.610010     10.280932      0.445945
   175     -0.581792     -9.937869     -1.849704
   176     -1.001315    -11.530532     -0.891342
   177      0.311319    -10.614609     -3.496110
 
  MM charges 
  ---------- 
     1     -0.674440
     2      0.337220
     3      0.337220
     4     -0.674440
     5      0.337220
     6      0.337220
     7     -0.674440
     8      0.337220
     9      0.337220
    10     -0.674440
    11      0.337220
    12      0.337220
    13     -0.674440
    14      0.337220
    15      0.337220
    16     -0.674440
    17      0.337220
    18      0.337220
    19     -0.674440
    20      0.337220
    21      0.337220
    22     -0.674440
    23      0.337220
    24      0.337220
    25     -0.674440
    26      0.337220
    27      0.337220
    28     -0.674440
    29      0.337220
    30      0.337220
    31     -0.674440
    32      0.337220
    33      0.337220
    34     -0.674440
    35      0.337220
    36      0.337220
    37     -0.674440
    38      0.337220
    39      0.337220
    40     -0.674440
    41      0.337220
    42      0.337220
    43     -0.674440
    44      0.337220
    45      0.337220
    46     -0.674440
    47      0.337220
    48      0.337220
    49     -0.674440
    50      0.337220
    51      0.337220
    52     -0.674440
    53      0.337220
    54      0.337220
    55     -0.674440
    56      0.337220
    57      0.337220
    58     -0.674440
    59      0.337220
    60      0.337220
    61     -0.674440
    62      0.337220
    63      0.337220
    64     -0.674440
    65      0.337220
    66      0.337220
    67     -0.674440
    68      0.337220
    69      0.337220
    70     -0.674440
    71      0.337220
    72      0.337220
    73     -0.674440
    74      0.337220
    75      0.337220
    76     -0.674440
    77      0.337220
    78      0.337220
    79     -0.674440
    80      0.337220
    81      0.337220
    82     -0.674440
    83      0.337220
    84      0.337220
    85     -0.674440
    86      0.337220
    87      0.337220
    88     -0.674440
    89      0.337220
    90      0.337220
    91     -0.674440
    92      0.337220
    93      0.337220
    94     -0.674440
    95      0.337220
    96      0.337220
    97     -0.674440
    98      0.337220
    99      0.337220
   100     -0.674440
   101      0.337220
   102      0.337220
   103     -0.674440
   104      0.337220
   105      0.337220
   106     -0.674440
   107      0.337220
   108      0.337220
   109     -0.674440
   110      0.337220
   111      0.337220
   112     -0.674440
   113      0.337220
   114      0.337220
   115     -0.674440
   116      0.337220
   117      0.337220
   118     -0.674440
   119      0.337220
   120      0.337220
   121     -0.674440
   122      0.337220
   123      0.337220
   124     -0.674440
   125      0.337220
   126      0.337220
   127     -0.674440
   128      0.337220
   129      0.337220
   130     -0.674440
   131      0.337220
   132      0.337220
   133     -0.674440
   134      0.337220
   135      0.337220
   136     -0.674440
   137      0.337220
   138      0.337220
   139     -0.674440
   140      0.337220
   141      0.337220
   142     -0.674440
   143      0.337220
   144      0.337220
   145     -0.674440
   146      0.337220
   147      0.337220
   148     -0.674440
   149      0.337220
   150      0.337220
   151     -0.674440
   152      0.337220
   153      0.337220
   154     -0.674440
   155      0.337220
   156      0.337220
   157     -0.674440
   158      0.337220
   159      0.337220
   160     -0.674440
   161      0.337220
   162      0.337220
   163     -0.674440
   164      0.337220
   165      0.337220
   166     -0.674440
   167      0.337220
   168      0.337220
   169     -0.674440
   170      0.337220
   171      0.337220
   172     -0.674440
   173      0.337220
   174      0.337220
   175     -0.674440
   176      0.337220
   177      0.337220
 
  MM isotropic polarizabilities in au 
  ----------------------------------- 
     1      5.739350
     2      2.308390
     3      2.308390
     4      5.739350
     5      2.308390
     6      2.308390
     7      5.739350
     8      2.308390
     9      2.308390
    10      5.739350
    11      2.308390
    12      2.308390
    13      5.739350
    14      2.308390
    15      2.308390
    16      5.739350
    17      2.308390
    18      2.308390
    19      5.739350
    20      2.308390
    21      2.308390
    22      5.739350
    23      2.308390
    24      2.308390
    25      5.739350
    26      2.308390
    27      2.308390
    28      5.739350
    29      2.308390
    30      2.308390
    31      5.739350
    32      2.308390
    33      2.308390
    34      5.739350
    35      2.308390
    36      2.308390
    37      5.739350
    38      2.308390
    39      2.308390
    40      5.739350
    41      2.308390
    42      2.308390
    43      5.739350
    44      2.308390
    45      2.308390
    46      5.739350
    47      2.308390
    48      2.308390
    49      5.739350
    50      2.308390
    51      2.308390
    52      5.739350
    53      2.308390
    54      2.308390
    55      5.739350
    56      2.308390
    57      2.308390
    58      5.739350
    59      2.308390
    60      2.308390
    61      5.739350
    62      2.308390
    63      2.308390
    64      5.739350
    65      2.308390
    66      2.308390
    67      5.739350
    68      2.308390
    69      2.308390
    70      5.739350
    71      2.308390
    72      2.308390
    73      5.739350
    74      2.308390
    75      2.308390
    76      5.739350
    77      2.308390
    78      2.308390
    79      5.739350
    80      2.308390
    81      2.308390
    82      5.739350
    83      2.308390
    84      2.308390
    85      5.739350
    86      2.308390
    87      2.308390
    88      5.739350
    89      2.308390
    90      2.308390
    91      5.739350
    92      2.308390
    93      2.308390
    94      5.739350
    95      2.308390
    96      2.308390
    97      5.739350
    98      2.308390
    99      2.308390
   100      5.739350
   101      2.308390
   102      2.308390
   103      5.739350
   104      2.308390
   105      2.308390
   106      5.739350
   107      2.308390
   108      2.308390
   109      5.739350
   110      2.308390
   111      2.308390
   112      5.739350
   113      2.308390
   114      2.308390
   115      5.739350
   116      2.308390
   117      2.308390
   118      5.739350
   119      2.308390
   120      2.308390
   121      5.739350
   122      2.308390
   123      2.308390
   124      5.739350
   125      2.308390
   126      2.308390
   127      5.739350
   128      2.308390
   129      2.308390
   130      5.739350
   131      2.308390
   132      2.308390
   133      5.739350
   134      2.308390
   135      2.308390
   136      5.739350
   137      2.308390
   138      2.308390
   139      5.739350
   140      2.308390
   141      2.308390
   142      5.739350
   143      2.308390
   144      2.308390
   145      5.739350
   146      2.308390
   147      2.308390
   148      5.739350
   149      2.308390
   150      2.308390
   151      5.739350
   152      2.308390
   153      2.308390
   154      5.739350
   155      2.308390
   156      2.308390
   157      5.739350
   158      2.308390
   159      2.308390
   160      5.739350
   161      2.308390
   162      2.308390
   163      5.739350
   164      2.308390
   165      2.308390
   166      5.739350
   167      2.308390
   168      2.308390
   169      5.739350
   170      2.308390
   171      2.308390
   172      5.739350
   173      2.308390
   174      2.308390
   175      5.739350
   176      2.308390
   177      2.308390


     ************************************************************************
     ************************** Output from HERINT **************************
     ************************************************************************



                      Nuclear contribution to dipole moments
                      --------------------------------------

                 au               Debye          C m (/(10**-30)

      x     19.23684692        48.89518464       163.09678025
      y      4.50456284        11.44945597        38.19127421
      z    -32.48352659       -82.56488378      -275.40680754



 Threshold for neglecting two-electron integrals:  1.00D-12
 HERMIT - Number of two-electron integrals written:    36637139 ( 42.0% )
 HERMIT - Megabytes written:                            419.512

  Time used in TWOINT     is       6.57 seconds
  Total CPU  time used in HERMIT:   6.73 seconds
  Total wall time used in HERMIT:   7.44 seconds


                        .----------------------------------.
                        | End of Integral Section (HERMIT) |
                        `----------------------------------'



                   .--------------------------------------------.
                   | Starting in Wave Function Section (SIRIUS) |
                   `--------------------------------------------'

NCCEXCI for singlet:   30
 CCSD_INPUT: core-val requested
 Requested number of core orbs per sym
                     1
 Indices of requested core orbs
                     1
* Read MO coefficients from SIRIUS.RST with label "NEWORB  " and header info:  1Dec18  FOCKDIIS

 **********************************************************************
 *SIRIUS* a direct, restricted step, second order MCSCF program       *
 **********************************************************************

 
     Date and time (Linux)  : Sun Dec  2 12:01:39 2018
     Host name              : n-62-29-12                              

 Title lines from ".mol" input file:
                                                                             
                                                                             

 Print level on unit LUPRI =   2 is   0
 Print level on unit LUW4  =   2 is  11

@    (Integral direct) CC calculation.

@    This is a combination run starting with
@              a restricted, closed shell Hartree-Fock calculation


 Initial molecular orbitals are obtained according to
 ".MOSTART NEWORB" input option

@    QM part is embedded in an environment :

@         Model: QMMM

     Wave function specification
     ============================

     For the specification of the Coupled Cluster: see later.

@    Wave function type        --- CC ---
@    Number of closed shell electrons          50
@    Number of electrons in active shells       0
@    Total charge of the molecule               1

@    Spin multiplicity and 2 M_S                1         0
@    Total number of symmetries                 1 (point group: C1 )
@    Reference state symmetry                   1 (irrep name : A  )

     Orbital specifications
     ======================
@    Abelian symmetry species          All |    1
@                                          |  A  
                                       --- |  ---
@    Occupied SCF orbitals              25 |   25
@    Secondary orbitals                137 |  137
@    Total number of orbitals          162 |  162
@    Number of basis functions         162 |  162

     Optimization information
     ========================
@    Number of configurations                 1
@    Number of orbital rotations           3425
     ------------------------------------------
@    Total number of variables             3426

     Maximum number of Fock   iterations      0
     Maximum number of DIIS   iterations     60
     Maximum number of QC-SCF iterations     60
     Threshold for SCF convergence     1.00D-07


 Changes of defaults for CC:
 ---------------------------


 -Implicit frozen core calculation
 -Excitation energies calculated
 -One-photon absorption strengths will be calculated
 -Oscillator strengths calculated
  
* Read MO coefficients from SIRIUS.RST with label "NEWORB  " and header info:  2Dec18  REORTHO 


 ***********************************************
 ***** DIIS acceleration of SCF iterations *****
 ***********************************************

 C1-DIIS algorithm; max error vectors =    8
 -----------------------------------------------------------------------------

 *** DIIS iteration number    1
 RDSUPM called. NFMAT, ISYMDM(1:NFMAT)                     1
                     1

Calculating AOSUPINT
     (Precalculated two-electron integrals are transformed to P-supermatrix elements.
      Threshold for discarding integrals :  1.00D-12 )
  CPU  time used in FORMSUP    is   4.90 seconds
  WALL time used in FORMSUP    is   9.63 seconds

 ITDIIS, energy, error norm, change in energy, scr.thr., difden:
@ DIIS iter.   1    -361.173825506        7.93649D-08   -3.61D+02  -20    F

@ *** DIIS converged in   1 iterations !
@     Converged SCF energy, gradient:   -361.173825505706    7.94D-08
    - total time used in SIRFCK :              0.00 seconds


 *** SCF orbital energy analysis ***
    (incl. solvent contribution)

 Number of electrons :   50
 Orbital occupations :   25

 Sym       Hartree-Fock orbital energies

1 A     -20.66914123   -20.63795888   -20.62900373   -20.61222414   -15.71612020
         -1.43153508    -1.39623875    -1.39365475    -1.38650314    -1.29820219
         -0.80027221    -0.78326859    -0.77399327    -0.76448615    -0.75189489
         -0.74737632    -0.74424193    -0.68080859    -0.65038099    -0.63294140
         -0.63060289    -0.61912615    -0.58363351    -0.56930347    -0.56328489
          0.05041731     0.09176281     0.12169608     0.13746356     0.16242995
          0.17771489     0.19979689     0.21146133     0.24604187     0.25325852
          0.27223412     0.28911999     0.34613980     0.37500198     0.39095769
          0.46816128     0.48432847     0.49426543     0.51051863     0.52851186
          0.54325161     0.54761999     0.56708676     0.59972736     0.79254193
          0.81856187     0.85508597     0.88284753     0.91621197     0.93414250
          0.94746360     0.98137041     1.00113359     1.01247305     1.04206202
          1.05565354     1.07775616     1.09160994     1.11288977     1.16571094
          1.18849020     1.20878614     1.28343463     1.31113678     1.34038000
          1.41390509     1.41740818     1.43310493     1.44829052     1.44974361
          1.46711061     1.52362644     1.52959790     1.53550830     1.60293326
          1.62545365     1.65294071     1.66644907     1.68581169     1.72810582
          1.76916333     1.79434328     1.81709983     1.82822845     1.84304660
          1.94458145     2.03504850     2.06607000     2.08161033     2.11479333
          2.14824714     2.19823242     2.21256247     2.22414078     2.24261643
          2.25938688     2.26237707     2.30694276     2.37497929     2.45960378
          2.52243302     2.61011373     2.62207150     2.64984016     2.67752262
          2.70424804     2.74016982     2.74532045     2.76304000     2.77941093
          2.78780604     2.89093249     2.94492688     3.15206026     3.18026452
          3.25370826     3.27323914     3.33723590     3.35977012     3.38402929
          3.38570805     3.39113459     3.42331724     3.46112247     3.47836066
          3.53345684     3.55106961     3.57996228     3.59817509     3.86113892
          3.89973868     3.95283496     3.97274083     4.10042499     4.12736149
          4.13130273     4.14617505     4.87230640     4.97932364     5.06002275
          5.23104486     5.32294832     5.34530708     5.36828096     5.66887657
          5.67342719     5.71063158     5.72068043     5.91165535     5.92311443
          6.01020831     6.05538877    36.82422058    51.38547268    51.41805442
         51.44840052    51.45365883

    E(LUMO) :     0.05041731 au (symmetry 1)
  - E(HOMO) :    -0.56328489 au (symmetry 1)
  ------------------------------------------
    gap     :     0.61370220 au

 Deviation from canonical Hartree-Fock orbitals :
 Largest off-diagonal Fock matrix element is  5.63D-09

 --- Writing SIRIFC interface file

 CPU and wall time for SCF :      17.836      23.491


                       .-----------------------------------.
                       | --- Final results from SIRIUS --- |
                       `-----------------------------------'


@    Spin multiplicity:           1
@    Spatial symmetry:            1 ( irrep  A   in C1  )
@    Total charge of molecule:    1

     QM/MM "QMMM" calculation converged :

     Charge contribution:         -0.177809107392
     Dipole contribution:          0.000000000000
     Quadrupole contribution:      0.000000000000
     Electronic Pol. energy:       0.931883638736
     Nuclear pol. energy:         -0.985772448431
     Multipole Pol. energy:       -0.195013707210
     Total QM/MM energy:          -0.426711624296

@    Final HF energy:            -361.173825505706                 
@    Nuclear repulsion:           197.378943987396
@    Electronic energy:          -558.126057868806

@    Final gradient norm:           0.000000079365

 
     Date and time (Linux)  : Sun Dec  2 12:02:02 2018
     Host name              : n-62-29-12                              

File label for MO orbitals:   2Dec18   FOCKDIIS

 Molecular orbitals for symmetry species 1  (A  )
 ------------------------------------------------

    Orbital         1        2        3        4        5        6        7
   1 N   :1s    -0.0000   0.0000  -0.0000  -0.0000  -0.5577  -0.0036   0.0095
   2 N   :1s     0.0000  -0.0000   0.0000   0.0000  -0.4682  -0.0060   0.0157
   3 N   :1s    -0.0000   0.0001  -0.0000  -0.0000  -0.0051   0.0154  -0.0414
   4 N   :1s     0.0002  -0.0004   0.0003   0.0001   0.0013   0.0131  -0.0323
   5 N   :2px    0.0000  -0.0000  -0.0000   0.0000  -0.0001   0.0009  -0.0014
   6 N   :2py    0.0000   0.0000   0.0000  -0.0000   0.0001   0.0004   0.0003
   7 N   :2pz    0.0000   0.0000  -0.0000   0.0000  -0.0002   0.0015   0.0017
   8 N   :2px   -0.0000   0.0000   0.0000  -0.0000   0.0001   0.0011  -0.0015
   9 N   :2py   -0.0000  -0.0000  -0.0000  -0.0000  -0.0000   0.0004  -0.0003
  10 N   :2pz   -0.0000  -0.0000   0.0000  -0.0000   0.0001   0.0019   0.0026
  11 N   :2px    0.0001  -0.0001  -0.0001  -0.0000   0.0000   0.0021  -0.0021
  12 N   :2py    0.0001   0.0001   0.0001  -0.0000   0.0001   0.0009   0.0001
  13 N   :2pz    0.0001   0.0001  -0.0001   0.0001  -0.0001   0.0029   0.0033
  14 N   :3d2-  -0.0000  -0.0000   0.0000   0.0000  -0.0000   0.0001   0.0004
  15 N   :3d1-  -0.0000   0.0000  -0.0000   0.0000   0.0000   0.0001   0.0002
  16 N   :3d0   -0.0000  -0.0000   0.0000   0.0000   0.0000   0.0002   0.0003
  17 N   :3d1+   0.0000  -0.0000  -0.0000   0.0000   0.0000   0.0004   0.0003
  18 N   :3d2+   0.0000   0.0000  -0.0000   0.0000   0.0000   0.0001   0.0000
  19 H   :1s     0.0000  -0.0000   0.0000  -0.0000  -0.0001   0.0019  -0.0086
  20 H   :1s    -0.0001   0.0001  -0.0002   0.0000  -0.0003   0.0004  -0.0078
  21 H   :1s     0.0001  -0.0000  -0.0003  -0.0001  -0.0002   0.0014   0.0034
  22 H   :2px   -0.0000   0.0000  -0.0000   0.0000  -0.0000   0.0001  -0.0005
  23 H   :2py    0.0000  -0.0000  -0.0000  -0.0000   0.0001  -0.0004   0.0003
  25 H   :1s    -0.0000  -0.0000   0.0000  -0.0000  -0.0002   0.0021  -0.0118
  26 H   :1s    -0.0000   0.0002  -0.0000   0.0000  -0.0003   0.0013  -0.0127
  27 H   :1s     0.0000   0.0003   0.0001   0.0000  -0.0002   0.0001   0.0023
  28 H   :2px    0.0000   0.0000   0.0000  -0.0000   0.0001  -0.0005   0.0008
  29 H   :2py   -0.0000  -0.0000  -0.0000   0.0000  -0.0000   0.0002  -0.0005
  30 H   :2pz   -0.0000  -0.0000   0.0000  -0.0000  -0.0000   0.0003  -0.0007
  31 H   :1s    -0.0000  -0.0000   0.0000   0.0000  -0.0002   0.0022  -0.0062
  32 H   :1s    -0.0000   0.0001  -0.0001  -0.0001  -0.0002   0.0009  -0.0039
  33 H   :1s     0.0001  -0.0001   0.0000  -0.0001  -0.0001   0.0011  -0.0016
  34 H   :2px   -0.0000   0.0000  -0.0000   0.0000  -0.0000   0.0003  -0.0012
  35 H   :2py   -0.0000   0.0000  -0.0000  -0.0000  -0.0000   0.0003  -0.0011
  36 H   :2pz   -0.0000  -0.0000   0.0000   0.0000  -0.0000  -0.0002   0.0002
  37 H   :1s     0.0000  -0.0000   0.0000   0.0000  -0.0002   0.0072  -0.0056
  38 H   :1s    -0.0001   0.0001  -0.0001  -0.0001  -0.0004   0.0054  -0.0041
  39 H   :1s    -0.0003  -0.0001   0.0001   0.0001  -0.0001  -0.0011  -0.0021
  40 H   :2px   -0.0000  -0.0000   0.0000   0.0000   0.0001  -0.0002   0.0008
  41 H   :2py    0.0000  -0.0000   0.0000   0.0000   0.0001  -0.0000   0.0006
  42 H   :2pz   -0.0000  -0.0000   0.0000   0.0000   0.0001  -0.0005   0.0015
  43 O   :1s     0.0000  -0.0000  -0.5515  -0.0000  -0.0000  -0.0009   0.0343
  44 O   :1s    -0.0000  -0.0000  -0.4717  -0.0000  -0.0000  -0.0015   0.0573
  45 O   :1s     0.0000   0.0000  -0.0055  -0.0000  -0.0000   0.0042  -0.1632
  46 O   :1s    -0.0000  -0.0000   0.0006   0.0000   0.0001   0.0032  -0.1254
  47 O   :2px    0.0000  -0.0000  -0.0004  -0.0000  -0.0000   0.0001  -0.0038
  48 O   :2py    0.0000   0.0000   0.0008  -0.0000  -0.0000  -0.0002   0.0047
  49 O   :2pz   -0.0000   0.0000   0.0011   0.0000   0.0000  -0.0001   0.0052
  50 O   :2px   -0.0000   0.0000   0.0001   0.0000   0.0000   0.0002  -0.0061
  51 O   :2py   -0.0000  -0.0000  -0.0002   0.0000  -0.0000  -0.0004   0.0083
  52 O   :2pz    0.0000  -0.0000  -0.0005  -0.0000  -0.0000  -0.0001   0.0097
  53 O   :2px    0.0000   0.0000  -0.0000  -0.0000  -0.0000   0.0002  -0.0013
  54 O   :2py    0.0000   0.0000  -0.0001  -0.0000  -0.0000  -0.0002   0.0063
  55 O   :2pz   -0.0000   0.0000   0.0001   0.0000   0.0000  -0.0002   0.0010
  56 O   :3d2-  -0.0000  -0.0000  -0.0000   0.0000   0.0000  -0.0000   0.0009
  57 O   :3d1-  -0.0000   0.0000   0.0000   0.0000  -0.0000  -0.0000  -0.0004
  58 O   :3d0   -0.0000  -0.0000   0.0000   0.0000   0.0000  -0.0000   0.0002
  59 O   :3d1+  -0.0000  -0.0000   0.0000   0.0000   0.0000   0.0000  -0.0003
  60 O   :3d2+  -0.0000   0.0000   0.0001   0.0000  -0.0000   0.0000  -0.0016
  61 O   :1s     0.0000  -0.0000   0.0000  -0.5515  -0.0000  -0.0003   0.0046
  62 O   :1s    -0.0000  -0.0000   0.0000  -0.4717  -0.0000  -0.0005   0.0077
  63 O   :1s     0.0000  -0.0000  -0.0000  -0.0055  -0.0000   0.0013  -0.0219
  64 O   :1s    -0.0000   0.0000  -0.0000   0.0004   0.0000   0.0009  -0.0162
  65 O   :2px   -0.0000   0.0000   0.0000   0.0012   0.0000  -0.0000   0.0008
  66 O   :2py   -0.0000   0.0000   0.0000   0.0002  -0.0000   0.0000   0.0001
  67 O   :2pz   -0.0000   0.0000  -0.0000  -0.0009   0.0000   0.0001  -0.0007
  68 O   :2px    0.0000  -0.0000  -0.0000  -0.0004   0.0000   0.0000   0.0014
  69 O   :2py    0.0000   0.0000  -0.0000  -0.0001   0.0000   0.0000   0.0002
  70 O   :2pz    0.0000  -0.0000   0.0000   0.0003   0.0000   0.0001  -0.0014
  71 O   :2px   -0.0000   0.0000   0.0000   0.0001   0.0000  -0.0001   0.0004
  72 O   :2py   -0.0000   0.0000   0.0000   0.0000  -0.0000  -0.0000  -0.0004
  76 O   :3d0   -0.0000   0.0000   0.0000  -0.0001  -0.0000  -0.0000   0.0001
  77 O   :3d1+   0.0000  -0.0000   0.0000  -0.0001   0.0000  -0.0000   0.0001
  78 O   :3d2+  -0.0000   0.0000   0.0000  -0.0001   0.0000  -0.0000   0.0001
  79 O   :1s    -0.5515   0.0000  -0.0000  -0.0000  -0.0000  -0.1147  -0.0013
  80 O   :1s    -0.4717   0.0000  -0.0000  -0.0000  -0.0000  -0.1917  -0.0022
  81 O   :1s    -0.0054  -0.0000   0.0000   0.0000  -0.0000   0.5454   0.0063
  82 O   :1s     0.0004   0.0000  -0.0000  -0.0000   0.0000   0.4181   0.0055
  83 O   :2px   -0.0009  -0.0000   0.0000   0.0000  -0.0000   0.0165   0.0003
  84 O   :2py   -0.0011   0.0000   0.0000   0.0000  -0.0000   0.0213   0.0003
  85 O   :2pz   -0.0006   0.0000   0.0000   0.0000  -0.0000   0.0079   0.0002
  86 O   :2px    0.0004   0.0000  -0.0000  -0.0000   0.0000   0.0293   0.0005
  87 O   :2py    0.0004  -0.0000  -0.0000  -0.0000   0.0000   0.0379   0.0004
  88 O   :2pz    0.0002  -0.0000  -0.0000  -0.0000   0.0000   0.0153   0.0005
  89 O   :2px   -0.0001  -0.0000   0.0000   0.0000  -0.0000   0.0110  -0.0001
  90 O   :2py   -0.0001   0.0000   0.0000   0.0000  -0.0000   0.0108   0.0002
  91 O   :2pz   -0.0002   0.0000   0.0000   0.0000  -0.0001   0.0011   0.0001
  92 O   :3d2-   0.0001  -0.0000   0.0000   0.0000   0.0000   0.0050   0.0000
  93 O   :3d1-  -0.0001   0.0000  -0.0000  -0.0000  -0.0000  -0.0023  -0.0000
  94 O   :3d0    0.0001   0.0000  -0.0000   0.0000  -0.0000   0.0036   0.0001
  95 O   :3d1+   0.0000   0.0000   0.0000   0.0000   0.0000   0.0005   0.0000
  96 O   :3d2+  -0.0000   0.0000   0.0000   0.0000   0.0000  -0.0020  -0.0000
  97 O   :1s     0.0000   0.5515  -0.0000  -0.0000  -0.0000  -0.0006   0.1089
  98 O   :1s     0.0000   0.4717  -0.0000  -0.0000   0.0000  -0.0011   0.1820
  99 O   :1s    -0.0000   0.0054   0.0000   0.0000  -0.0000   0.0030  -0.5174
 100 O   :1s     0.0000  -0.0006  -0.0000  -0.0000   0.0001   0.0024  -0.4052
 101 O   :2px   -0.0000   0.0010   0.0000  -0.0000  -0.0000   0.0000  -0.0159
 102 O   :2py    0.0000  -0.0007   0.0000   0.0000   0.0000  -0.0000   0.0120
 103 O   :2pz    0.0000   0.0009  -0.0000  -0.0000   0.0000   0.0002  -0.0170
 104 O   :2px    0.0000  -0.0004  -0.0000   0.0000   0.0000   0.0001  -0.0292
 105 O   :2py   -0.0000   0.0003   0.0000  -0.0000  -0.0000  -0.0001   0.0213
 106 O   :2pz   -0.0000  -0.0003   0.0000   0.0000  -0.0000   0.0002  -0.0307
 107 O   :2px    0.0000   0.0001   0.0000  -0.0000  -0.0001   0.0001  -0.0099
 108 O   :2py   -0.0000  -0.0001   0.0000   0.0000   0.0000  -0.0001   0.0083
 109 O   :2pz    0.0000  -0.0001  -0.0000  -0.0000   0.0001   0.0004  -0.0141
 110 O   :3d2-   0.0000  -0.0001   0.0000  -0.0000  -0.0000   0.0000  -0.0029
 111 O   :3d1-  -0.0000   0.0001   0.0000   0.0000  -0.0000  -0.0000   0.0043
 112 O   :3d0   -0.0000   0.0001  -0.0000   0.0000  -0.0000  -0.0000   0.0022
 113 O   :3d1+   0.0000  -0.0000  -0.0000  -0.0000  -0.0000   0.0000  -0.0016
 114 O   :3d2+   0.0000   0.0000   0.0000  -0.0000   0.0000   0.0000  -0.0003
 115 H   :1s    -0.0000  -0.0000  -0.0001  -0.0000   0.0000   0.0005  -0.0205
 116 H   :1s     0.0000   0.0000  -0.0002  -0.0000  -0.0000   0.0004  -0.0162
 117 H   :1s    -0.0000  -0.0000  -0.0000  -0.0000   0.0000  -0.0003   0.0005
 118 H   :2px    0.0000   0.0000  -0.0001  -0.0000  -0.0000   0.0001  -0.0051
 119 H   :2py    0.0000  -0.0000   0.0000  -0.0000  -0.0000   0.0000  -0.0009
 120 H   :2pz    0.0000   0.0000  -0.0001  -0.0000  -0.0000   0.0001  -0.0051
 121 H   :1s     0.0000   0.0000  -0.0002  -0.0000   0.0000   0.0008  -0.0267
 122 H   :1s    -0.0000  -0.0000  -0.0002  -0.0000  -0.0000   0.0002  -0.0209
 123 H   :1s     0.0000   0.0000  -0.0000   0.0000   0.0000   0.0000  -0.0010
 124 H   :2px    0.0000  -0.0000   0.0001   0.0000   0.0000  -0.0001   0.0077
 125 H   :2py    0.0000   0.0000  -0.0000  -0.0000   0.0000   0.0000  -0.0018
 126 H   :2pz   -0.0000  -0.0000  -0.0000   0.0000  -0.0000   0.0000  -0.0016
 127 H   :1s     0.0000  -0.0000  -0.0000  -0.0002   0.0000   0.0002  -0.0033
 128 H   :1s    -0.0000   0.0000   0.0000  -0.0001  -0.0000   0.0002  -0.0030
 129 H   :1s    -0.0000   0.0000  -0.0000  -0.0001   0.0000  -0.0001   0.0003
 130 H   :2px   -0.0000   0.0000   0.0000  -0.0000  -0.0000   0.0000  -0.0003
 131 H   :2py   -0.0000   0.0000   0.0000  -0.0001  -0.0000   0.0001  -0.0011
 132 H   :2pz    0.0000  -0.0000  -0.0000   0.0000   0.0000  -0.0000   0.0003
 133 H   :1s    -0.0000   0.0000   0.0000  -0.0002  -0.0000   0.0002  -0.0034
 134 H   :1s     0.0000  -0.0000  -0.0000  -0.0001  -0.0000   0.0003  -0.0021
 135 H   :1s    -0.0000   0.0000   0.0000  -0.0000   0.0000  -0.0003  -0.0005
 136 H   :2px   -0.0000   0.0000  -0.0000  -0.0000   0.0000   0.0000  -0.0006
 137 H   :2py   -0.0000   0.0000  -0.0000   0.0001   0.0000  -0.0001   0.0008
 138 H   :2pz   -0.0000   0.0000   0.0000   0.0000  -0.0000  -0.0000   0.0004
 139 H   :1s    -0.0002  -0.0000   0.0000  -0.0000   0.0000   0.0850   0.0008
 140 H   :1s    -0.0002   0.0000  -0.0000   0.0000  -0.0000   0.0672   0.0017
 141 H   :1s     0.0000  -0.0000  -0.0000  -0.0000   0.0000  -0.0019  -0.0012
 142 H   :2px    0.0000  -0.0000  -0.0000   0.0000   0.0000  -0.0119  -0.0001
 143 H   :2py    0.0001  -0.0000  -0.0000  -0.0000   0.0000  -0.0196  -0.0003
 144 H   :2pz   -0.0001  -0.0000   0.0000   0.0000   0.0000   0.0139   0.0002
 145 H   :1s    -0.0002   0.0000  -0.0000  -0.0000  -0.0000   0.0757   0.0010
 146 H   :1s    -0.0000  -0.0000   0.0000  -0.0000   0.0000   0.0639   0.0006
 147 H   :1s    -0.0001   0.0000  -0.0000   0.0000  -0.0000  -0.0013   0.0005
 148 H   :2px    0.0000   0.0000  -0.0000  -0.0000   0.0000  -0.0034   0.0000
 149 H   :2py   -0.0000   0.0000  -0.0000  -0.0000  -0.0000  -0.0029  -0.0000
 150 H   :2pz    0.0001   0.0000  -0.0000   0.0000  -0.0000  -0.0262  -0.0003
 151 H   :1s     0.0000   0.0002  -0.0000   0.0000  -0.0000   0.0005  -0.0776
 152 H   :1s    -0.0000   0.0002   0.0000  -0.0000  -0.0000  -0.0002  -0.0598
 153 H   :1s     0.0000  -0.0000  -0.0000   0.0000   0.0001   0.0003   0.0008
 154 H   :2px   -0.0000   0.0000   0.0000   0.0000  -0.0000  -0.0000  -0.0031
 155 H   :2py   -0.0000   0.0001   0.0000   0.0000  -0.0000   0.0001  -0.0215
 156 H   :2pz    0.0000  -0.0001  -0.0000  -0.0000   0.0000  -0.0001   0.0116
 157 H   :1s     0.0000   0.0001   0.0000  -0.0000   0.0000   0.0005  -0.0718
 158 H   :1s    -0.0000   0.0002  -0.0000   0.0000  -0.0000  -0.0004  -0.0535
 159 H   :1s     0.0000   0.0000   0.0000  -0.0000   0.0000   0.0008   0.0012
 160 H   :2px    0.0000  -0.0001   0.0000  -0.0000   0.0000  -0.0001   0.0219
 161 H   :2py    0.0000  -0.0000  -0.0000  -0.0000   0.0000  -0.0000   0.0100
 162 H   :2pz   -0.0000   0.0000   0.0000  -0.0000  -0.0000  -0.0001   0.0047

    Orbital         8        9       10       11       12       13       14
   1 N   :1s    -0.0100   0.0039   0.1090   0.0033   0.0004   0.0006  -0.0013
   2 N   :1s    -0.0165   0.0064   0.1808   0.0056   0.0006   0.0010  -0.0021
   3 N   :1s     0.0442  -0.0174  -0.4920  -0.0172  -0.0029  -0.0026   0.0062
   4 N   :1s     0.0324  -0.0094  -0.3368  -0.0138   0.0118  -0.0139  -0.0022
   5 N   :2px   -0.0014   0.0013  -0.0005   0.0954   0.1268   0.1076   0.0535
   6 N   :2py    0.0029   0.0012   0.0051   0.0784   0.0862  -0.1365   0.0347
   7 N   :2pz   -0.0016  -0.0001  -0.0033   0.0487  -0.0758  -0.0355   0.1271
   8 N   :2px   -0.0027   0.0020  -0.0010   0.1528   0.2025   0.1737   0.0860
   9 N   :2py    0.0061   0.0021   0.0059   0.1250   0.1379  -0.2205   0.0558
  10 N   :2pz   -0.0037  -0.0003  -0.0048   0.0788  -0.1214  -0.0568   0.2042
  11 N   :2px   -0.0055   0.0012  -0.0041   0.1091   0.1440   0.1272   0.0594
  12 N   :2py    0.0062   0.0008   0.0014   0.0903   0.1061  -0.1696   0.0274
  13 N   :2pz   -0.0025   0.0004  -0.0026   0.0506  -0.0923  -0.0328   0.1485
  14 N   :3d2-  -0.0006  -0.0005  -0.0015  -0.0062  -0.0175  -0.0023   0.0047
  15 N   :3d1-  -0.0016  -0.0002  -0.0008   0.0072   0.0039   0.0096   0.0082
  16 N   :3d0   -0.0004   0.0002   0.0011   0.0096   0.0049  -0.0018   0.0089
  17 N   :3d1+   0.0008  -0.0000   0.0005   0.0080   0.0001  -0.0134   0.0089
  18 N   :3d2+  -0.0010  -0.0003  -0.0005   0.0005   0.0001   0.0083   0.0012
  19 H   :1s     0.0175  -0.0008  -0.0576  -0.0012   0.0433  -0.0979  -0.0440
  20 H   :1s     0.0164  -0.0023  -0.0693  -0.0062   0.0600  -0.1341  -0.0620
  21 H   :1s    -0.0093  -0.0003   0.0086  -0.0006   0.0019  -0.0256  -0.0079
  22 H   :2px    0.0008  -0.0000  -0.0085   0.0038   0.0113  -0.0055  -0.0034
  23 H   :2py    0.0017   0.0013   0.0184   0.0048  -0.0023   0.0099   0.0081
  24 H   :2pz   -0.0019  -0.0007  -0.0117   0.0018   0.0000  -0.0117   0.0034
  25 H   :1s     0.0039  -0.0021  -0.0713   0.0054   0.0749   0.1208  -0.0346
  26 H   :1s     0.0053  -0.0020  -0.0804   0.0020   0.1022   0.1703  -0.0485
  27 H   :1s     0.0039  -0.0004   0.0109   0.0043   0.0214   0.0379  -0.0225
  28 H   :2px   -0.0021   0.0006   0.0183   0.0046  -0.0066  -0.0154   0.0094
  29 H   :2py    0.0015  -0.0003  -0.0096   0.0041   0.0114   0.0034  -0.0008
  30 H   :2pz    0.0014  -0.0005  -0.0137   0.0037   0.0061   0.0153   0.0031
  31 H   :1s     0.0064  -0.0060  -0.0798  -0.0891  -0.1262   0.0036  -0.0289
  32 H   :1s     0.0050  -0.0076  -0.0834  -0.1093  -0.1621  -0.0002  -0.0427
  33 H   :1s    -0.0009  -0.0018   0.0057  -0.0199  -0.0204   0.0058  -0.0060
  34 H   :2px    0.0017  -0.0002  -0.0188  -0.0107  -0.0156   0.0064  -0.0026
  35 H   :2py    0.0009  -0.0006  -0.0160  -0.0092  -0.0147  -0.0073  -0.0026
  36 H   :2pz   -0.0002   0.0005   0.0039   0.0059   0.0006  -0.0024   0.0084
  37 H   :1s     0.0057  -0.0020  -0.0729   0.0875   0.0095  -0.0280   0.1097
  38 H   :1s     0.0061  -0.0027  -0.0819   0.1236   0.0096  -0.0386   0.1626
  39 H   :1s     0.0020   0.0006   0.0049   0.0333   0.0019  -0.0160   0.0405
  40 H   :2px   -0.0006   0.0003   0.0099  -0.0015   0.0048   0.0096  -0.0086
  41 H   :2py   -0.0009   0.0003   0.0084  -0.0019   0.0028  -0.0053  -0.0084
  42 H   :2pz   -0.0020   0.0006   0.0204  -0.0145  -0.0067   0.0039  -0.0173
  43 O   :1s    -0.1083  -0.0101  -0.0150   0.0004   0.0048  -0.0040  -0.0054
  44 O   :1s    -0.1810  -0.0169  -0.0252   0.0007   0.0082  -0.0068  -0.0093
  45 O   :1s     0.5144   0.0479   0.0724  -0.0020  -0.0246   0.0211   0.0282
  46 O   :1s     0.4004   0.0376   0.0576  -0.0023  -0.0280   0.0140   0.0359
  47 O   :2px    0.0117   0.0012   0.0015   0.0124   0.0650  -0.0450  -0.1046
  48 O   :2py   -0.0143  -0.0011   0.0017  -0.0010  -0.0274   0.0346   0.0350
  49 O   :2pz   -0.0169  -0.0017  -0.0063   0.0052   0.0368  -0.0586  -0.0435
  50 O   :2px    0.0188   0.0017   0.0018   0.0194   0.1004  -0.0700  -0.1610
  51 O   :2py   -0.0258  -0.0022   0.0019  -0.0018  -0.0419   0.0534   0.0531
  52 O   :2pz   -0.0313  -0.0031  -0.0099   0.0084   0.0579  -0.0911  -0.0686
  53 O   :2px    0.0065   0.0008   0.0019   0.0133   0.0698  -0.0488  -0.1159
  54 O   :2py   -0.0190  -0.0014   0.0013  -0.0001  -0.0357   0.0476   0.0460
  55 O   :2pz   -0.0039  -0.0005  -0.0053   0.0061   0.0463  -0.0752  -0.0538
  56 O   :3d2-  -0.0030  -0.0003  -0.0003  -0.0008  -0.0041   0.0029   0.0061
  57 O   :3d1-   0.0014   0.0001   0.0007  -0.0002  -0.0014   0.0027   0.0013
  58 O   :3d0   -0.0006  -0.0000   0.0001  -0.0005  -0.0041   0.0042   0.0062
  59 O   :3d1+   0.0010   0.0001   0.0002  -0.0008  -0.0052   0.0042   0.0085
  60 O   :3d2+   0.0052   0.0005   0.0011   0.0003   0.0001   0.0013  -0.0009
  61 O   :1s    -0.0083   0.1142  -0.0062  -0.0008  -0.0009  -0.0002   0.0001
  62 O   :1s    -0.0139   0.1908  -0.0104  -0.0013  -0.0015  -0.0004   0.0002
  63 O   :1s     0.0394  -0.5410   0.0292   0.0031   0.0040   0.0014  -0.0008
  64 O   :1s     0.0296  -0.4192   0.0256   0.0023   0.0020  -0.0008  -0.0050
  65 O   :2px   -0.0014   0.0226  -0.0034  -0.0155  -0.0178   0.0017  -0.0093
  66 O   :2py   -0.0001   0.0039  -0.0010  -0.0130  -0.0194  -0.0267  -0.0316
  67 O   :2pz    0.0013  -0.0174   0.0003  -0.0042  -0.0075  -0.0020  -0.0017
  68 O   :2px   -0.0028   0.0397  -0.0061  -0.0252  -0.0283   0.0028  -0.0152
  69 O   :2py   -0.0004   0.0072  -0.0018  -0.0204  -0.0301  -0.0407  -0.0485
  70 O   :2pz    0.0024  -0.0309   0.0005  -0.0066  -0.0115  -0.0029  -0.0028
  71 O   :2px   -0.0003   0.0178  -0.0042  -0.0206  -0.0250   0.0005  -0.0135
  72 O   :2py    0.0014   0.0009  -0.0004  -0.0134  -0.0204  -0.0309  -0.0349
  73 O   :2pz    0.0003  -0.0088   0.0010  -0.0061  -0.0123  -0.0031  -0.0026
  74 O   :3d2-  -0.0001   0.0010  -0.0002   0.0006   0.0012   0.0020   0.0022
  75 O   :3d1-   0.0001   0.0002  -0.0000  -0.0008  -0.0012  -0.0018  -0.0020
  76 O   :3d0   -0.0002   0.0031  -0.0002  -0.0006  -0.0009  -0.0002  -0.0005
  77 O   :3d1+  -0.0003   0.0042  -0.0005  -0.0009  -0.0009   0.0002  -0.0004
  78 O   :3d2+  -0.0002   0.0042  -0.0005  -0.0005  -0.0006  -0.0007  -0.0009
  79 O   :1s     0.0011  -0.0004  -0.0046   0.0015  -0.0012   0.0003  -0.0048
  80 O   :1s     0.0019  -0.0006  -0.0078   0.0025  -0.0021   0.0006  -0.0082
  81 O   :1s    -0.0053   0.0017   0.0222  -0.0067   0.0064  -0.0021   0.0250
  82 O   :1s    -0.0045   0.0013   0.0174  -0.0109   0.0115  -0.0027   0.0473
  83 O   :2px   -0.0003   0.0001   0.0025   0.0061  -0.0182   0.0096  -0.0579
  84 O   :2py   -0.0002   0.0001   0.0014   0.0579  -0.0465   0.0082  -0.0730
  85 O   :2pz   -0.0002   0.0001   0.0028  -0.1633   0.0951  -0.0180   0.0690
  86 O   :2px   -0.0005   0.0001   0.0037   0.0090  -0.0280   0.0146  -0.0884
  87 O   :2py   -0.0005   0.0001   0.0022   0.0877  -0.0706   0.0127  -0.1103
  88 O   :2pz   -0.0005   0.0001   0.0042  -0.2510   0.1457  -0.0273   0.1055
  89 O   :2px    0.0001   0.0001   0.0028  -0.0006  -0.0182   0.0122  -0.0744
  90 O   :2py   -0.0000   0.0000   0.0016   0.0657  -0.0549   0.0080  -0.0917
  91 O   :2pz    0.0006   0.0001   0.0020  -0.1941   0.1134  -0.0239   0.0817
  92 O   :3d2-  -0.0001   0.0000   0.0003   0.0050  -0.0042   0.0011  -0.0069
  93 O   :3d1-   0.0000  -0.0000  -0.0001  -0.0097   0.0059  -0.0011   0.0052
  94 O   :3d0   -0.0000   0.0000   0.0001  -0.0111   0.0073  -0.0014   0.0073
  95 O   :3d1+  -0.0000   0.0000   0.0000  -0.0084   0.0053  -0.0011   0.0048
  96 O   :3d2+   0.0000  -0.0000  -0.0001  -0.0034   0.0024  -0.0004   0.0028
  97 O   :1s     0.0358  -0.0022  -0.0076   0.0002   0.0012   0.0028  -0.0004
  98 O   :1s     0.0598  -0.0036  -0.0127   0.0004   0.0021   0.0047  -0.0006
  99 O   :1s    -0.1698   0.0103   0.0363  -0.0011  -0.0059  -0.0132   0.0013
 100 O   :1s    -0.1342   0.0083   0.0289  -0.0006  -0.0030  -0.0151   0.0032
 101 O   :2px   -0.0055   0.0004   0.0036   0.0010  -0.0311  -0.0739   0.0326
 102 O   :2py    0.0041  -0.0003  -0.0021   0.0037   0.0010  -0.0319   0.0150
 103 O   :2pz   -0.0055   0.0003  -0.0004   0.0013   0.0124   0.0311  -0.0089
 104 O   :2px   -0.0099   0.0007   0.0054   0.0015  -0.0479  -0.1140   0.0502
 105 O   :2py    0.0071  -0.0005  -0.0030   0.0057   0.0015  -0.0485   0.0228
 106 O   :2pz   -0.0098   0.0005   0.0001   0.0019   0.0189   0.0470  -0.0139
 107 O   :2px   -0.0035   0.0001   0.0042   0.0019  -0.0398  -0.0914   0.0408
 108 O   :2py    0.0037  -0.0001  -0.0028   0.0041   0.0058  -0.0313   0.0149
 109 O   :2pz   -0.0054   0.0003  -0.0012   0.0029   0.0180   0.0431  -0.0101
 110 O   :3d2-  -0.0010   0.0001   0.0002   0.0001  -0.0004  -0.0015   0.0007
 111 O   :3d1-   0.0015  -0.0001  -0.0003   0.0003  -0.0002  -0.0032   0.0014
 112 O   :3d0    0.0007  -0.0000  -0.0003   0.0001   0.0014   0.0032  -0.0011
 113 O   :3d1+  -0.0005   0.0000   0.0002   0.0001  -0.0015  -0.0036   0.0016
 114 O   :3d2+  -0.0001   0.0000   0.0001   0.0002  -0.0016  -0.0058   0.0025
 115 H   :1s     0.0648   0.0060   0.0105  -0.0083  -0.0486   0.0490   0.0704
 116 H   :1s     0.0519   0.0056   0.0095  -0.0109  -0.0631   0.0647   0.0932
 117 H   :1s    -0.0009  -0.0015  -0.0012  -0.0024  -0.0105   0.0103   0.0147
 118 H   :2px    0.0161   0.0015   0.0026  -0.0013  -0.0078   0.0095   0.0105
 119 H   :2py    0.0030   0.0003   0.0008  -0.0003  -0.0033   0.0039   0.0046
 120 H   :2pz    0.0161   0.0015   0.0025  -0.0020  -0.0105   0.0093   0.0156
 121 H   :1s     0.0843   0.0078   0.0113   0.0079   0.0415  -0.0250  -0.0685
 122 H   :1s     0.0635   0.0060   0.0088   0.0109   0.0583  -0.0300  -0.0934
 123 H   :1s    -0.0032   0.0001  -0.0034   0.0003   0.0101  -0.0049  -0.0138
 124 H   :2px   -0.0236  -0.0023  -0.0036  -0.0013  -0.0080   0.0036   0.0136
 125 H   :2py    0.0060   0.0005   0.0015   0.0004  -0.0007   0.0015  -0.0010
 126 H   :2pz    0.0046   0.0004   0.0003   0.0011   0.0069  -0.0065  -0.0089
 127 H   :1s     0.0059  -0.0841   0.0055   0.0118   0.0159   0.0170   0.0227
 128 H   :1s     0.0059  -0.0624   0.0036   0.0142   0.0206   0.0213   0.0298
 129 H   :1s    -0.0008   0.0013  -0.0007   0.0026   0.0025   0.0044   0.0050
 130 H   :2px    0.0006  -0.0071   0.0001  -0.0004  -0.0002   0.0017   0.0012
 131 H   :2py    0.0019  -0.0235   0.0011   0.0024   0.0033   0.0033   0.0047
 132 H   :2pz   -0.0006   0.0066  -0.0006  -0.0016  -0.0022  -0.0016  -0.0024
 133 H   :1s     0.0062  -0.0828   0.0050  -0.0011  -0.0045  -0.0153  -0.0134
 134 H   :1s     0.0029  -0.0573   0.0013  -0.0046  -0.0081  -0.0193  -0.0194
 135 H   :1s     0.0025   0.0033  -0.0014  -0.0000  -0.0015  -0.0046  -0.0016
 136 H   :2px    0.0010  -0.0141  -0.0002  -0.0024  -0.0032  -0.0031  -0.0039
 137 H   :2py   -0.0015   0.0194  -0.0008  -0.0005  -0.0002   0.0019   0.0012
 138 H   :2pz   -0.0006   0.0098  -0.0007  -0.0002   0.0000   0.0019   0.0018
 139 H   :1s    -0.0008   0.0003   0.0033   0.0941  -0.0664   0.0143  -0.0824
 140 H   :1s    -0.0007   0.0002   0.0031   0.1296  -0.0909   0.0189  -0.1105
 141 H   :1s     0.0001  -0.0001  -0.0031   0.0261  -0.0165   0.0058  -0.0257
 142 H   :2px    0.0001  -0.0000  -0.0001  -0.0143   0.0082  -0.0012   0.0069
 143 H   :2py    0.0001  -0.0001  -0.0007  -0.0201   0.0135  -0.0030   0.0156
 144 H   :2pz   -0.0002   0.0001   0.0010   0.0025  -0.0043   0.0012  -0.0099
 145 H   :1s    -0.0008   0.0003   0.0045  -0.1093   0.0618  -0.0111   0.0401
 146 H   :1s    -0.0010   0.0003   0.0049  -0.1396   0.0800  -0.0128   0.0476
 147 H   :1s    -0.0002  -0.0000   0.0003  -0.0352   0.0201  -0.0042   0.0187
 148 H   :2px    0.0000  -0.0000  -0.0002   0.0049  -0.0039   0.0010  -0.0055
 149 H   :2py    0.0000  -0.0000  -0.0002   0.0089  -0.0061   0.0012  -0.0069
 150 H   :2pz    0.0004  -0.0001  -0.0017   0.0266  -0.0144   0.0022  -0.0073
 151 H   :1s    -0.0255   0.0015   0.0052  -0.0021   0.0058   0.0365  -0.0153
 152 H   :1s    -0.0186   0.0014   0.0053  -0.0034   0.0106   0.0530  -0.0241
 153 H   :1s    -0.0006  -0.0003  -0.0038  -0.0022  -0.0009   0.0104  -0.0016
 154 H   :2px   -0.0009   0.0001   0.0006   0.0000  -0.0025  -0.0055   0.0020
 155 H   :2py   -0.0069   0.0004   0.0014  -0.0006   0.0021   0.0097  -0.0040
 156 H   :2pz    0.0037  -0.0002  -0.0012   0.0005   0.0002  -0.0030   0.0020
 157 H   :1s    -0.0236   0.0015   0.0060   0.0018  -0.0187  -0.0528   0.0236
 158 H   :1s    -0.0178   0.0010   0.0047   0.0001  -0.0233  -0.0656   0.0291
 159 H   :1s     0.0010   0.0002  -0.0005   0.0029  -0.0037  -0.0144   0.0064
 160 H   :2px    0.0072  -0.0004  -0.0016  -0.0004   0.0041   0.0123  -0.0055
 161 H   :2py    0.0032  -0.0002  -0.0010   0.0002   0.0029   0.0060  -0.0024
 162 H   :2pz    0.0017  -0.0001  -0.0005   0.0000   0.0023   0.0057  -0.0023

    Orbital        15       16       17       18       19       20       21
   1 N   :1s    -0.0003   0.0022   0.0016  -0.0048   0.0020   0.0026  -0.0036
   2 N   :1s    -0.0004   0.0040   0.0026  -0.0079   0.0032   0.0043  -0.0061
   3 N   :1s     0.0003  -0.0133  -0.0068   0.0201  -0.0062  -0.0092   0.0159
   4 N   :1s     0.0015  -0.0148  -0.0119   0.0427  -0.0356  -0.0427   0.0433
   5 N   :2px   -0.0184   0.0280  -0.0486   0.0270  -0.0174   0.0112  -0.0210
   6 N   :2py   -0.0410  -0.0650   0.0415   0.0152   0.0117  -0.0406   0.0039
   7 N   :2pz    0.0368   0.0949   0.0518   0.0605   0.0236   0.0173  -0.0143
   8 N   :2px   -0.0293   0.0468  -0.0780   0.0425  -0.0259   0.0153  -0.0337
   9 N   :2py   -0.0675  -0.1066   0.0673   0.0231   0.0171  -0.0610   0.0046
  10 N   :2pz    0.0606   0.1544   0.0829   0.0957   0.0368   0.0257  -0.0226
  11 N   :2px   -0.0156   0.0348  -0.0608   0.0377  -0.0386   0.0318  -0.0284
  12 N   :2py   -0.0437  -0.0793   0.0459   0.0298   0.0244  -0.0633   0.0138
  13 N   :2pz    0.0398   0.1111   0.0596   0.0830   0.0305   0.0403  -0.0092
  14 N   :3d2-   0.0058   0.0088   0.0045   0.0018   0.0015   0.0006   0.0007
  15 N   :3d1-   0.0009   0.0070  -0.0022   0.0036  -0.0007   0.0012  -0.0016
  16 N   :3d0   -0.0004   0.0033   0.0015   0.0035   0.0006  -0.0005  -0.0007
  17 N   :3d1+  -0.0009   0.0005   0.0058   0.0033   0.0015  -0.0009  -0.0006
  18 N   :3d2+   0.0008   0.0038  -0.0025   0.0002  -0.0007   0.0005  -0.0007
  19 H   :1s    -0.0318  -0.0820   0.0182  -0.0211   0.0013  -0.0181   0.0095
  20 H   :1s    -0.0438  -0.1160   0.0286  -0.0413  -0.0057  -0.0093   0.0175
  21 H   :1s    -0.0317  -0.0368   0.0040   0.0082  -0.0002   0.0454  -0.0363
  22 H   :2px   -0.0019  -0.0045   0.0003  -0.0004  -0.0002  -0.0026   0.0012
  23 H   :2py    0.0048   0.0120  -0.0007   0.0040   0.0005   0.0124  -0.0057
  24 H   :2pz   -0.0020  -0.0051   0.0049   0.0015   0.0014  -0.0053   0.0015
  25 H   :1s    -0.0132  -0.0045  -0.0591  -0.0132  -0.0175   0.0102  -0.0055
  26 H   :1s    -0.0230  -0.0085  -0.0817  -0.0120  -0.0104   0.0252  -0.0003
  27 H   :1s     0.0002   0.0022  -0.0137  -0.0160   0.0384  -0.0202  -0.0067
  28 H   :2px    0.0011   0.0028   0.0095   0.0031   0.0042  -0.0026  -0.0015
  29 H   :2py   -0.0032  -0.0038  -0.0067  -0.0010  -0.0014  -0.0018   0.0002
  30 H   :2pz   -0.0001   0.0045  -0.0065   0.0025  -0.0056   0.0024  -0.0023
  31 H   :1s     0.0366   0.0299   0.0126  -0.0116   0.0060   0.0135   0.0074
  32 H   :1s     0.0503   0.0405   0.0114  -0.0089   0.0091   0.0287   0.0036
  33 H   :1s     0.0120   0.0060   0.0058  -0.0002   0.0005  -0.0087  -0.0130
  34 H   :2px    0.0068   0.0064  -0.0008   0.0008   0.0011   0.0049   0.0013
  35 H   :2py    0.0024   0.0011   0.0039  -0.0009   0.0013   0.0011   0.0017
  36 H   :2pz    0.0011   0.0046   0.0027   0.0040   0.0017   0.0000   0.0014
  37 H   :1s     0.0076   0.0531   0.0299   0.0414   0.0110   0.0015  -0.0125
  38 H   :1s     0.0089   0.0740   0.0466   0.0659   0.0303  -0.0105  -0.0334
  39 H   :1s     0.0098   0.0308   0.0143  -0.0483  -0.0105   0.0124   0.0046
  40 H   :2px   -0.0021  -0.0032  -0.0061  -0.0054  -0.0027   0.0004   0.0009
  41 H   :2py   -0.0031  -0.0088   0.0003  -0.0023  -0.0011  -0.0018   0.0015
  42 H   :2pz    0.0012  -0.0047  -0.0037  -0.0105  -0.0023   0.0008   0.0033
  43 O   :1s     0.0015   0.0016  -0.0001   0.0002   0.0009  -0.0282   0.0091
  44 O   :1s     0.0027   0.0028  -0.0001   0.0002   0.0014  -0.0480   0.0155
  45 O   :1s    -0.0083  -0.0077  -0.0005   0.0004  -0.0032   0.1475  -0.0486
  46 O   :1s    -0.0198  -0.0351   0.0060  -0.0117  -0.0130   0.2120  -0.0641
  47 O   :2px    0.0999   0.1511   0.0132   0.0122  -0.0008  -0.0288   0.0080
[...]

 REDUCED EIGENVALUES real part:

               Column   1
       1      14.90957169
       2      14.96597669
       3      14.99380559
       4      15.00363136
       5      15.05907328
       6      15.06963488
       7      15.09545972
       8      15.10340302
       9      15.11941376
      10      15.14100612
      11      15.16690447
      12      15.18144820
      13      15.19580340
      14      15.21589468
      15      15.22628539
      16      15.66194388
      17      15.74614656
      18      15.75625234
      19      15.76587376
      20      15.77914176
      21      15.79706477
      22      15.82131647
      23      15.82772914
      24      15.84863846
      25      16.01729940
      26      16.03290462
      27      16.05919414
      28      16.13985065
      29      16.21290923
      30      16.26782752
    ==== End of matrix output ====
      2      15         9.95     0.13E+01
 CCRED CVS/IONIS sigma_                    46 
 project out valence occupied or virtual
 CCRED CVS/IONIS sigma_                    47 
 project out valence occupied or virtual
 CCRED CVS/IONIS sigma_                    48 
 project out valence occupied or virtual
 CCRED CVS/IONIS sigma_                    49 
 project out valence occupied or virtual
 CCRED CVS/IONIS sigma_                    50 
 project out valence occupied or virtual
 CCRED CVS/IONIS sigma_                    51 
 project out valence occupied or virtual
 CCRED CVS/IONIS sigma_                    52 
 project out valence occupied or virtual
 CCRED CVS/IONIS sigma_                    53 
 project out valence occupied or virtual
 CCRED CVS/IONIS sigma_                    54 
 project out valence occupied or virtual
 CCRED CVS/IONIS sigma_                    55 
 project out valence occupied or virtual
 CCRED CVS/IONIS sigma_                    56 
 project out valence occupied or virtual
 CCRED CVS/IONIS sigma_                    57 
 project out valence occupied or virtual
 CCRED CVS/IONIS sigma_                    58 
 project out valence occupied or virtual
 CCRED CVS/IONIS sigma_                    59 
 project out valence occupied or virtual
 CCRED CVS/IONIS sigma_                    60 
 project out valence occupied or virtual

 REDUCED EIGENVALUES real part:

               Column   1
       1      14.90957169
       2      14.96597669
       3      14.99380560
       4      15.00363136
       5      15.05907327
       6      15.06963487
       7      15.09545971
       8      15.10340302
       9      15.11941376
      10      15.14100611
      11      15.16690447
      12      15.18144819
      13      15.19580341
      14      15.21589466
      15      15.22628539
      16      15.37683214
      17      15.44015410
      18      15.45466161
      19      15.46169282
      20      15.47654650
      21      15.49396286
      22      15.51872205
      23      15.52684132
      24      15.54833240
      25      15.94479983
      26      15.95520387
      27      15.97283945
      28      16.08240052
      29      16.10541262
      30      16.18313927
    ==== End of matrix output ====
      3      15         9.95     0.67E+00
 CCRED CVS/IONIS sigma_                    61 
 project out valence occupied or virtual
 CCRED CVS/IONIS sigma_                    62 
 project out valence occupied or virtual
 CCRED CVS/IONIS sigma_                    63 
 project out valence occupied or virtual
 CCRED CVS/IONIS sigma_                    64 
 project out valence occupied or virtual
 CCRED CVS/IONIS sigma_                    65 
 project out valence occupied or virtual
 CCRED CVS/IONIS sigma_                    66 
 project out valence occupied or virtual
 CCRED CVS/IONIS sigma_                    67 
 project out valence occupied or virtual
 CCRED CVS/IONIS sigma_                    68 
 project out valence occupied or virtual
 CCRED CVS/IONIS sigma_                    69 
 project out valence occupied or virtual
 CCRED CVS/IONIS sigma_                    70 
 project out valence occupied or virtual
 CCRED CVS/IONIS sigma_                    71 
 project out valence occupied or virtual
 CCRED CVS/IONIS sigma_                    72 
 project out valence occupied or virtual
 CCRED CVS/IONIS sigma_                    73 
 project out valence occupied or virtual
 CCRED CVS/IONIS sigma_                    74 
 project out valence occupied or virtual
 CCRED CVS/IONIS sigma_                    75 
 project out valence occupied or virtual

 REDUCED EIGENVALUES real part:

               Column   1
       1      14.90957169
       2      14.96597669
       3      14.99380560
       4      15.00363136
       5      15.05907328
       6      15.06963488
       7      15.09545971
       8      15.10340301
       9      15.11941376
      10      15.14100611
      11      15.16690448
      12      15.18144819
      13      15.19580340
      14      15.21589466
      15      15.22628540
      16      15.34239830
      17      15.40410640
      18      15.42093767
      19      15.42701383
      20      15.44305586
      21      15.45986020
      22      15.48486233
      23      15.49324004
      24      15.51537058
      25      15.87740808
      26      15.88865667
      27      15.90898031
      28      16.01146468
      29      16.03672818
      30      16.10146377
    ==== End of matrix output ====
      4      15         9.95     0.93E+00
 CCRED CVS/IONIS sigma_                    76 
 project out valence occupied or virtual
 CCRED CVS/IONIS sigma_                    77 
 project out valence occupied or virtual
 CCRED CVS/IONIS sigma_                    78 
 project out valence occupied or virtual
 CCRED CVS/IONIS sigma_                    79 
 project out valence occupied or virtual
 CCRED CVS/IONIS sigma_                    80 
 project out valence occupied or virtual
 CCRED CVS/IONIS sigma_                    81 
 project out valence occupied or virtual
 CCRED CVS/IONIS sigma_                    82 
 project out valence occupied or virtual
 CCRED CVS/IONIS sigma_                    83 
 project out valence occupied or virtual
 CCRED CVS/IONIS sigma_                    84 
 project out valence occupied or virtual
 CCRED CVS/IONIS sigma_                    85 
 project out valence occupied or virtual
 CCRED CVS/IONIS sigma_                    86 
 project out valence occupied or virtual
 CCRED CVS/IONIS sigma_                    87 
 project out valence occupied or virtual
 CCRED CVS/IONIS sigma_                    88 
 project out valence occupied or virtual
 CCRED CVS/IONIS sigma_                    89 
 project out valence occupied or virtual
 CCRED CVS/IONIS sigma_                    90 
 project out valence occupied or virtual

 REDUCED EIGENVALUES real part:

               Column   1
       1      14.90957168
       2      14.96597670
       3      14.99380560
       4      15.00363136
       5      15.05907327
       6      15.06963488
       7      15.09545970
       8      15.10340300
       9      15.11941376
      10      15.14100611
      11      15.16690448
      12      15.18144819
      13      15.19580341
      14      15.21589465
      15      15.22628541
      16      15.33010687
      17      15.39035656
      18      15.40833200
      19      15.41400691
      20      15.43089012
      21      15.44664950
      22      15.47215427
      23      15.48075539
      24      15.50310176
      25      15.85027360
      26      15.86378208
      27      15.88485101
      28      15.97055168
      29      16.01493802
      30      16.05739597
    ==== End of matrix output ====
      5      15         9.93     0.87E+00
 CCRED CVS/IONIS sigma_                    91 
 project out valence occupied or virtual
 CCRED CVS/IONIS sigma_                    92 
 project out valence occupied or virtual
 CCRED CVS/IONIS sigma_                    93 
 project out valence occupied or virtual
 CCRED CVS/IONIS sigma_                    94 
 project out valence occupied or virtual
 CCRED CVS/IONIS sigma_                    95 
 project out valence occupied or virtual
 CCRED CVS/IONIS sigma_                    96 
 project out valence occupied or virtual
 CCRED CVS/IONIS sigma_                    97 
 project out valence occupied or virtual
 CCRED CVS/IONIS sigma_                    98 
 project out valence occupied or virtual
 CCRED CVS/IONIS sigma_                    99 
 project out valence occupied or virtual
 CCRED CVS/IONIS sigma_                   100 
 project out valence occupied or virtual
 CCRED CVS/IONIS sigma_                   101 
 project out valence occupied or virtual
 CCRED CVS/IONIS sigma_                   102 
 project out valence occupied or virtual
 CCRED CVS/IONIS sigma_                   103 
 project out valence occupied or virtual
 CCRED CVS/IONIS sigma_                   104 
 project out valence occupied or virtual
 CCRED CVS/IONIS sigma_                   105 
 project out valence occupied or virtual

 REDUCED EIGENVALUES real part:

               Column   1
       1      14.90957168
       2      14.96597670
       3      14.99380560
       4      15.00363135
       5      15.05907327
       6      15.06963488
       7      15.09545971
       8      15.10340300
       9      15.11941376
      10      15.14100611
      11      15.16690448
      12      15.18144818
      13      15.19580340
      14      15.21589465
      15      15.22628540
      16      15.33107930
      17      15.39018504
      18      15.40835055
      19      15.41394625
      20      15.43105344
      21      15.44663116
      22      15.47213033
      23      15.48077793
      24      15.50316738
      25      15.81820757
      26      15.83080432
      27      15.85291290
      28      15.93809424
      29      15.98892534
      30      16.01037731
    ==== End of matrix output ====
      6      15        10.02     0.44E+00
 CCRED CVS/IONIS sigma_                   106 
 project out valence occupied or virtual
 CCRED CVS/IONIS sigma_                   107 
 project out valence occupied or virtual
 CCRED CVS/IONIS sigma_                   108 
 project out valence occupied or virtual
 CCRED CVS/IONIS sigma_                   109 
 project out valence occupied or virtual
 CCRED CVS/IONIS sigma_                   110 
 project out valence occupied or virtual
 CCRED CVS/IONIS sigma_                   111 
 project out valence occupied or virtual
 CCRED CVS/IONIS sigma_                   112 
 project out valence occupied or virtual
 CCRED CVS/IONIS sigma_                   113 
 project out valence occupied or virtual
 CCRED CVS/IONIS sigma_                   114 
 project out valence occupied or virtual
 CCRED CVS/IONIS sigma_                   115 
 project out valence occupied or virtual
 CCRED CVS/IONIS sigma_                   116 
 project out valence occupied or virtual
 CCRED CVS/IONIS sigma_                   117 
 project out valence occupied or virtual
 CCRED CVS/IONIS sigma_                   118 
 project out valence occupied or virtual
 CCRED CVS/IONIS sigma_                   119 
 project out valence occupied or virtual
 CCRED CVS/IONIS sigma_                   120 
 project out valence occupied or virtual

 REDUCED EIGENVALUES real part:

               Column   1
       1      14.90957167
       2      14.96597670
       3      14.99380560
       4      15.00363135
       5      15.05907327
       6      15.06963487
       7      15.09545971
       8      15.10340301
       9      15.11941376
      10      15.14100611
      11      15.16690447
      12      15.18144817
      13      15.19580339
      14      15.21589464
      15      15.22628539
      16      15.33326448
      17      15.39132287
      18      15.40938272
      19      15.41503475
      20      15.43209093
      21      15.44767975
      22      15.47313833
      23      15.48183226
      24      15.50421668
      25      15.79774424
      26      15.80946764
      27      15.82854736
      28      15.91791564
      29      15.97131648
      30      15.98831863
    ==== End of matrix output ====
      7      15        10.06     0.52E+00
 CCRED CVS/IONIS sigma_                   121 
 project out valence occupied or virtual
 CCRED CVS/IONIS sigma_                   122 
 project out valence occupied or virtual
 CCRED CVS/IONIS sigma_                   123 
 project out valence occupied or virtual
 CCRED CVS/IONIS sigma_                   124 
 project out valence occupied or virtual
 CCRED CVS/IONIS sigma_                   125 
 project out valence occupied or virtual
 CCRED CVS/IONIS sigma_                   126 
 project out valence occupied or virtual
 CCRED CVS/IONIS sigma_                   127 
 project out valence occupied or virtual
 CCRED CVS/IONIS sigma_                   128 
 project out valence occupied or virtual
 CCRED CVS/IONIS sigma_                   129 
 project out valence occupied or virtual
 CCRED CVS/IONIS sigma_                   130 
 project out valence occupied or virtual
 CCRED CVS/IONIS sigma_                   131 
 project out valence occupied or virtual
 CCRED CVS/IONIS sigma_                   132 
 project out valence occupied or virtual
 CCRED CVS/IONIS sigma_                   133 
 project out valence occupied or virtual
 CCRED CVS/IONIS sigma_                   134 
 project out valence occupied or virtual
 CCRED CVS/IONIS sigma_                   135 
 project out valence occupied or virtual

 REDUCED EIGENVALUES real part:

               Column   1
       1      14.90957166
       2      14.96597671
       3      14.99380560
       4      15.00363135
       5      15.05907326
       6      15.06963487
       7      15.09545970
       8      15.10340301
       9      15.11941376
      10      15.14100611
      11      15.16690448
      12      15.18144818
      13      15.19580340
      14      15.21589464
      15      15.22628540
      16      15.33438620
      17      15.39262650
      18      15.41056217
      19      15.41619975
      20      15.43323392
      21      15.44883855
      22      15.47437131
      23      15.48307141
      24      15.50545182
      25      15.78136104
      26      15.79343950
      27      15.80706232
      28      15.89286574
      29      15.95827552
      30      15.97555123
    ==== End of matrix output ====
      8      15        10.06     0.43E+00
 CCRED CVS/IONIS sigma_                   136 
 project out valence occupied or virtual
 CCRED CVS/IONIS sigma_                   137 
 project out valence occupied or virtual
 CCRED CVS/IONIS sigma_                   138 
 project out valence occupied or virtual
 CCRED CVS/IONIS sigma_                   139 
 project out valence occupied or virtual
 CCRED CVS/IONIS sigma_                   140 
 project out valence occupied or virtual
 CCRED CVS/IONIS sigma_                   141 
 project out valence occupied or virtual
 CCRED CVS/IONIS sigma_                   142 
 project out valence occupied or virtual
 CCRED CVS/IONIS sigma_                   143 
 project out valence occupied or virtual
 CCRED CVS/IONIS sigma_                   144 
 project out valence occupied or virtual
 CCRED CVS/IONIS sigma_                   145 
 project out valence occupied or virtual
 CCRED CVS/IONIS sigma_                   146 
 project out valence occupied or virtual
 CCRED CVS/IONIS sigma_                   147 
 project out valence occupied or virtual
 CCRED CVS/IONIS sigma_                   148 
 project out valence occupied or virtual
 CCRED CVS/IONIS sigma_                   149 
 project out valence occupied or virtual
 CCRED CVS/IONIS sigma_                   150 
 project out valence occupied or virtual

 REDUCED EIGENVALUES real part:

               Column   1
       1      14.90957166
       2      14.96597671
       3      14.99380559
       4      15.00363135
       5      15.05907325
       6      15.06963487
       7      15.09545968
       8      15.10340299
       9      15.11941376
      10      15.14100611
      11      15.16690447
      12      15.18144818
      13      15.19580341
      14      15.21589466
      15      15.22628541
      16      15.33525446
      17      15.39312245
      18      15.41130582
      19      15.41677865
      20      15.43412629
      21      15.44957955
      22      15.47531634
      23      15.48380886
      24      15.50645037
      25      15.76338303
      26      15.77547436
      27      15.78785713
      28      15.79498556
      29      15.86834275
      30      15.93955000
    ==== End of matrix output ====
      9      15         9.94     0.12E+01
 CCRED CVS/IONIS sigma_                   151 
 project out valence occupied or virtual
 CCRED CVS/IONIS sigma_                   152 
 project out valence occupied or virtual
 CCRED CVS/IONIS sigma_                   153 
 project out valence occupied or virtual
 CCRED CVS/IONIS sigma_                   154 
 project out valence occupied or virtual
 CCRED CVS/IONIS sigma_                   155 
 project out valence occupied or virtual
 CCRED CVS/IONIS sigma_                   156 
 project out valence occupied or virtual
 CCRED CVS/IONIS sigma_                   157 
 project out valence occupied or virtual
 CCRED CVS/IONIS sigma_                   158 
 project out valence occupied or virtual
 CCRED CVS/IONIS sigma_                   159 
 project out valence occupied or virtual
 CCRED CVS/IONIS sigma_                   160 
 project out valence occupied or virtual
 CCRED CVS/IONIS sigma_                   161 
 project out valence occupied or virtual
 CCRED CVS/IONIS sigma_                   162 
 project out valence occupied or virtual
 CCRED CVS/IONIS sigma_                   163 
 project out valence occupied or virtual
 CCRED CVS/IONIS sigma_                   164 
 project out valence occupied or virtual
 CCRED CVS/IONIS sigma_                   165 
 project out valence occupied or virtual

 REDUCED EIGENVALUES real part:

               Column   1
       1      14.90957167
       2      14.96597670
       3      14.99380558
       4      15.00363134
       5      15.05907324
       6      15.06963487
       7      15.09545965
       8      15.10340298
       9      15.11941376
      10      15.14100610
      11      15.16690446
      12      15.18144816
      13      15.19580336
      14      15.21589466
      15      15.22628537
      16      15.33518536
      17      15.39153406
      18      15.41096938
      19      15.41600087
      20      15.43423405
      21      15.44911544
      22      15.47516085
      23      15.48312334
      24      15.50627998
      25      15.67104369
      26      15.75022369
      27      15.76267562
      28      15.77260428
      29      15.81965920
      30      15.84700545
    ==== End of matrix output ====


--> ERROR (GPOPEN) UPON TRYING TO OPEN FILE ON UNIT 13
--> with filename CCRE_1___1
--> IOSTAT ERROR CODE RETURNED      30


 QTRACE dump of internal trace stack

 ========================
      level    module
 ========================
          8    GPOPEN      
          7    CC_WRRSP    
          6    CCEQ_SOL    
          5    CC_EXCI     
          4    CC_DRV      
          3    CC          
          2    DALTON      
          1    DALTON main 
 ========================


  --- SEVERE ERROR, PROGRAM WILL BE ABORTED ---
     Date and time (Linux)  : Sun Dec  2 15:51:13 2018
     Host name              : n-62-29-12                              

 Reason: ERROR (GPOPEN) UPON OPENING A FILE

  Total CPU  time used in DALTON:   2 hours 58 minutes 42 seconds
  Total wall time used in DALTON:   3 hours 49 minutes 42 seconds


 QTRACE dump of internal trace stack

 ========================
      level    module
 ========================
          8    GPOPEN      
          7    CC_WRRSP    
          6    CCEQ_SOL    
          5    CC_EXCI     
          4    CC_DRV      
          3    CC          
          2    DALTON      
          1    DALTON main 
 ========================

