

     ************************************************************************
     *************** Dalton - An Electronic Structure Program ***************
     ************************************************************************

    This is output from DALTON release Dalton2017.alpha (2016)
         ( Web site: http://daltonprogram.org )

   ----------------------------------------------------------------------------

    NOTE:
     
    Dalton is an experimental code for the evaluation of molecular
    properties using (MC)SCF, DFT, CI, and CC wave functions.
    The authors accept no responsibility for the performance of
    the code or for the correctness of the results.
     
    The code (in whole or part) is provided under a licence and
    is not to be reproduced for further distribution without
    the written permission of the authors or their representatives.
     
    See the home page "http://daltonprogram.org" for further information.
     
    If results obtained with this code are published,
    the appropriate citations would be both of:
     
       K. Aidas, C. Angeli, K. L. Bak, V. Bakken, R. Bast,
       L. Boman, O. Christiansen, R. Cimiraglia, S. Coriani,
       P. Dahle, E. K. Dalskov, U. Ekstroem,
       T. Enevoldsen, J. J. Eriksen, P. Ettenhuber, B. Fernandez,
       L. Ferrighi, H. Fliegl, L. Frediani, K. Hald, A. Halkier,
       C. Haettig, H. Heiberg, T. Helgaker, A. C. Hennum,
       H. Hettema, E. Hjertenaes, S. Hoest, I.-M. Hoeyvik,
       M. F. Iozzi, B. Jansik, H. J. Aa. Jensen, D. Jonsson,
       P. Joergensen, J. Kauczor, S. Kirpekar,
       T. Kjaergaard, W. Klopper, S. Knecht, R. Kobayashi, H. Koch,
       J. Kongsted, A. Krapp, K. Kristensen, A. Ligabue,
       O. B. Lutnaes, J. I. Melo, K. V. Mikkelsen, R. H. Myhre,
       C. Neiss, C. B. Nielsen, P. Norman, J. Olsen,
       J. M. H. Olsen, A. Osted, M. J. Packer, F. Pawlowski,
       T. B. Pedersen, P. F. Provasi, S. Reine, Z. Rinkevicius,
       T. A. Ruden, K. Ruud, V. Rybkin, P. Salek, C. C. M. Samson,
       A. Sanchez de Meras, T. Saue, S. P. A. Sauer,
       B. Schimmelpfennig, K. Sneskov, A. H. Steindal,
       K. O. Sylvester-Hvid, P. R. Taylor, A. M. Teale,
       E. I. Tellgren, D. P. Tew, A. J. Thorvaldsen, L. Thoegersen,
       O. Vahtras, M. A. Watson, D. J. D. Wilson, M. Ziolkowski
       and H. Agren,
       "The Dalton quantum chemistry program system",
       WIREs Comput. Mol. Sci. 2014, 4:269–284 (doi: 10.1002/wcms.1172)
     
    and
     
       Dalton, a Molecular Electronic Structure Program,
       Release Dalton2017.alpha (2016), see http://daltonprogram.org
   ----------------------------------------------------------------------------

    Authors in alphabetical order (major contribution(s) in parenthesis):

  Kestutis Aidas,           Vilnius University,           Lithuania   (QM/MM)
  Celestino Angeli,         University of Ferrara,        Italy       (NEVPT2)
  Keld L. Bak,              UNI-C,                        Denmark     (AOSOPPA, non-adiabatic coupling, magnetic properties)
  Vebjoern Bakken,          University of Oslo,           Norway      (DALTON; geometry optimizer, symmetry detection)
  Radovan Bast,             UiT The Arctic U. of Norway,  Norway      (DALTON installation and execution frameworks)
  Pablo Baudin,             University of Valencia,       Spain       (Cholesky excitation energies)
  Linus Boman,              NTNU,                         Norway      (Cholesky decomposition and subsystems)
  Ove Christiansen,         Aarhus University,            Denmark     (CC module)
  Renzo Cimiraglia,         University of Ferrara,        Italy       (NEVPT2)
  Sonia Coriani,            University of Trieste,        Italy       (CC module, MCD in RESPONS)
  Janusz Cukras,            University of Trieste,        Italy       (MChD in RESPONS)
  Paal Dahle,               University of Oslo,           Norway      (Parallelization)
  Erik K. Dalskov,          UNI-C,                        Denmark     (SOPPA)
  Thomas Enevoldsen,        Univ. of Southern Denmark,    Denmark     (SOPPA)
  Janus J. Eriksen,         Aarhus University,            Denmark     (Polarizable embedding model, TDA)
  Rasmus Faber,             University of Copenhagen,     Denmark     (Vib.avg. NMR with SOPPA, parallel AO-SOPPA)
  Berta Fernandez,          U. of Santiago de Compostela, Spain       (doublet spin, ESR in RESPONS)
  Lara Ferrighi,            Aarhus University,            Denmark     (PCM Cubic response)
  Heike Fliegl,             University of Oslo,           Norway      (CCSD(R12))
  Luca Frediani,            UiT The Arctic U. of Norway,  Norway      (PCM)
  Bin Gao,                  UiT The Arctic U. of Norway,  Norway      (Gen1Int library)
  Christof Haettig,         Ruhr-University Bochum,       Germany     (CC module)
  Kasper Hald,              Aarhus University,            Denmark     (CC module)
  Asger Halkier,            Aarhus University,            Denmark     (CC module)
  Frederik Beyer Hansen,    University of Copenhagen,     Denmark     (Parallel AO-SOPPA)
  Erik D. Hedegaard,        Univ. of Southern Denmark,    Denmark     (Polarizable embedding model, QM/MM)
  Hanne Heiberg,            University of Oslo,           Norway      (geometry analysis, selected one-electron integrals)
  Trygve Helgaker,          University of Oslo,           Norway      (DALTON; ABACUS, ERI, DFT modules, London, and much more)
  Alf Christian Hennum,     University of Oslo,           Norway      (Parity violation)
  Hinne Hettema,            University of Auckland,       New Zealand (quadratic response in RESPONS; SIRIUS supersymmetry)
  Eirik Hjertenaes,         NTNU,                         Norway      (Cholesky decomposition)
  Pi A. B. Haase,           University of Copenhagen,     Denmark     (Triplet AO-SOPPA)
  Maria Francesca Iozzi,    University of Oslo,           Norway      (RPA)
  Brano Jansik              Technical Univ. of Ostrava    Czech Rep.  (DFT cubic response)
  Hans Joergen Aa. Jensen,  Univ. of Southern Denmark,    Denmark     (DALTON; SIRIUS, RESPONS, ABACUS modules, London, and much more)
  Dan Jonsson,              UiT The Arctic U. of Norway,  Norway      (cubic response in RESPONS module)
  Poul Joergensen,          Aarhus University,            Denmark     (RESPONS, ABACUS, and CC modules)
  Maciej Kaminski,          University of Warsaw,         Poland      (CPPh in RESPONS)
  Joanna Kauczor,           Linkoeping University,        Sweden      (Complex polarization propagator (CPP) module)
  Sheela Kirpekar,          Univ. of Southern Denmark,    Denmark     (Mass-velocity & Darwin integrals)
  Wim Klopper,              KIT Karlsruhe,                Germany     (R12 code in CC, SIRIUS, and ABACUS modules)
  Stefan Knecht,            ETH Zurich,                   Switzerland (Parallel CI and MCSCF)
  Rika Kobayashi,           Australian National Univ.,    Australia   (DIIS in CC, London in MCSCF)
  Henrik Koch,              NTNU,                         Norway      (CC module, Cholesky decomposition)
  Jacob Kongsted,           Univ. of Southern Denmark,    Denmark     (Polarizable embedding model, QM/MM)
  Andrea Ligabue,           University of Modena,         Italy       (CTOCD, AOSOPPA)
  Nanna H. List             Univ. of Southern Denmark,    Denmark     (Polarizable embedding model)
  Ola B. Lutnaes,           University of Oslo,           Norway      (DFT Hessian)
  Juan I. Melo,             University of Buenos Aires,   Argentina   (LRESC, Relativistic Effects on NMR Shieldings)
  Kurt V. Mikkelsen,        University of Copenhagen,     Denmark     (MC-SCRF and QM/MM)
  Rolf H. Myhre,            NTNU,                         Norway      (Cholesky, subsystems and ECC2)
  Christian Neiss,          Univ. Erlangen-Nuernberg,     Germany     (CCSD(R12))
  Christian B. Nielsen,     University of Copenhagen,     Denmark     (QM/MM)
  Patrick Norman,           Linkoeping University,        Sweden      (Cubic response and complex frequency response in RESPONS)
  Jeppe Olsen,              Aarhus University,            Denmark     (SIRIUS CI/density modules)
  Jogvan Magnus H. Olsen,   Univ. of Southern Denmark,    Denmark     (Polarizable embedding model, QM/MM)
  Anders Osted,             Copenhagen University,        Denmark     (QM/MM)
  Martin J. Packer,         University of Sheffield,      UK          (SOPPA)
  Filip Pawlowski,          Kazimierz Wielki University,  Poland      (CC3)
  Morten N. Pedersen,       Univ. of Southern Denmark,    Denmark     (Polarizable embedding model)
  Thomas B. Pedersen,       University of Oslo,           Norway      (Cholesky decomposition)
  Patricio F. Provasi,      University of Northeastern,   Argentina   (Analysis of coupling constants in localized orbitals)
  Zilvinas Rinkevicius,     KTH Stockholm,                Sweden      (open-shell DFT, ESR)
  Elias Rudberg,            KTH Stockholm,                Sweden      (DFT grid and basis info)
  Torgeir A. Ruden,         University of Oslo,           Norway      (Numerical derivatives in ABACUS)
  Kenneth Ruud,             UiT The Arctic U. of Norway,  Norway      (DALTON; ABACUS magnetic properties and much more)
  Pawel Salek,              KTH Stockholm,                Sweden      (DALTON; DFT code)
  Claire C. M. Samson       University of Karlsruhe       Germany     (Boys localization, r12 integrals in ERI)
  Alfredo Sanchez de Meras, University of Valencia,       Spain       (CC module, Cholesky decomposition)
  Trond Saue,               Paul Sabatier University,     France      (direct Fock matrix construction)
  Stephan P. A. Sauer,      University of Copenhagen,     Denmark     (SOPPA(CCSD), SOPPA prop., AOSOPPA, vibrational g-factors)
  Bernd Schimmelpfennig,    Forschungszentrum Karlsruhe,  Germany     (AMFI module)
  Kristian Sneskov,         Aarhus University,            Denmark     (Polarizable embedding model, QM/MM)
  Arnfinn H. Steindal,      UiT The Arctic U. of Norway,  Norway      (parallel QM/MM, Polarizable embedding model)
  Casper Steinmann,         Univ. of Southern Denmark,    Denmark     (QFIT, Polarizable embedding model)
  K. O. Sylvester-Hvid,     University of Copenhagen,     Denmark     (MC-SCRF)
  Peter R. Taylor,          VLSCI/Univ. of Melbourne,     Australia   (Symmetry handling ABACUS, integral transformation)
  Andrew M. Teale,          University of Nottingham,     England     (DFT-AC, DFT-D)
  David P. Tew,             University of Bristol,        England     (CCSD(R12))
  Olav Vahtras,             KTH Stockholm,                Sweden      (triplet response, spin-orbit, ESR, TDDFT, open-shell DFT)
  David J. Wilson,          La Trobe University,          Australia   (DFT Hessian and DFT magnetizabilities)
  Hans Agren,               KTH Stockholm,                Sweden      (SIRIUS module, RESPONS, MC-SCRF solvation model)
 --------------------------------------------------------------------------------

     Date and time (Linux)  : Sat Dec 15 10:10:42 2018
     Host name              : n-62-29-9                               

 * Work memory size             :  1280000000 =  9.537 gigabytes.

 * Directories for basis set searches:
   1) /zhome/37/3/129401/NH3NH4/CCSD/AIMD_SAMPLING/nh4_4h2o_nd
   2) /zhome/9a/4/124800/source/dalton/build-mlcc/basis


Compilation information
-----------------------

 Who compiled             | rfaber
 Host                     | hpclogin1
 System                   | Linux-2.6.32-696.1.1.el6.x86_64
 CMake generator          | Unix Makefiles
 Processor                | x86_64
 64-bit integers          | ON
 MPI                      | OFF
 Fortran compiler         | /opt/intel/2016update2/compilers_and_libraries_201
                          | 6.2.181/linux/bin/intel64/ifort
 Fortran compiler version | ifort (IFORT) 16.0.2 20160204
 C compiler               | /opt/intel/2016update2/compilers_and_libraries_201
                          | 6.2.181/linux/bin/intel64/icc
 C compiler version       | icc (ICC) 16.0.2 20160204
 C++ compiler             | /opt/intel/2016update2/compilers_and_libraries_201
                          | 6.2.181/linux/bin/intel64/icpc
 C++ compiler version     | icpc (ICC) 16.0.2 20160204
 Static linking           | OFF
 Last Git revision        | bb4d1599ca5680a9f3980451fc8bbefdba436d59
 Git branch               | mlcc
 Configuration time       | 2017-06-13 16:11:03.928841


   Content of the .dal input file
 ----------------------------------

**DALTON
.RUN WAVE FUNCTIONS
*QMMM
.QMMM
**INTEGRALS
.DIPLEN
**WAVE FUNCTIONS
.CC
*PRINT
!To check the origin of excit
.PRINTL
   0 11
*SCF INP
.THRESH
1.0D-7
*ORBITAL INPUT
.MOSTART
 NEWORB
*CC INP
.RESTART
.CCSD
.THRLEQ
 1.0D-9
.THRENR
 1.0D-10
.FROIMP
4
0
.PRINT
 1
.MAX IT
 1200
.MAXRED
 1200
.MXLRV
1199
*CCSLV
.CCMM
.MXSLIT
200
.MXINIT
4 5
*CCEXCI
.NCCEXC
 15
.CVSEPARA
1
1
*CCLRSD
.DIPOLE
**END OF DALTON INPUT


   Content of the .mol file
 ----------------------------

ATOMBASIS


Atomtypes=4 Charge=1 Nosymm Angstrom
   7.00000    1    Basis=6-311G**
N          0.000000        0.000000        0.000000
   1.00000    4    Basis=6-311G**
H          0.122159        0.964434       -0.390433
H          0.905536       -0.528328       -0.124134
H         -0.798532       -0.510082       -0.475449
H         -0.263639       -0.069299        1.105206
   8.00000    4    Basis=6-311G**
O          0.134732        2.365746       -1.800057
O         -2.343082       -1.431459       -1.147158
O         -0.090617        0.337708        2.897085
O          2.275943       -1.848073       -0.569996
   1.00000    8    Basis=6-311G**
H         -0.048792        1.861016       -2.665115
H          0.859010        2.928638       -2.152492
H         -2.472830       -2.324827       -0.834005
H         -3.166343       -0.806029       -0.825882
H          0.437491       -0.169456        3.529990
H         -0.124408        1.214352        3.221125
H          2.233739       -2.811957       -0.282334
H          3.196051       -1.419165       -0.355669


       *******************************************************************
       *********** Output from DALTON general input processing ***********
       *******************************************************************

 --------------------------------------------------------------------------------
   Overall default print level:    0
   Print level for DALTON.STAT:    1

    HERMIT 1- and 2-electron integral sections will be executed
    "Old" integral transformation used (limited to max 255 basis functions)
    Wave function sections will be executed (SIRIUS module)
 --------------------------------------------------------------------------------


 Changes of defaults for *QMMM  :
 --------------------------------

 +------------------+
 |  WORD: | CHANGE: |
 +------------------+
 |   QMMM |       T |
 +------------------+
 


   ****************************************************************************
   *************** Output of molecule and basis set information ***************
   ****************************************************************************


    The two title cards from your ".mol" input:
    ------------------------------------------------------------------------
 1:                                                                         
 2:                                                                         
    ------------------------------------------------------------------------

  Coordinates are entered in Angstrom and converted to atomic units.
          - Conversion factor : 1 bohr = 0.52917721 A

  Atomic type no.    1
  --------------------
  Nuclear charge:   7.00000
  Number of symmetry independent centers:    1
  Number of basis sets to read;    1
  The basis set is "6-311G**" from the basis set library.
  Basis set file used for this atomic type with Z =   7 :
     "/zhome/9a/4/124800/source/dalton/build-mlcc/basis/6-311G**"

  Info about the basis set file: your basis has no documentation.
  Basis set: 6-311G**                                                                        

  Atomic type no.    2
  --------------------
  Nuclear charge:   1.00000
  Number of symmetry independent centers:    4
  Number of basis sets to read;    1
  The basis set is "6-311G**" from the basis set library.
  Basis set file used for this atomic type with Z =   1 :
     "/zhome/9a/4/124800/source/dalton/build-mlcc/basis/6-311G**"

  Info about the basis set file: your basis has no documentation.
  Basis set: 6-311G**                                                                        

  Atomic type no.    3
  --------------------
  Nuclear charge:   8.00000
  Number of symmetry independent centers:    4
  Number of basis sets to read;    1
  The basis set is "6-311G**" from the basis set library.
  Basis set file used for this atomic type with Z =   8 :
     "/zhome/9a/4/124800/source/dalton/build-mlcc/basis/6-311G**"

  Info about the basis set file: your basis has no documentation.
  Basis set: 6-311G**                                                                        

  Atomic type no.    4
  --------------------
  Nuclear charge:   1.00000
  Number of symmetry independent centers:    8
  Number of basis sets to read;    1
  The basis set is "6-311G**" from the basis set library.
  Basis set file used for this atomic type with Z =   1 :
     "/zhome/9a/4/124800/source/dalton/build-mlcc/basis/6-311G**"

  Info about the basis set file: your basis has no documentation.
  Basis set: 6-311G**                                                                        


                         SYMGRP: Point group information
                         -------------------------------

@    Point group: C1 


                                 Isotopic Masses
                                 ---------------

                           N          14.003074
                           H           1.007825
                           H           1.007825
                           H           1.007825
                           H           1.007825
                           O          15.994915
                           O          15.994915
                           O          15.994915
                           O          15.994915
                           H           1.007825
                           H           1.007825
                           H           1.007825
                           H           1.007825
                           H           1.007825
                           H           1.007825
                           H           1.007825
                           H           1.007825

                       Total mass:    90.076634 amu
                       Natural abundance:  98.500 %

 Center-of-mass coordinates (a.u.):    0.010868   -0.228632   -0.213357


  Atoms and basis sets
  --------------------

  Number of atom types :    4
  Total number of atoms:   17

  label    atoms   charge   prim   cont     basis
  ----------------------------------------------------------------------
  N           1    7.0000    31    18      [11s5p1d|4s3p1d]                                   
  H           4    1.0000     8     6      [5s1p|3s1p]                                        
  O           4    8.0000    31    18      [11s5p1d|4s3p1d]                                   
  H           8    1.0000     8     6      [5s1p|3s1p]                                        
  ----------------------------------------------------------------------
  total:     17   51.0000   251   162
  ----------------------------------------------------------------------
  Spherical harmonic basis used.

  Threshold for neglecting AO integrals:  1.00D-12


  Cartesian Coordinates (a.u.)
  ----------------------------

  Total number of coordinates:   51
  N       :     1  x   0.0000000000    2  y   0.0000000000    3  z   0.0000000000
  H       :     4  x   0.2308470537    5  y   1.8225161256    6  z  -0.7378114402
  H       :     7  x   1.7112150363    8  y  -0.9983952242    9  z  -0.2345792628
  H       :    10  x  -1.5090067820   11  y  -0.9639152813   12  z  -0.8984683964
  H       :    13  x  -0.4982055059   14  y  -0.1309561307   15  z   2.0885366517
  O       :    16  x   0.2546065803   17  y   4.4706120213   18  z  -3.4016147394
  O       :    19  x  -4.4277832684   20  y  -2.7050654692   21  z  -2.1678144421
  O       :    22  x  -0.1712413123   23  y   0.6381756302   24  z   5.4746972108
  O       :    25  x   4.3009089461   26  y  -3.4923518290   27  z  -1.0771363323
  H       :    28  x  -0.0922035171   29  y   3.5168105542   30  z  -5.0363374416
  H       :    31  x   1.6232936386   32  y   5.5343237392   33  z  -4.0676203662
  H       :    34  x  -4.6729714537   35  y  -4.3932863180   36  z  -1.5760410369
  H       :    37  x  -5.9835210878   38  y  -1.5231740588   39  z  -1.5606907916
  H       :    40  x   0.8267381721   41  y  -0.3202254302   42  z   6.6707143240
  H       :    43  x  -0.2350970478   44  y   2.2947926993   45  z   6.0870440644
  H       :    46  x   4.2211549447   47  y  -5.3138286053   48  z  -0.5335339358
  H       :    49  x   6.0396610715   50  y  -2.6818331762   51  z  -0.6721170012

  Max    interatomic separation is    6.5375 Angstrom (   12.3540 Bohr)
  between atoms   14 and   10, "H     " and "H     ".

  Min HX interatomic separation is    0.9352 Angstrom (    1.7673 Bohr)

  Min YX interatomic separation is    2.9181 Angstrom (    5.5144 Bohr)


  Bond distances (Angstrom):
  --------------------------

                  atom 1     atom 2       distance
                  ------     ------       --------
  bond distance:  H          N            1.047613
  bond distance:  H          N            1.055715
  bond distance:  H          N            1.060136
  bond distance:  H          N            1.138327
  bond distance:  H          O            1.018214
  bond distance:  H          O            0.982668
  bond distance:  H          O            0.955513
  bond distance:  H          O            1.082654
  bond distance:  H          O            0.967823
  bond distance:  H          O            0.935226
  bond distance:  H          O            1.006779
  bond distance:  H          O            1.037544


  Bond angles (degrees):
  ----------------------

                  atom 1     atom 2     atom 3         angle
                  ------     ------     ------         -----
  bond angle:     H          N          H            108.474
  bond angle:     H          N          H            111.324
  bond angle:     H          N          H            116.417
  bond angle:     H          N          H            110.644
  bond angle:     H          N          H            106.401
  bond angle:     H          N          H            103.396
  bond angle:     H          O          H             96.436
  bond angle:     H          O          H            109.853
  bond angle:     H          O          H            106.519
  bond angle:     H          O          H            111.958




 Principal moments of inertia (u*A**2) and principal axes
 --------------------------------------------------------

   IA     402.755439          0.319907   -0.313274    0.894158
   IB     457.485879         -0.430044    0.792924    0.431664
   IC     465.930047          0.844229    0.522619   -0.118940


 Rotational constants
 --------------------

               A                   B                   C

           1254.8037           1104.6877           1084.6671 MHz
            0.041856            0.036848            0.036181 cm-1


@  Nuclear repulsion energy :  191.763137562563 Hartree


                     .---------------------------------------.
                     | Starting in Integral Section (HERMIT) |
                     `---------------------------------------'



 ***************************************************************************************
 ****************** Output from **INTEGRALS input processing (HERMIT) ******************
 ***************************************************************************************



    *************************************************************************
    ****************** Output from HERMIT input processing ******************
    *************************************************************************


 Default print level:        1

 * Nuclear model: Point charge

 Calculation of one- and two-electron Hamiltonian integrals.

 The following one-electron property integrals are calculated as requested:
          - overlap integrals
          - dipole length integrals

 Center of mass  (bohr):      0.010868360161     -0.228632151536     -0.213357476910
 Operator center (bohr):      0.000000000000      0.000000000000      0.000000000000
 Gauge origin    (bohr):      0.000000000000      0.000000000000      0.000000000000
 Dipole origin   (bohr):      0.000000000000      0.000000000000      0.000000000000
 
  *********************************** 
  QMMM electrostatic potential: 
  Multipole order                                    0
  Isotropic polarization  
  *********************************** 
 
  ---------------- 
  QMMM information 
  ---------------- 
 
  MM coordinates in au 
  -------------------- 
     1     10.172821      6.926634     -8.156583
     2      8.226414      6.926370     -8.504782
     3     10.729343      5.148580     -8.402227
     4      5.895350      3.316284     -3.557976
     5      7.129251      4.600276     -3.210688
     6      6.897345      1.857941     -3.857534
     7      8.306316      7.215318     -0.886025
     8      8.784987      6.145089      0.502752
     9      9.824002      7.948541     -1.709288
    10      9.017308     -6.227628     -9.623742
    11      9.006539     -6.524191    -11.406326
    12     10.799874     -6.673375     -9.039407
    13      5.540771      2.159152      2.240025
    14      5.199880      3.954140      2.838716
    15      5.546756      2.137874      0.422424
    16    -11.205055      8.601145     -3.508089
    17    -11.795447      8.656274     -5.372990
    18    -10.733760     10.439061     -3.224651
    19     -0.053551     -9.271081      4.582355
    20      0.583549    -11.137619      4.491701
    21      0.043110     -8.750505      6.350574
    22      6.058290     -1.927712    -10.795716
    23      4.807044     -2.095591     -9.394705
    24      7.461003     -3.145833    -10.638697
    25      7.506434     10.789648      3.930627
    26      7.810421      9.806186      2.427994
    27      9.005881     11.873106      4.218404
    28      0.287027      7.566195     -8.673098
    29      0.372025      8.543155    -10.304380
    30     -0.830661      6.163291     -9.290255
    31     -8.174925      0.415388     -1.536062
    32     -9.504344      0.219563     -0.132647
    33     -7.882981      2.267533     -1.670652
    34      7.030679    -11.075292     -8.129120
    35      7.445489     -9.342275     -8.037591
    36      6.332266    -11.567582     -6.473956
    37      2.881691     -2.040248     -6.734341
    38      1.581637     -3.485859     -7.048136
    39      3.584846     -2.394504     -5.060724
    40    -10.768064     -2.292846     -6.359000
    41    -10.256366     -3.729580     -7.451466
    42     -9.339061     -1.848708     -5.322079
    43     10.159003     -7.925443     -1.655449
    44      8.747064     -8.951977     -2.327621
    45      9.622457     -7.133527     -0.047990
    46     10.516813      4.431865      3.636740
    47     12.010634      5.443509      3.951043
    48      9.392326      4.850277      5.056941
    49      7.705513     10.662870      9.788143
    50      7.969971      9.011055      9.004845
    51      7.711383     10.638198     11.645090
    52     -3.264149      7.722492     -1.231287
    53     -2.233685      6.315236     -2.010960
    54     -4.888228      7.037416     -1.167528
    55     11.669981     -0.126627      1.899141
    56     12.322844     -0.961774      3.556536
    57     11.068770      1.546692      2.600452
    58     -0.619758     -8.697763     -3.219126
    59      0.881754     -8.727071     -2.192910
    60     -0.902344    -10.433267     -4.050371
    61     -5.528768      0.230923     11.600116
    62     -5.652751     -0.656328     13.236483
    63     -5.340495     -1.058109     10.155558
    64     -4.648896     -2.608128      7.224912
    65     -3.301095     -1.464783      6.703216
    66     -3.832047     -3.891919      8.220305
    67     -9.032150    -10.241690     -2.835315
    68     -8.091441     -9.896214     -4.435138
    69    -10.405936     -8.965968     -2.478858
    70     -2.174591     10.499609     -5.430347
    71     -2.633800      9.621843     -3.814892
    72     -1.288243      8.959135     -6.333820
    73     -9.466859     -5.791187      8.918498
    74    -11.333292     -5.977122      8.507770
    75     -8.970299     -4.209499      8.114006
    76     -3.738237     -7.865773    -11.581285
    77     -3.961714     -9.441051    -12.684424
    78     -3.156162     -8.398704     -9.928001
    79      3.924230      6.996390      3.601374
    80      5.300124      8.176431      3.613646
    81      2.586992      7.745772      2.550917
    82     -3.442028     -1.731182     -7.261212
    83     -2.536080     -3.228102     -7.816353
    84     -3.955522     -2.172131     -5.576200
    85      6.925378     -2.077276      5.175733
    86      6.532579     -0.310607      4.461411
    87      5.221842     -2.041399      6.164876
    88      2.796751     -9.401609    -11.006347
    89      2.381973    -11.087208    -11.779496
    90      4.374567     -9.705333     -9.988805
    91      2.854668     -2.024713      8.296652
    92      1.829801     -3.580814      8.640820
    93      3.810310     -1.720781      9.746894
    94      4.979734      2.851487     10.649451
    95      4.686077      3.976915     12.294212
    96      5.825408      1.227948     11.284961
    97     -6.889354      7.659258      9.643613
    98     -8.148794      7.865358     11.009737
    99     -5.417265      6.657636     10.269802
   100     -6.299776     -8.457156      4.951372
   101     -5.946802     -7.925145      3.275576
   102     -6.808507     -7.122642      6.122267
   103     -5.865708    -10.576087     -7.388092
   104     -7.158233    -11.742373     -8.106373
   105     -4.521345    -11.683283     -6.719178
   106      8.016420     -7.908517      7.819647
   107      7.832537     -9.735160      8.234226
   108      6.457969     -7.003777      7.853156
   109     -9.688114     10.086166    -10.210757
   110    -11.010735      9.225633     -9.285037
   111    -10.572150     10.749373    -11.729630
   112     -5.214484     -7.724977     -0.362106
   113     -3.485594     -8.305991     -0.795580
   114     -6.230952     -9.174229     -1.152113
   115     11.669779     -1.223099      7.251093
   116     11.899808      0.222598      8.412953
   117     10.019738     -1.281351      6.498538
   118      8.446460     -6.017653      2.558436
   119      8.989113     -6.777437      4.128846
   120      8.149924     -4.295788      2.935742
   121      0.796100      9.742111     10.353477
   122     -0.769827     10.633525      9.817658
   123      1.077333      8.183206      9.256325
   124      8.833515     -0.783962     -2.615676
   125      9.749040     -0.273196     -1.080721
   126     10.002882     -2.111708     -3.316252
   127     -2.621184      4.819888     10.966687
   128     -1.165625      4.681341      9.941320
   129     -3.298908      3.101286     11.233316
   130    -10.551267      2.901829     10.885410
   131    -11.032469      2.199836     12.632791
   132     -8.763049      2.751114     10.757332
   133     10.134407      1.433136     -8.672095
   134      8.425255      0.748452     -8.747724
   135     10.889010      0.263022     -7.393370
   136      1.496722      5.463786      7.512816
   137      2.445498      6.342327      6.086152
   138      2.867911      4.571710      8.410203
   139     -0.334296      2.182957     -7.693948
   140      1.114014      1.247860     -7.760391
   141     -1.600864      0.811688     -7.391838
   142      0.269305     -6.450164      9.425689
   143      1.574204     -7.759378      9.927378
   144     -1.185994     -6.648948     10.698042
   145      0.483252     -6.429693     -7.803556
   146      0.011748     -7.411387     -6.175963
   147      0.995256     -7.796163     -9.036300
   148     -9.062818     -6.208342     -9.056949
   149     -8.687855     -5.692133    -10.819763
   150     -7.698079     -7.462506     -8.861861
   151      5.102417      5.622992     -8.087756
   152      3.474887      6.558414     -8.055428
   153      5.250054      4.661057     -6.549543
   154      8.628643      5.225168      8.140900
   155      7.179088      4.436784      9.133534
   156     10.114177      4.384214      8.868445
   157      5.583751     11.571933     -2.544174
   158      5.358857     12.744634     -1.141463
   159      6.136222      9.915461     -1.974032
   160      3.755024     -8.185916      1.017763
   161      5.338697     -8.035718      1.904394
   162      2.413808     -8.422591      2.272556
   163     -9.312665     11.275943      3.012348
   164     -9.601848     11.789586      1.225438
   165     -8.405944     12.826433      3.807509
   166     -7.774770      5.423901     -1.152153
   167     -9.105959      6.476322     -1.819738
   168     -7.978131      5.356404      0.732887
   169     -4.179012    -11.514723      8.707877
   170     -5.214113    -13.067861      8.934217
   171     -4.867506    -10.568169      7.180054
   172     -8.342612      6.747925      4.101477
   173     -8.558288      8.535492      3.538272
   174     -7.642504      6.669769      5.799231
   175      0.341060     10.208573      1.337741
   176     -1.152459      9.405227      0.643310
   177      1.103649     11.295318     -0.038849
 
  MM charges 
  ---------- 
     1     -0.674440
     2      0.337220
     3      0.337220
     4     -0.674440
     5      0.337220
     6      0.337220
     7     -0.674440
     8      0.337220
     9      0.337220
    10     -0.674440
    11      0.337220
    12      0.337220
    13     -0.674440
    14      0.337220
    15      0.337220
    16     -0.674440
    17      0.337220
    18      0.337220
    19     -0.674440
    20      0.337220
    21      0.337220
    22     -0.674440
    23      0.337220
    24      0.337220
    25     -0.674440
    26      0.337220
    27      0.337220
    28     -0.674440
    29      0.337220
    30      0.337220
    31     -0.674440
    32      0.337220
    33      0.337220
    34     -0.674440
    35      0.337220
    36      0.337220
    37     -0.674440
    38      0.337220
    39      0.337220
    40     -0.674440
    41      0.337220
    42      0.337220
    43     -0.674440
    44      0.337220
    45      0.337220
    46     -0.674440
    47      0.337220
    48      0.337220
    49     -0.674440
    50      0.337220
    51      0.337220
    52     -0.674440
    53      0.337220
    54      0.337220
    55     -0.674440
    56      0.337220
    57      0.337220
    58     -0.674440
    59      0.337220
    60      0.337220
    61     -0.674440
    62      0.337220
    63      0.337220
    64     -0.674440
    65      0.337220
    66      0.337220
    67     -0.674440
    68      0.337220
    69      0.337220
    70     -0.674440
    71      0.337220
    72      0.337220
    73     -0.674440
    74      0.337220
    75      0.337220
    76     -0.674440
    77      0.337220
    78      0.337220
    79     -0.674440
    80      0.337220
    81      0.337220
    82     -0.674440
    83      0.337220
    84      0.337220
    85     -0.674440
    86      0.337220
    87      0.337220
    88     -0.674440
    89      0.337220
    90      0.337220
    91     -0.674440
    92      0.337220
    93      0.337220
    94     -0.674440
    95      0.337220
    96      0.337220
    97     -0.674440
    98      0.337220
    99      0.337220
   100     -0.674440
   101      0.337220
   102      0.337220
   103     -0.674440
   104      0.337220
   105      0.337220
   106     -0.674440
   107      0.337220
   108      0.337220
   109     -0.674440
   110      0.337220
   111      0.337220
   112     -0.674440
   113      0.337220
   114      0.337220
   115     -0.674440
   116      0.337220
   117      0.337220
   118     -0.674440
   119      0.337220
   120      0.337220
   121     -0.674440
   122      0.337220
   123      0.337220
   124     -0.674440
   125      0.337220
   126      0.337220
   127     -0.674440
   128      0.337220
   129      0.337220
   130     -0.674440
   131      0.337220
   132      0.337220
   133     -0.674440
   134      0.337220
   135      0.337220
   136     -0.674440
   137      0.337220
   138      0.337220
   139     -0.674440
   140      0.337220
   141      0.337220
   142     -0.674440
   143      0.337220
   144      0.337220
   145     -0.674440
   146      0.337220
   147      0.337220
   148     -0.674440
   149      0.337220
   150      0.337220
   151     -0.674440
   152      0.337220
   153      0.337220
   154     -0.674440
   155      0.337220
   156      0.337220
   157     -0.674440
   158      0.337220
   159      0.337220
   160     -0.674440
   161      0.337220
   162      0.337220
   163     -0.674440
   164      0.337220
   165      0.337220
   166     -0.674440
   167      0.337220
   168      0.337220
   169     -0.674440
   170      0.337220
   171      0.337220
   172     -0.674440
   173      0.337220
   174      0.337220
   175     -0.674440
   176      0.337220
   177      0.337220
 
  MM isotropic polarizabilities in au 
  ----------------------------------- 
     1      5.739350
     2      2.308390
     3      2.308390
     4      5.739350
     5      2.308390
     6      2.308390
     7      5.739350
     8      2.308390
     9      2.308390
    10      5.739350
    11      2.308390
    12      2.308390
    13      5.739350
    14      2.308390
    15      2.308390
    16      5.739350
    17      2.308390
    18      2.308390
    19      5.739350
    20      2.308390
    21      2.308390
    22      5.739350
    23      2.308390
    24      2.308390
    25      5.739350
    26      2.308390
    27      2.308390
    28      5.739350
    29      2.308390
    30      2.308390
    31      5.739350
    32      2.308390
    33      2.308390
    34      5.739350
    35      2.308390
    36      2.308390
    37      5.739350
    38      2.308390
    39      2.308390
    40      5.739350
    41      2.308390
    42      2.308390
    43      5.739350
    44      2.308390
    45      2.308390
    46      5.739350
    47      2.308390
    48      2.308390
    49      5.739350
    50      2.308390
    51      2.308390
    52      5.739350
    53      2.308390
    54      2.308390
    55      5.739350
    56      2.308390
    57      2.308390
    58      5.739350
    59      2.308390
    60      2.308390
    61      5.739350
    62      2.308390
    63      2.308390
    64      5.739350
    65      2.308390
    66      2.308390
    67      5.739350
    68      2.308390
    69      2.308390
    70      5.739350
    71      2.308390
    72      2.308390
    73      5.739350
    74      2.308390
    75      2.308390
    76      5.739350
    77      2.308390
    78      2.308390
    79      5.739350
    80      2.308390
    81      2.308390
    82      5.739350
    83      2.308390
    84      2.308390
    85      5.739350
    86      2.308390
    87      2.308390
    88      5.739350
    89      2.308390
    90      2.308390
    91      5.739350
    92      2.308390
    93      2.308390
    94      5.739350
    95      2.308390
    96      2.308390
    97      5.739350
    98      2.308390
    99      2.308390
   100      5.739350
   101      2.308390
   102      2.308390
   103      5.739350
   104      2.308390
   105      2.308390
   106      5.739350
   107      2.308390
   108      2.308390
   109      5.739350
   110      2.308390
   111      2.308390
   112      5.739350
   113      2.308390
   114      2.308390
   115      5.739350
   116      2.308390
   117      2.308390
   118      5.739350
   119      2.308390
   120      2.308390
   121      5.739350
   122      2.308390
   123      2.308390
   124      5.739350
   125      2.308390
   126      2.308390
   127      5.739350
   128      2.308390
   129      2.308390
   130      5.739350
   131      2.308390
   132      2.308390
   133      5.739350
   134      2.308390
   135      2.308390
   136      5.739350
   137      2.308390
   138      2.308390
   139      5.739350
   140      2.308390
   141      2.308390
   142      5.739350
   143      2.308390
   144      2.308390
   145      5.739350
   146      2.308390
   147      2.308390
   148      5.739350
   149      2.308390
   150      2.308390
   151      5.739350
   152      2.308390
   153      2.308390
   154      5.739350
   155      2.308390
   156      2.308390
   157      5.739350
   158      2.308390
   159      2.308390
   160      5.739350
   161      2.308390
   162      2.308390
   163      5.739350
   164      2.308390
   165      2.308390
   166      5.739350
   167      2.308390
   168      2.308390
   169      5.739350
   170      2.308390
   171      2.308390
   172      5.739350
   173      2.308390
   174      2.308390
   175      5.739350
   176      2.308390
   177      2.308390


     ************************************************************************
     ************************** Output from HERINT **************************
     ************************************************************************



                      Nuclear contribution to dipole moments
                      --------------------------------------

                 au               Debye          C m (/(10**-30)

      x      1.31383209         3.33942786        11.13913232
      y    -11.86620828       -30.16089108      -100.60590344
      z     -9.84585106       -25.02565557       -83.47660157



 Threshold for neglecting two-electron integrals:  1.00D-12
 HERMIT - Number of two-electron integrals written:    32817146 ( 37.6% )
 HERMIT - Megabytes written:                            375.776

  Time used in TWOINT     is       5.73 seconds
  Total CPU  time used in HERMIT:   5.90 seconds
  Total wall time used in HERMIT:   6.57 seconds


                        .----------------------------------.
                        | End of Integral Section (HERMIT) |
                        `----------------------------------'



                   .--------------------------------------------.
                   | Starting in Wave Function Section (SIRIUS) |
                   `--------------------------------------------'

NCCEXCI for singlet:   15
 CCSD_INPUT: core-val requested
 Requested number of core orbs per sym
                     1
 Indices of requested core orbs
                     1
* Read MO coefficients from SIRIUS.RST with label "NEWORB  " and header info: 13Dec18  FOCKDIIS

 **********************************************************************
 *SIRIUS* a direct, restricted step, second order MCSCF program       *
 **********************************************************************

 
     Date and time (Linux)  : Sat Dec 15 10:10:49 2018
     Host name              : n-62-29-9                               

 Title lines from ".mol" input file:
                                                                             
                                                                             

 Print level on unit LUPRI =   2 is   0
 Print level on unit LUW4  =   2 is  11

@    (Integral direct) CC calculation.

@    This is a combination run starting with
@              a restricted, closed shell Hartree-Fock calculation


 Initial molecular orbitals are obtained according to
 ".MOSTART NEWORB" input option

@    QM part is embedded in an environment :

@         Model: QMMM

     Wave function specification
     ============================

     For the specification of the Coupled Cluster: see later.

@    Wave function type        --- CC ---
@    Number of closed shell electrons          50
@    Number of electrons in active shells       0
@    Total charge of the molecule               1

@    Spin multiplicity and 2 M_S                1         0
@    Total number of symmetries                 1 (point group: C1 )
@    Reference state symmetry                   1 (irrep name : A  )

     Orbital specifications
     ======================
@    Abelian symmetry species          All |    1
@                                          |  A  
                                       --- |  ---
@    Occupied SCF orbitals              25 |   25
@    Secondary orbitals                137 |  137
@    Total number of orbitals          162 |  162
@    Number of basis functions         162 |  162

     Optimization information
     ========================
@    Number of configurations                 1
@    Number of orbital rotations           3425
     ------------------------------------------
@    Total number of variables             3426

     Maximum number of Fock   iterations      0
     Maximum number of DIIS   iterations     60
     Maximum number of QC-SCF iterations     60
     Threshold for SCF convergence     1.00D-07


 Changes of defaults for CC:
 ---------------------------


 -Implicit frozen core calculation
 -Excitation energies calculated
 -One-photon absorption strengths will be calculated
 -Oscillator strengths calculated
  
* Read MO coefficients from SIRIUS.RST with label "NEWORB  " and header info: 15Dec18  REORTHO 


 ***********************************************
 ***** DIIS acceleration of SCF iterations *****
 ***********************************************

 C1-DIIS algorithm; max error vectors =    8
 -----------------------------------------------------------------------------

 *** DIIS iteration number    1
 RDSUPM called. NFMAT, ISYMDM(1:NFMAT)                     1
                     1

Calculating AOSUPINT
     (Precalculated two-electron integrals are transformed to P-supermatrix elements.
      Threshold for discarding integrals :  1.00D-12 )
  CPU  time used in FORMSUP    is   4.55 seconds
  WALL time used in FORMSUP    is   8.34 seconds

 ITDIIS, energy, error norm, change in energy, scr.thr., difden:
@ DIIS iter.   1    -361.209018230        9.21539D-08   -3.61D+02  -20    F

@ *** DIIS converged in   1 iterations !
@     Converged SCF energy, gradient:   -361.209018229781    9.22D-08
    - total time used in SIRFCK :              0.00 seconds


 *** SCF orbital energy analysis ***
    (incl. solvent contribution)

 Number of electrons :   50
 Orbital occupations :   25

 Sym       Hartree-Fock orbital energies

1 A     -20.65599695   -20.63496552   -20.61724981   -20.60962793   -15.72488284
         -1.45745098    -1.39142635    -1.38299128    -1.38219321    -1.30754353
         -0.82294874    -0.79552613    -0.78580387    -0.76766472    -0.76326276
         -0.74496239    -0.72000656    -0.67636861    -0.64719892    -0.63482357
         -0.62793235    -0.61696718    -0.58052076    -0.56860091    -0.56144007
          0.05634305     0.09316329     0.11233555     0.12888488     0.16474653
          0.17901834     0.18346502     0.21604396     0.22322278     0.23304648
          0.26819928     0.29008622     0.34121000     0.35547175     0.37380420
          0.47079047     0.49625808     0.50695669     0.50912695     0.51994549
          0.54129206     0.55900644     0.57403336     0.60644602     0.78485255
          0.83744479     0.85312944     0.90337611     0.90928435     0.93469899
          0.94803355     0.98612774     1.00690648     1.02968245     1.03240569
          1.05301551     1.07491739     1.07692841     1.09437996     1.13720606
          1.19003800     1.20271671     1.31021748     1.34277318     1.34787078
          1.35983344     1.39620789     1.42038716     1.42448059     1.45572054
          1.49758041     1.51037111     1.53499480     1.55457766     1.58557187
          1.61233128     1.62877600     1.64108744     1.65935661     1.68740279
          1.76853298     1.81072517     1.81982129     1.85661794     1.92843951
          1.98507370     2.05163637     2.07303502     2.13056934     2.14275281
          2.15052499     2.18459958     2.22833786     2.24075247     2.26439113
          2.29305312     2.30348866     2.33294442     2.34319025     2.47156140
          2.52512689     2.57016562     2.60108927     2.62825808     2.63497198
          2.68394545     2.70520717     2.72646159     2.74852405     2.76389058
          2.82947228     2.86672594     2.89276389     3.12755452     3.16459302
          3.24495038     3.26550453     3.33502166     3.36312023     3.39261750
          3.41505972     3.43511750     3.45286339     3.45809137     3.47767022
          3.51714821     3.55729343     3.60266858     3.62093771     3.90249610
          3.93269881     3.93719576     3.94126722     4.07885749     4.13362638
          4.16042268     4.20841394     4.84229431     5.02100034     5.06096281
          5.23212934     5.27754275     5.30090144     5.31314854     5.68584410
          5.70052774     5.76070836     5.80245918     5.96511080     5.98124787
          6.03834969     6.12612988    36.81995434    51.42211560    51.45564394
         51.45816518    51.46843665

    E(LUMO) :     0.05634305 au (symmetry 1)
  - E(HOMO) :    -0.56144007 au (symmetry 1)
  ------------------------------------------
    gap     :     0.61778312 au

 Deviation from canonical Hartree-Fock orbitals :
 Largest off-diagonal Fock matrix element is  7.05D-09

 --- Writing SIRIFC interface file

 CPU and wall time for SCF :      17.318      21.645


                       .-----------------------------------.
                       | --- Final results from SIRIUS --- |
                       `-----------------------------------'


@    Spin multiplicity:           1
@    Spatial symmetry:            1 ( irrep  A   in C1  )
@    Total charge of molecule:    1

     QM/MM "QMMM" calculation converged :

     Charge contribution:         -0.157971407682
     Dipole contribution:          0.000000000000
     Quadrupole contribution:      0.000000000000
     Electronic Pol. energy:       0.690154225075
     Nuclear pol. energy:         -0.739574690426
     Multipole Pol. energy:       -0.228813283463
     Total QM/MM energy:          -0.436205156496

@    Final HF energy:            -361.209018229781                 
@    Nuclear repulsion:           191.763137562563
@    Electronic energy:          -552.535950635848

@    Final gradient norm:           0.000000092154

 
     Date and time (Linux)  : Sat Dec 15 10:11:11 2018
     Host name              : n-62-29-9                               

File label for MO orbitals:  15Dec18   FOCKDIIS

 Molecular orbitals for symmetry species 1  (A  )
 ------------------------------------------------

    Orbital         1        2        3        4        5        6        7
   1 N   :1s     0.0000  -0.0000   0.0000  -0.0000   0.5577   0.0032   0.0063
   2 N   :1s    -0.0000   0.0000  -0.0000   0.0000   0.4682   0.0053   0.0105
   3 N   :1s     0.0000  -0.0001   0.0001  -0.0000   0.0051  -0.0136  -0.0276
   4 N   :1s    -0.0002   0.0003  -0.0003   0.0002  -0.0013  -0.0109  -0.0209
   5 N   :2px    0.0000   0.0000   0.0000   0.0000   0.0000   0.0002  -0.0017
   6 N   :2py    0.0000  -0.0000   0.0000   0.0000  -0.0000  -0.0000   0.0012
   7 N   :2pz   -0.0000  -0.0000   0.0000  -0.0000   0.0001  -0.0015   0.0006
   8 N   :2px   -0.0000  -0.0001  -0.0001  -0.0000   0.0000   0.0002  -0.0018
   9 N   :2py   -0.0000   0.0000  -0.0000  -0.0001   0.0000   0.0001   0.0014
  10 N   :2pz    0.0000   0.0000  -0.0000   0.0000  -0.0001  -0.0020   0.0008
  11 N   :2px    0.0001   0.0002   0.0001   0.0000   0.0000   0.0008  -0.0035
  12 N   :2py    0.0000  -0.0001   0.0001   0.0002   0.0001   0.0000   0.0029
  13 N   :2pz   -0.0002  -0.0000   0.0001  -0.0000   0.0000  -0.0044   0.0007
  14 N   :3d2-  -0.0000   0.0000   0.0000  -0.0000   0.0000  -0.0000   0.0004
  16 N   :3d0    0.0000   0.0000   0.0000   0.0000  -0.0001  -0.0006   0.0003
  17 N   :3d1+  -0.0000  -0.0000   0.0000  -0.0000   0.0000   0.0001   0.0001
  18 N   :3d2+  -0.0000  -0.0000   0.0000   0.0000  -0.0000  -0.0000  -0.0001
  19 H   :1s     0.0000   0.0000  -0.0000   0.0000   0.0002  -0.0018  -0.0040
  20 H   :1s    -0.0000  -0.0001   0.0001  -0.0001   0.0002  -0.0012  -0.0030
  21 H   :1s    -0.0001   0.0001  -0.0001  -0.0003   0.0001  -0.0016  -0.0012
  22 H   :2px   -0.0000  -0.0000  -0.0000   0.0000  -0.0000   0.0000   0.0003
  23 H   :2py   -0.0000   0.0000  -0.0000  -0.0000  -0.0000   0.0006   0.0010
  24 H   :2pz    0.0000  -0.0000  -0.0000   0.0000   0.0000  -0.0001  -0.0005
  25 H   :1s     0.0000   0.0000  -0.0000   0.0000   0.0002  -0.0019  -0.0094
  26 H   :1s     0.0000  -0.0001   0.0001  -0.0000   0.0003  -0.0011  -0.0087
  27 H   :1s    -0.0001  -0.0003  -0.0001   0.0001   0.0002  -0.0017   0.0027
  28 H   :2px   -0.0000  -0.0000  -0.0000   0.0000  -0.0001   0.0005   0.0008
  29 H   :2py   -0.0000   0.0000   0.0000  -0.0000   0.0000  -0.0003  -0.0005
  30 H   :2pz    0.0000   0.0000  -0.0000  -0.0000   0.0000   0.0000  -0.0002
  31 H   :1s    -0.0000  -0.0000  -0.0000  -0.0000   0.0002  -0.0018  -0.0041
  32 H   :1s     0.0001  -0.0000   0.0002  -0.0000   0.0003  -0.0006  -0.0029
  33 H   :1s    -0.0001   0.0000   0.0004   0.0000   0.0002  -0.0016  -0.0011
  34 H   :2px    0.0000  -0.0000  -0.0000  -0.0000   0.0001  -0.0004  -0.0008
  35 H   :2py    0.0000   0.0000  -0.0000  -0.0000   0.0000  -0.0003  -0.0007
  36 H   :2pz    0.0000  -0.0000  -0.0000  -0.0000   0.0000  -0.0000  -0.0005
  37 H   :1s    -0.0000   0.0000  -0.0000   0.0000   0.0001  -0.0070  -0.0033
  38 H   :1s     0.0001  -0.0001   0.0001  -0.0001   0.0004  -0.0070  -0.0020
  39 H   :1s     0.0003   0.0001  -0.0001   0.0001   0.0001   0.0042  -0.0017
  40 H   :2px    0.0000  -0.0000  -0.0000  -0.0000   0.0000  -0.0001  -0.0001
  41 H   :2py    0.0000   0.0000  -0.0000  -0.0000   0.0000  -0.0001  -0.0002
  42 H   :2pz    0.0001   0.0000  -0.0000   0.0000  -0.0001  -0.0003   0.0010
  43 O   :1s    -0.0000   0.0000  -0.0000  -0.5515   0.0000   0.0002   0.0030
  44 O   :1s     0.0000   0.0000  -0.0000  -0.4717   0.0000   0.0003   0.0050
  45 O   :1s    -0.0000   0.0000  -0.0000  -0.0055   0.0000  -0.0008  -0.0142
  46 O   :1s     0.0000   0.0000   0.0000   0.0005  -0.0000  -0.0003  -0.0104
  47 O   :2px   -0.0000   0.0000   0.0000  -0.0006  -0.0000  -0.0000  -0.0004
  48 O   :2py   -0.0000  -0.0000   0.0000  -0.0001   0.0000   0.0000  -0.0000
  49 O   :2pz    0.0000  -0.0000   0.0000   0.0013  -0.0000   0.0000   0.0006
  50 O   :2px    0.0000  -0.0000  -0.0000   0.0002  -0.0000  -0.0000  -0.0006
  52 O   :2pz   -0.0000   0.0000  -0.0000  -0.0005   0.0000  -0.0001   0.0011
  53 O   :2px   -0.0000   0.0000   0.0000  -0.0000  -0.0000   0.0000  -0.0001
  54 O   :2py   -0.0000   0.0000   0.0000  -0.0001   0.0000  -0.0002  -0.0001
  55 O   :2pz    0.0000  -0.0000  -0.0000   0.0001  -0.0000   0.0003   0.0004
  56 O   :3d2-  -0.0000   0.0000   0.0000   0.0001  -0.0000  -0.0000  -0.0001
  61 O   :1s    -0.0000   0.0000   0.5515  -0.0000   0.0000   0.0002   0.0037
  62 O   :1s     0.0000   0.0000   0.4717  -0.0000  -0.0000   0.0003   0.0062
  63 O   :1s    -0.0000   0.0000   0.0055   0.0000   0.0000  -0.0009  -0.0176
  64 O   :1s    -0.0000  -0.0000  -0.0005  -0.0000  -0.0001  -0.0005  -0.0132
  65 O   :2px    0.0000   0.0000  -0.0010  -0.0000  -0.0000  -0.0000   0.0004
  66 O   :2py    0.0000  -0.0000  -0.0005  -0.0000  -0.0000   0.0000   0.0005
  67 O   :2pz   -0.0000  -0.0000   0.0008  -0.0000  -0.0000  -0.0000  -0.0005
  68 O   :2px   -0.0000  -0.0000   0.0004   0.0000   0.0000  -0.0001   0.0007
  69 O   :2py   -0.0000   0.0000   0.0002   0.0000   0.0000  -0.0000   0.0008
  70 O   :2pz    0.0000   0.0000  -0.0003   0.0000  -0.0000  -0.0000  -0.0009
  71 O   :2px    0.0000   0.0000  -0.0002  -0.0000  -0.0001   0.0003   0.0002
  72 O   :2py    0.0000  -0.0000  -0.0001   0.0000  -0.0000   0.0001   0.0003
  73 O   :2pz   -0.0000  -0.0000  -0.0000  -0.0000  -0.0000  -0.0001  -0.0002
  76 O   :3d0    0.0000  -0.0000   0.0001   0.0000   0.0000   0.0000   0.0001
  78 O   :3d2+   0.0000  -0.0000   0.0000   0.0000  -0.0000   0.0000   0.0001
  79 O   :1s     0.5514  -0.0000   0.0000  -0.0000   0.0000   0.1142  -0.0005
  80 O   :1s     0.4717  -0.0000   0.0000  -0.0000   0.0000   0.1907  -0.0008
  81 O   :1s     0.0057   0.0000  -0.0000   0.0000   0.0000  -0.5395   0.0022
  82 O   :1s    -0.0004  -0.0000   0.0000  -0.0000  -0.0000  -0.3957   0.0021
  83 O   :2px    0.0006   0.0000  -0.0000   0.0000   0.0000  -0.0129   0.0001
  84 O   :2py    0.0005   0.0000  -0.0000   0.0000   0.0000  -0.0138   0.0001
  85 O   :2pz    0.0012   0.0000  -0.0000   0.0000   0.0000  -0.0275   0.0003
  86 O   :2px   -0.0002  -0.0000   0.0000  -0.0000  -0.0000  -0.0222   0.0001
  87 O   :2py   -0.0001  -0.0000   0.0000   0.0000  -0.0000  -0.0228   0.0002
  88 O   :2pz   -0.0005  -0.0000   0.0000  -0.0000  -0.0000  -0.0460   0.0005
  89 O   :2px    0.0001   0.0000   0.0000  -0.0000   0.0000  -0.0035  -0.0001
  90 O   :2py    0.0001  -0.0000  -0.0000   0.0000   0.0000  -0.0009   0.0000
  91 O   :2pz    0.0003   0.0000  -0.0000   0.0000   0.0001  -0.0117  -0.0001
  92 O   :3d2-   0.0001  -0.0000  -0.0000   0.0000   0.0000   0.0032  -0.0000
  93 O   :3d1-   0.0000  -0.0000  -0.0000   0.0000  -0.0000  -0.0013   0.0000
  95 O   :3d1+  -0.0001   0.0000   0.0000  -0.0000  -0.0000  -0.0048   0.0000
  96 O   :3d2+   0.0001   0.0000  -0.0000  -0.0000   0.0000   0.0058  -0.0000
  97 O   :1s    -0.0000  -0.5515   0.0000  -0.0000   0.0000   0.0002   0.1148
  98 O   :1s    -0.0000  -0.4717   0.0000  -0.0000  -0.0000   0.0004   0.1920
  99 O   :1s    -0.0000  -0.0054  -0.0000   0.0000   0.0000  -0.0011  -0.5473
 100 O   :1s     0.0000   0.0005   0.0000  -0.0000  -0.0001  -0.0005  -0.4171
 101 O   :2px   -0.0000  -0.0011   0.0000   0.0000   0.0000  -0.0000  -0.0166
 102 O   :2py    0.0000   0.0007   0.0000  -0.0000  -0.0000   0.0000   0.0139
 103 O   :2pz   -0.0000  -0.0007   0.0000  -0.0000  -0.0000  -0.0000  -0.0120
 104 O   :2px    0.0000   0.0005  -0.0000  -0.0000  -0.0000   0.0001  -0.0313
 105 O   :2py   -0.0000  -0.0003  -0.0000   0.0000   0.0000  -0.0001   0.0239
 106 O   :2pz    0.0000   0.0003  -0.0000   0.0000  -0.0000  -0.0000  -0.0216
 107 O   :2px   -0.0000  -0.0001   0.0000   0.0000   0.0000  -0.0003  -0.0061
 108 O   :2py    0.0000   0.0002   0.0000  -0.0000  -0.0001   0.0002   0.0040
 109 O   :2pz   -0.0000  -0.0000   0.0000  -0.0000  -0.0000  -0.0001  -0.0090
 110 O   :3d2-  -0.0000   0.0001   0.0000  -0.0000   0.0000  -0.0000  -0.0031
 111 O   :3d1-   0.0000  -0.0000   0.0000   0.0000  -0.0000   0.0000   0.0024
 112 O   :3d0    0.0000  -0.0001  -0.0000   0.0000   0.0000   0.0000   0.0053
 113 O   :3d1+  -0.0000   0.0000   0.0000  -0.0000   0.0000  -0.0000  -0.0023
 114 O   :3d2+  -0.0000  -0.0000   0.0000   0.0000  -0.0000   0.0000   0.0017
 115 H   :1s     0.0000   0.0000  -0.0000  -0.0001  -0.0000  -0.0001  -0.0020
 116 H   :1s    -0.0000  -0.0000   0.0000  -0.0001   0.0000  -0.0003  -0.0014
 117 H   :1s     0.0000   0.0000  -0.0000  -0.0000  -0.0000   0.0004   0.0000
 118 H   :2px    0.0000  -0.0000  -0.0000  -0.0000   0.0000  -0.0000  -0.0002
 119 H   :2py    0.0000  -0.0000  -0.0000  -0.0000  -0.0000  -0.0000  -0.0003
 120 H   :2pz   -0.0000  -0.0000  -0.0000  -0.0001  -0.0000  -0.0000  -0.0006
 121 H   :1s    -0.0000   0.0000   0.0000  -0.0002  -0.0000  -0.0001  -0.0023
 122 H   :1s     0.0000  -0.0000  -0.0000  -0.0001   0.0000  -0.0001  -0.0018
 124 H   :2px   -0.0000   0.0000   0.0000   0.0000   0.0000   0.0000   0.0005
 125 H   :2py    0.0000   0.0000   0.0000   0.0001  -0.0000   0.0000   0.0004
 126 H   :2pz   -0.0000   0.0000  -0.0000  -0.0000   0.0000  -0.0000  -0.0002
 127 H   :1s    -0.0000   0.0000   0.0002  -0.0000  -0.0000  -0.0002  -0.0031
 128 H   :1s     0.0000  -0.0000   0.0001   0.0000   0.0000   0.0001  -0.0020
 129 H   :1s     0.0000   0.0000   0.0000  -0.0000  -0.0000   0.0000  -0.0003
 131 H   :2py    0.0000  -0.0000   0.0001   0.0000   0.0000  -0.0000  -0.0008
 132 H   :2pz    0.0000   0.0000   0.0000  -0.0000   0.0000   0.0000   0.0002
 133 H   :1s    -0.0000  -0.0000   0.0001   0.0000  -0.0000  -0.0001  -0.0020
 134 H   :1s     0.0000   0.0000   0.0002  -0.0000   0.0000   0.0002  -0.0019
 135 H   :1s    -0.0000  -0.0000  -0.0000   0.0000  -0.0000  -0.0001   0.0005
 136 H   :2px    0.0000   0.0000   0.0001  -0.0000   0.0000  -0.0000  -0.0006
 137 H   :2py   -0.0000  -0.0000  -0.0001  -0.0000   0.0000  -0.0000   0.0005
 138 H   :2pz    0.0000  -0.0000  -0.0000   0.0000   0.0000   0.0000   0.0002
 139 H   :1s     0.0002   0.0000   0.0000  -0.0000  -0.0000  -0.0876   0.0003
 140 H   :1s     0.0000  -0.0000  -0.0000   0.0000   0.0000  -0.0670   0.0008
 141 H   :1s     0.0000   0.0000   0.0000  -0.0000  -0.0000   0.0022  -0.0006
 142 H   :2px   -0.0000   0.0000   0.0000  -0.0000  -0.0000   0.0158  -0.0001
 143 H   :2py    0.0000  -0.0000  -0.0000   0.0000  -0.0000  -0.0167   0.0001
 144 H   :2pz   -0.0000   0.0000   0.0000  -0.0000  -0.0000   0.0159  -0.0001
 145 H   :1s     0.0002  -0.0000   0.0000   0.0000   0.0000  -0.0959   0.0005
 146 H   :1s    -0.0000   0.0000  -0.0000  -0.0000  -0.0000  -0.0728   0.0001
 147 H   :1s     0.0001  -0.0000   0.0000   0.0000  -0.0000   0.0038   0.0005
 148 H   :2px    0.0000  -0.0000  -0.0000   0.0000  -0.0000  -0.0022   0.0000
 149 H   :2py   -0.0000  -0.0000   0.0000   0.0000   0.0000   0.0267  -0.0001
 150 H   :2pz   -0.0000  -0.0000  -0.0000   0.0000  -0.0000   0.0074   0.0000
 151 H   :1s    -0.0000  -0.0002  -0.0000  -0.0000  -0.0000  -0.0002  -0.0824
 152 H   :1s     0.0000  -0.0001   0.0000   0.0000   0.0000   0.0001  -0.0686
 153 H   :1s    -0.0000  -0.0001  -0.0000  -0.0000  -0.0000  -0.0000   0.0023
 154 H   :2px    0.0000  -0.0000  -0.0000  -0.0000  -0.0000   0.0000  -0.0032
 155 H   :2py    0.0000  -0.0001   0.0000   0.0000   0.0000  -0.0000  -0.0261
 156 H   :2pz    0.0000  -0.0000  -0.0000  -0.0000   0.0000   0.0000   0.0078
 157 H   :1s    -0.0000  -0.0001   0.0000   0.0000  -0.0000  -0.0001  -0.0760
 158 H   :1s     0.0000  -0.0002  -0.0000  -0.0000   0.0000   0.0000  -0.0650
 159 H   :1s     0.0000   0.0000   0.0000  -0.0000  -0.0000   0.0001   0.0008
 160 H   :2px   -0.0000   0.0001   0.0000  -0.0000  -0.0000   0.0000   0.0216
 161 H   :2py   -0.0000   0.0000   0.0000  -0.0000   0.0000  -0.0000   0.0125
 162 H   :2pz    0.0000   0.0000   0.0000   0.0000   0.0000   0.0000   0.0035

    Orbital         8        9       10       11       12       13       14
   1 N   :1s     0.0089   0.0029  -0.1095  -0.0002   0.0018   0.0010  -0.0004
   2 N   :1s     0.0148   0.0048  -0.1817  -0.0004   0.0029   0.0017  -0.0008
   3 N   :1s    -0.0391  -0.0128   0.4942   0.0009  -0.0101  -0.0052   0.0018
   4 N   :1s    -0.0292  -0.0085   0.3368   0.0028   0.0044  -0.0037   0.0116
   5 N   :2px    0.0015  -0.0009   0.0016  -0.0014  -0.0997   0.1743  -0.0018
   6 N   :2py    0.0004  -0.0020  -0.0021   0.0121  -0.1557  -0.0762   0.1040
   7 N   :2pz    0.0016   0.0006  -0.0056  -0.0061   0.0832   0.0646   0.1342
   8 N   :2px    0.0017  -0.0010   0.0019  -0.0022  -0.1601   0.2790  -0.0039
   9 N   :2py    0.0006  -0.0022  -0.0035   0.0196  -0.2489  -0.1220   0.1666
  10 N   :2pz    0.0018   0.0010  -0.0062  -0.0104   0.1354   0.1039   0.2184
  11 N   :2px    0.0037  -0.0020  -0.0015  -0.0021  -0.1133   0.1990  -0.0034
  12 N   :2py    0.0010  -0.0043  -0.0027   0.0154  -0.1809  -0.0896   0.1203
  13 N   :2pz    0.0031   0.0014   0.0002  -0.0049   0.0948   0.0752   0.1600
  14 N   :3d2-  -0.0004   0.0002   0.0005   0.0006   0.0041  -0.0186  -0.0001
  15 N   :3d1-   0.0001   0.0005  -0.0014  -0.0006   0.0111   0.0012  -0.0078
  16 N   :3d0    0.0002   0.0001  -0.0014  -0.0005   0.0106  -0.0017   0.0132
  17 N   :3d1+  -0.0003   0.0001  -0.0000   0.0000   0.0034  -0.0090  -0.0085
  18 N   :3d2+  -0.0001   0.0003   0.0001  -0.0012   0.0125   0.0076  -0.0070
  19 H   :1s    -0.0076  -0.0065   0.0751   0.0105  -0.1423  -0.0590   0.0379
  20 H   :1s    -0.0065  -0.0061   0.0808   0.0098  -0.1854  -0.0765   0.0512
  21 H   :1s     0.0003   0.0018  -0.0070   0.0087  -0.0320  -0.0141   0.0106
  22 H   :2px   -0.0000   0.0001  -0.0028  -0.0002  -0.0011   0.0113  -0.0012
  23 H   :2py    0.0015   0.0006  -0.0230  -0.0015   0.0243   0.0088  -0.0027
  24 H   :2pz   -0.0007  -0.0001   0.0098   0.0006  -0.0094  -0.0020   0.0112
  25 H   :1s    -0.0054  -0.0018   0.0752  -0.0049  -0.0147   0.1382  -0.0560
  26 H   :1s    -0.0037  -0.0009   0.0818  -0.0040  -0.0247   0.1842  -0.0776
  27 H   :1s    -0.0017  -0.0017  -0.0073  -0.0057  -0.0052   0.0395  -0.0208
  28 H   :2px    0.0012   0.0006  -0.0215   0.0007  -0.0014  -0.0194   0.0111
  29 H   :2py   -0.0009  -0.0001   0.0131  -0.0001  -0.0104   0.0136  -0.0013
  30 H   :2pz   -0.0003  -0.0002   0.0029  -0.0007   0.0042   0.0084   0.0063
  31 H   :1s    -0.0111   0.0007   0.0738  -0.0012   0.0822  -0.0958  -0.0854
  32 H   :1s    -0.0102   0.0010   0.0791  -0.0014   0.1046  -0.1298  -0.1195
  33 H   :1s     0.0028  -0.0026  -0.0091   0.0015   0.0167  -0.0281  -0.0294
  34 H   :2px   -0.0010  -0.0006   0.0192  -0.0001   0.0094  -0.0087  -0.0163
  35 H   :2py   -0.0006  -0.0003   0.0120   0.0002   0.0018  -0.0155  -0.0048
  36 H   :2pz   -0.0008  -0.0004   0.0110  -0.0005   0.0143  -0.0081  -0.0023
  37 H   :1s    -0.0046  -0.0012   0.0611  -0.0054   0.0807   0.0193   0.1050
  38 H   :1s    -0.0035  -0.0023   0.0708  -0.0067   0.1117   0.0270   0.1507
  39 H   :1s    -0.0030   0.0016  -0.0042  -0.0078   0.0335   0.0062   0.0541
  40 H   :2px   -0.0004  -0.0001   0.0048  -0.0008  -0.0010   0.0102   0.0052
  41 H   :2py   -0.0001   0.0002   0.0007   0.0015  -0.0067  -0.0033   0.0058
  42 H   :2pz    0.0015   0.0006  -0.0223   0.0007  -0.0163  -0.0012  -0.0166
  43 O   :1s     0.0457   0.1047   0.0076   0.0000   0.0008   0.0007  -0.0007
  44 O   :1s     0.0764   0.1750   0.0128  -0.0000   0.0013   0.0013  -0.0011
  45 O   :1s    -0.2173  -0.4976  -0.0363   0.0003  -0.0042  -0.0038   0.0033
  46 O   :1s    -0.1632  -0.3750  -0.0281  -0.0000  -0.0176  -0.0112   0.0067
  47 O   :2px   -0.0057  -0.0131  -0.0012  -0.0008   0.0143   0.0131  -0.0017
  48 O   :2py   -0.0013  -0.0032  -0.0022  -0.0018   0.0312   0.0188  -0.0023
  49 O   :2pz    0.0108   0.0250   0.0038   0.0018  -0.0280  -0.0128   0.0093
  50 O   :2px   -0.0099  -0.0228  -0.0020  -0.0013   0.0217   0.0199  -0.0025
  51 O   :2py   -0.0022  -0.0055  -0.0033  -0.0030   0.0490   0.0295  -0.0034
  52 O   :2pz    0.0191   0.0440   0.0062   0.0031  -0.0436  -0.0198   0.0140
  53 O   :2px   -0.0000  -0.0002   0.0002  -0.0006   0.0130   0.0154  -0.0022
  54 O   :2py    0.0008   0.0017  -0.0012  -0.0012   0.0361   0.0222  -0.0028
  55 O   :2pz    0.0034   0.0083   0.0033   0.0013  -0.0354  -0.0172   0.0123
  56 O   :3d2-  -0.0022  -0.0052  -0.0005  -0.0001   0.0020   0.0011  -0.0002
  57 O   :3d1-  -0.0006  -0.0013  -0.0002   0.0000  -0.0008  -0.0008  -0.0001
  58 O   :3d0   -0.0009  -0.0021  -0.0003  -0.0000   0.0003  -0.0002  -0.0003
  59 O   :3d1+   0.0012   0.0027   0.0002   0.0001  -0.0018  -0.0012   0.0003
  60 O   :3d2+  -0.0001  -0.0002  -0.0001  -0.0001   0.0009   0.0007   0.0000
  61 O   :1s     0.1048  -0.0465   0.0087  -0.0000   0.0004   0.0007   0.0016
  62 O   :1s     0.1751  -0.0776   0.0146  -0.0001   0.0007   0.0012   0.0027
  63 O   :1s    -0.4967   0.2201  -0.0416   0.0002  -0.0020  -0.0038  -0.0083
  64 O   :1s    -0.3872   0.1723  -0.0329   0.0000   0.0060  -0.0151  -0.0216
  65 O   :2px    0.0141  -0.0063   0.0037  -0.0003   0.0174  -0.0165  -0.0168
  66 O   :2py    0.0163  -0.0073   0.0030   0.0000   0.0230  -0.0441  -0.0470
  67 O   :2pz   -0.0138   0.0061  -0.0003  -0.0002   0.0048  -0.0015   0.0017
  68 O   :2px    0.0269  -0.0121   0.0055  -0.0005   0.0269  -0.0256  -0.0258
  69 O   :2py    0.0260  -0.0117   0.0044   0.0001   0.0352  -0.0677  -0.0720
  70 O   :2pz   -0.0247   0.0109  -0.0009  -0.0003   0.0074  -0.0027   0.0020
  71 O   :2px    0.0056  -0.0024   0.0042  -0.0007   0.0241  -0.0227  -0.0239
  72 O   :2py    0.0054  -0.0025   0.0022  -0.0003   0.0263  -0.0508  -0.0543
  73 O   :2pz   -0.0089   0.0041   0.0003  -0.0002   0.0095  -0.0046   0.0001
  74 O   :3d2-   0.0010  -0.0004   0.0001   0.0000  -0.0008   0.0017   0.0021
  75 O   :3d1-   0.0027  -0.0012   0.0003  -0.0000   0.0013  -0.0026  -0.0027
  76 O   :3d0    0.0037  -0.0017   0.0004  -0.0000   0.0009  -0.0010  -0.0009
  77 O   :3d1+   0.0028  -0.0012   0.0004  -0.0000   0.0008  -0.0007  -0.0007
  78 O   :3d2+   0.0040  -0.0018   0.0004  -0.0000   0.0011  -0.0022  -0.0026
  79 O   :1s    -0.0006  -0.0002   0.0041   0.0020  -0.0034  -0.0011  -0.0088
  80 O   :1s    -0.0010  -0.0003   0.0069   0.0033  -0.0058  -0.0019  -0.0150
  81 O   :1s     0.0026   0.0009  -0.0197  -0.0084   0.0182   0.0060   0.0457
  82 O   :1s     0.0026   0.0005  -0.0147  -0.0243   0.0304   0.0115   0.0792
  83 O   :2px    0.0001   0.0000  -0.0008  -0.0781  -0.0179  -0.0046  -0.0246
  84 O   :2py    0.0001   0.0000  -0.0014   0.2164  -0.0002   0.0052  -0.0275
  85 O   :2pz    0.0003   0.0001  -0.0047  -0.0341  -0.0450  -0.0190  -0.0938
  86 O   :2px    0.0002   0.0000  -0.0011  -0.1202  -0.0270  -0.0069  -0.0369
  87 O   :2py    0.0002   0.0000  -0.0019   0.3304  -0.0002   0.0078  -0.0416
  88 O   :2pz    0.0007   0.0001  -0.0069  -0.0523  -0.0686  -0.0290  -0.1430
  89 O   :2px   -0.0000   0.0001  -0.0004  -0.0820  -0.0217  -0.0032  -0.0306
  90 O   :2py   -0.0001   0.0001  -0.0015   0.2343  -0.0049   0.0035  -0.0377
  91 O   :2pz   -0.0004   0.0003  -0.0043  -0.0387  -0.0576  -0.0249  -0.1255
  92 O   :3d2-  -0.0000  -0.0000   0.0001   0.0067   0.0006   0.0004   0.0004
  93 O   :3d1-   0.0000   0.0000  -0.0002   0.0190   0.0004   0.0005  -0.0020
  94 O   :3d0   -0.0000   0.0000   0.0000  -0.0072  -0.0012  -0.0006  -0.0018
  95 O   :3d1+   0.0000   0.0000  -0.0003  -0.0096  -0.0022  -0.0011  -0.0037
  96 O   :3d2+  -0.0000  -0.0000   0.0003  -0.0127  -0.0000  -0.0002   0.0016
  97 O   :1s    -0.0053  -0.0015   0.0073  -0.0000   0.0001  -0.0005   0.0013
  98 O   :1s    -0.0088  -0.0024   0.0122  -0.0001   0.0003  -0.0009   0.0022
  99 O   :1s     0.0251   0.0069  -0.0347  -0.0000  -0.0010   0.0034  -0.0071
 100 O   :1s     0.0196   0.0056  -0.0267   0.0006  -0.0006   0.0142  -0.0148
 101 O   :2px    0.0009   0.0002  -0.0033   0.0010  -0.0051  -0.0132  -0.0212
 102 O   :2py   -0.0008  -0.0002   0.0029  -0.0009  -0.0120   0.0597  -0.0796
 103 O   :2pz    0.0005   0.0001  -0.0003  -0.0003   0.0015   0.0013   0.0061
 104 O   :2px    0.0017   0.0005  -0.0051   0.0018  -0.0078  -0.0206  -0.0329
 105 O   :2py   -0.0013  -0.0004   0.0042  -0.0016  -0.0186   0.0920  -0.1226
 106 O   :2pz    0.0009   0.0003  -0.0008  -0.0004   0.0024   0.0021   0.0090
 107 O   :2px    0.0003  -0.0002  -0.0033   0.0006  -0.0059  -0.0215  -0.0185
 108 O   :2py   -0.0001   0.0001   0.0024  -0.0006  -0.0140   0.0712  -0.0922
 109 O   :2pz    0.0005   0.0001  -0.0001  -0.0003   0.0023   0.0049   0.0067
 110 O   :3d2-   0.0002   0.0000  -0.0002   0.0000  -0.0004   0.0013  -0.0027
 111 O   :3d1-  -0.0001  -0.0000   0.0002  -0.0000  -0.0006   0.0029  -0.0040
 112 O   :3d0   -0.0003  -0.0001   0.0004  -0.0001  -0.0000   0.0012  -0.0004
 113 O   :3d1+   0.0001   0.0000  -0.0002   0.0000  -0.0003  -0.0003  -0.0011
 114 O   :3d2+  -0.0001  -0.0000   0.0001  -0.0000  -0.0009   0.0033  -0.0066
 115 H   :1s    -0.0312  -0.0713  -0.0056  -0.0003   0.0020  -0.0022  -0.0038
 116 H   :1s    -0.0235  -0.0553  -0.0041   0.0003   0.0000  -0.0029  -0.0044
 117 H   :1s     0.0006   0.0046   0.0025  -0.0010  -0.0007  -0.0034  -0.0019
 118 H   :2px   -0.0027  -0.0062  -0.0005  -0.0001   0.0012   0.0007  -0.0004
 119 H   :2py   -0.0056  -0.0128  -0.0013  -0.0003   0.0033   0.0013  -0.0007
 120 H   :2pz   -0.0092  -0.0209  -0.0010   0.0001  -0.0019  -0.0018  -0.0008
 121 H   :1s    -0.0356  -0.0819  -0.0072  -0.0017   0.0275   0.0180  -0.0035
 122 H   :1s    -0.0309  -0.0701  -0.0072  -0.0023   0.0385   0.0228  -0.0051
 123 H   :1s     0.0012   0.0012   0.0005  -0.0006   0.0052   0.0056   0.0002
 124 H   :2px    0.0081   0.0186   0.0017   0.0004  -0.0061  -0.0034   0.0008
 125 H   :2py    0.0066   0.0150   0.0012   0.0002  -0.0031  -0.0019   0.0006
 126 H   :2pz   -0.0030  -0.0069  -0.0005   0.0000   0.0007   0.0008   0.0003
 127 H   :1s    -0.0875   0.0389  -0.0084   0.0000  -0.0171   0.0321   0.0345
 128 H   :1s    -0.0646   0.0282  -0.0071  -0.0003  -0.0225   0.0399   0.0440
 129 H   :1s     0.0011  -0.0000   0.0017  -0.0000  -0.0015   0.0074   0.0071
 130 H   :2px   -0.0022   0.0009  -0.0000  -0.0000   0.0010  -0.0003  -0.0002
 131 H   :2py   -0.0235   0.0104  -0.0021  -0.0000  -0.0035   0.0064   0.0069
 132 H   :2pz    0.0077  -0.0034   0.0009  -0.0000   0.0023  -0.0035  -0.0036
 133 H   :1s    -0.0579   0.0256  -0.0052   0.0002   0.0010  -0.0098  -0.0108
 134 H   :1s    -0.0450   0.0203  -0.0043   0.0003   0.0016  -0.0121  -0.0136
 135 H   :1s     0.0012  -0.0011   0.0019  -0.0001   0.0007  -0.0040  -0.0025
 136 H   :2px   -0.0163   0.0072  -0.0010   0.0001   0.0016  -0.0043  -0.0043
 137 H   :2py    0.0144  -0.0064   0.0014  -0.0000   0.0014  -0.0006  -0.0003
 138 H   :2pz    0.0044  -0.0020   0.0005  -0.0000   0.0004   0.0003   0.0007
 139 H   :1s     0.0006   0.0002  -0.0045  -0.1410  -0.0258  -0.0121  -0.0362
 140 H   :1s     0.0002   0.0001  -0.0047  -0.1722  -0.0338  -0.0180  -0.0480
 141 H   :1s     0.0005   0.0000   0.0012  -0.0376  -0.0050  -0.0005  -0.0083
 142 H   :2px   -0.0001  -0.0000   0.0009   0.0212   0.0042   0.0023   0.0062
 143 H   :2py    0.0001   0.0000  -0.0009  -0.0090  -0.0050  -0.0021  -0.0097
 144 H   :2pz   -0.0000  -0.0000   0.0006   0.0249   0.0020   0.0012   0.0006
 145 H   :1s     0.0006   0.0001  -0.0048   0.1519  -0.0073   0.0003  -0.0346
 146 H   :1s     0.0004   0.0003  -0.0040   0.1855  -0.0058   0.0022  -0.0415
 147 H   :1s     0.0002  -0.0005   0.0014   0.0326  -0.0031  -0.0011  -0.0062
 148 H   :2px    0.0000  -0.0000  -0.0001  -0.0042  -0.0015  -0.0005  -0.0025
 149 H   :2py   -0.0002  -0.0000   0.0012  -0.0279   0.0024   0.0003   0.0089
 150 H   :2pz    0.0000  -0.0000  -0.0001  -0.0155  -0.0031  -0.0017  -0.0049
 151 H   :1s     0.0038   0.0011  -0.0062   0.0006   0.0089  -0.0403   0.0573
 152 H   :1s     0.0034   0.0007  -0.0062   0.0008   0.0101  -0.0527   0.0750
 153 H   :1s    -0.0004   0.0004   0.0015   0.0001   0.0039  -0.0094   0.0155
 154 H   :2px    0.0002   0.0001  -0.0004   0.0002  -0.0001  -0.0024   0.0001
 155 H   :2py    0.0012   0.0003  -0.0018   0.0001   0.0020  -0.0092   0.0131
 156 H   :2pz   -0.0004  -0.0001   0.0007  -0.0001  -0.0007   0.0041  -0.0052
 157 H   :1s     0.0036   0.0010  -0.0054   0.0003  -0.0068   0.0108  -0.0387
 158 H   :1s     0.0028   0.0010  -0.0053   0.0005  -0.0089   0.0146  -0.0542
 159 H   :1s     0.0003  -0.0001   0.0017   0.0005  -0.0032   0.0044  -0.0120
 160 H   :2px   -0.0010  -0.0003   0.0012  -0.0000   0.0018  -0.0043   0.0100
 161 H   :2py   -0.0006  -0.0002   0.0011  -0.0002   0.0002   0.0030   0.0004
 162 H   :2pz   -0.0002  -0.0001   0.0003  -0.0000   0.0003  -0.0002   0.0020

    Orbital        15       16       17       18       19       20       21
   1 N   :1s    -0.0006  -0.0016  -0.0028   0.0077  -0.0045   0.0035   0.0032
   2 N   :1s    -0.0010  -0.0027  -0.0047   0.0129  -0.0075   0.0059   0.0052
   3 N   :1s     0.0025   0.0071   0.0138  -0.0342   0.0192  -0.0156  -0.0132
   4 N   :1s     0.0035   0.0134   0.0138  -0.0713   0.0492  -0.0324  -0.0354
   5 N   :2px    0.0434  -0.0405  -0.0053   0.0137   0.0083  -0.0430   0.0290
   6 N   :2py   -0.0462  -0.0176   0.0290  -0.0139   0.0328   0.0412   0.0184
   7 N   :2pz   -0.0432  -0.0274  -0.0099  -0.1077  -0.0285   0.0199   0.0208
   8 N   :2px    0.0693  -0.0643  -0.0081   0.0212   0.0128  -0.0668   0.0444
   9 N   :2py   -0.0740  -0.0279   0.0467  -0.0222   0.0492   0.0642   0.0280
  10 N   :2pz   -0.0706  -0.0440  -0.0163  -0.1705  -0.0445   0.0315   0.0308
  11 N   :2px    0.0524  -0.0475  -0.0066   0.0240   0.0189  -0.0713   0.0560
  12 N   :2py   -0.0590  -0.0267   0.0353  -0.0150   0.0630   0.0628   0.0341
  13 N   :2pz   -0.0500  -0.0338  -0.0054  -0.1531  -0.0461   0.0271   0.0416
  14 N   :3d2-  -0.0039   0.0033   0.0011   0.0004   0.0003   0.0030  -0.0019
  15 N   :3d1-   0.0027   0.0021  -0.0012   0.0018  -0.0013  -0.0011  -0.0012
  16 N   :3d0   -0.0059  -0.0011  -0.0005  -0.0072  -0.0022   0.0025   0.0006
  17 N   :3d1+   0.0013   0.0031  -0.0001   0.0039   0.0001   0.0000  -0.0016
  18 N   :3d2+   0.0036   0.0010  -0.0020   0.0003  -0.0020  -0.0025  -0.0007
  19 H   :1s    -0.0177  -0.0074   0.0199   0.0162   0.0201   0.0157   0.0072
  20 H   :1s    -0.0190  -0.0048   0.0309   0.0195   0.0201   0.0201   0.0073
  21 H   :1s    -0.0085  -0.0054  -0.0039   0.0017  -0.0663  -0.0151  -0.0013
  22 H   :2px    0.0028  -0.0024  -0.0001   0.0001   0.0004  -0.0027   0.0008
  23 H   :2py    0.0009   0.0003  -0.0045  -0.0038  -0.0080  -0.0015  -0.0007
  24 H   :2pz   -0.0038  -0.0019   0.0035  -0.0047   0.0030   0.0037   0.0016
  25 H   :1s     0.0492  -0.0158  -0.0123   0.0220  -0.0041  -0.0304   0.0069
  26 H   :1s     0.0649  -0.0277  -0.0152   0.0306  -0.0105  -0.0447   0.0024
  27 H   :1s     0.0086   0.0023  -0.0014   0.0090   0.0027   0.0694   0.0032
  28 H   :2px   -0.0093   0.0018   0.0017  -0.0033   0.0005   0.0093  -0.0001
  29 H   :2py    0.0032  -0.0032   0.0005   0.0009   0.0014  -0.0066   0.0015
  30 H   :2pz   -0.0010  -0.0025  -0.0017  -0.0063  -0.0016  -0.0027   0.0017
  31 H   :1s     0.0083   0.0360  -0.0027   0.0324  -0.0041   0.0014  -0.0184
  32 H   :1s     0.0083   0.0481   0.0051   0.0483  -0.0005  -0.0080  -0.0158
  33 H   :1s     0.0112  -0.0031  -0.0130   0.0116   0.0003   0.0118   0.0625
  34 H   :2px    0.0039   0.0070   0.0001   0.0068   0.0003  -0.0030  -0.0056
  35 H   :2py   -0.0014   0.0030   0.0016   0.0025   0.0012   0.0015  -0.0043
  36 H   :2pz   -0.0021   0.0037  -0.0006  -0.0035  -0.0014   0.0011  -0.0053
  37 H   :1s    -0.0409  -0.0140  -0.0072  -0.0595  -0.0173   0.0170   0.0083
  38 H   :1s    -0.0613  -0.0201  -0.0135  -0.0954  -0.0254   0.0305   0.0174
  39 H   :1s    -0.0212  -0.0086  -0.0027   0.0386   0.0085  -0.0160  -0.0253
  40 H   :2px    0.0003  -0.0031  -0.0010  -0.0043  -0.0012  -0.0012   0.0023
  41 H   :2py   -0.0021  -0.0005   0.0015  -0.0004   0.0012   0.0026   0.0010
  42 H   :2pz    0.0073   0.0012   0.0007   0.0209   0.0039  -0.0042  -0.0010
  43 O   :1s     0.0004   0.0001   0.0053  -0.0022   0.0314   0.0058   0.0014
  44 O   :1s     0.0007   0.0002   0.0089  -0.0038   0.0533   0.0098   0.0024
  45 O   :1s    -0.0022  -0.0008  -0.0229   0.0112  -0.1573  -0.0288  -0.0067
  46 O   :1s    -0.0036  -0.0006  -0.0660   0.0202  -0.2648  -0.0496  -0.0124
  47 O   :2px    0.0032  -0.0005   0.1508   0.0064   0.0982   0.0218   0.0068
  48 O   :2py    0.0035   0.0001   0.1646   0.0050  -0.0174  -0.0049  -0.0028
  49 O   :2pz   -0.0045  -0.0022   0.0608   0.0304  -0.2222  -0.0365  -0.0078
  50 O   :2px    0.0047  -0.0006   0.2306   0.0100   0.1442   0.0324   0.0097
  51 O   :2py    0.0055   0.0003   0.2520   0.0073  -0.0228  -0.0071  -0.0045
  52 O   :2pz   -0.0068  -0.0033   0.0942   0.0459  -0.3323  -0.0545  -0.0116
  53 O   :2px    0.0041  -0.0013   0.1775   0.0080   0.1474   0.0317   0.0117
  54 O   :2py    0.0040  -0.0005   0.1972   0.0048  -0.0386  -0.0098  -0.0033
  55 O   :2pz   -0.0058  -0.0023   0.0786   0.0424  -0.3117  -0.0498  -0.0112
[...]

 Principal values of diagonalized transition strength matrix:

             a.u.               
 1      -0.00000000
 2       0.00000000
 3       0.00029367

 Principal axis of diagonalized transition strength matrix:


               Column   1     Column   2     Column   3
       1      -0.01950300     0.99980954     0.00071921
       2       0.75682146     0.01429303     0.65346537
       3      -0.65333063    -0.01328885     0.75695607
    ==== End of matrix output ====


 CCSD   oscillator strength matrix for state nr. 13 of symmetry 1
 CCSD  excitation energy:15.18777913


               Column   1     Column   2     Column   3
       1       0.00000000     0.00000140     0.00000162
       2       0.00000140     0.00126971     0.00147080
       3       0.00000162     0.00147080     0.00170373
    ==== End of matrix output ====

 Principal values of diagonalized oscillator strength matrix:

             a.u.               
 1      -0.00000000
 2       0.00000000
 3       0.00297345

 Principal axis of diagonalized oscillator strength matrix:


               Column   1     Column   2     Column   3
       1      -0.01950300     0.99980954     0.00071921
       2       0.75682146     0.01429303     0.65346537
       3      -0.65333063    -0.01328885     0.75695607
    ==== End of matrix output ====


 CCSD  Transition strength matrix for state nr. 14 of symmetry 1
 CCSD  excitation energy:15.21946456

 Gauge: length

               Column   1     Column   2     Column   3
       1     5.172424D-05  -2.197439D-05   8.810909D-06
       2    -2.197439D-05   9.335536D-06  -3.743201D-06
       3     8.810909D-06  -3.743201D-06   1.500883D-06
    ==== End of matrix output ====

 Principal values of diagonalized transition strength matrix:

             a.u.               
 1      -0.00000000
 2      -0.00000000
 3       0.00006256

 Principal axis of diagonalized transition strength matrix:


               Column   1     Column   2     Column   3
       1       0.40547218     0.09384530     0.90927739
       2       0.73831011     0.55287830    -0.38629493
       3      -0.53897170     0.82796053     0.15488984
    ==== End of matrix output ====


 CCSD   oscillator strength matrix for state nr. 14 of symmetry 1
 CCSD  excitation energy:15.21946456


               Column   1     Column   2     Column   3
       1     5.248102D-04  -2.229589D-04   8.939821D-05
       2    -2.229589D-04   9.472124D-05  -3.797968D-05
       3     8.939821D-05  -3.797968D-05   1.522843D-05
    ==== End of matrix output ====

 Principal values of diagonalized oscillator strength matrix:

             a.u.               
 1      -0.00000000
 2      -0.00000000
 3       0.00063476

 Principal axis of diagonalized oscillator strength matrix:


               Column   1     Column   2     Column   3
       1       0.40547218     0.09384530     0.90927739
       2       0.73831011     0.55287830    -0.38629493
       3      -0.53897170     0.82796053     0.15488984
    ==== End of matrix output ====


 CCSD  Transition strength matrix for state nr. 15 of symmetry 1
 CCSD  excitation energy:15.23938388

 Gauge: length

               Column   1     Column   2     Column   3
       1     5.340799D-06  -2.261081D-06   2.141193D-05
       2    -2.261081D-06   9.566490D-07  -9.065140D-06
       3     2.141193D-05  -9.065140D-06   8.584302D-05
    ==== End of matrix output ====

 Principal values of diagonalized transition strength matrix:

             a.u.               
 1      -0.00000000
 2      -0.00000000
 3       0.00009214

 Principal axis of diagonalized transition strength matrix:


               Column   1     Column   2     Column   3
       1      -0.04541659     0.96952259     0.24075563
       2       0.99219806     0.07178986    -0.10192760
       3       0.11610492    -0.23424807     0.96521888
    ==== End of matrix output ====


 CCSD   oscillator strength matrix for state nr. 15 of symmetry 1
 CCSD  excitation energy:15.23938388


               Column   1     Column   2     Column   3
       1     5.426032D-05  -2.297166D-05   2.175364D-04
       2    -2.297166D-05   9.719161D-06  -9.209810D-05
       3     2.175364D-04  -9.209810D-05   8.721298D-04
    ==== End of matrix output ====

 Principal values of diagonalized oscillator strength matrix:

             a.u.               
 1      -0.00000001
 2      -0.00000000
 3       0.00093612

 Principal axis of diagonalized oscillator strength matrix:


               Column   1     Column   2     Column   3
       1      -0.04541659     0.96952259     0.24075563
       2       0.99219806     0.07178986    -0.10192760
       3       0.11610492    -0.23424807     0.96521888
    ==== End of matrix output ====

  Total time for    135 linear response residues:       7.07 seconds.
  

 *******************************************************************************
 *******************************************************************************
 *                                                                             *
 *                                                                             *
 *                   SUMMARY OF COUPLED CLUSTER CALCULATION                    *
 *                                                                             *
 *                                                                             *
 *******************************************************************************
 *******************************************************************************

                                                                                
                                                                                
            Total SCF   energy:                  -361.2090182298                
            Total RSTAR energy:                  -362.3578100538                
            Total CCSD  energy:                  -362.3577610590                
                                                                                
                                                                                
            Total SCF   energy:                  -361.2090182298                
            Total RSTAR energy:                  -362.3577610590                
            Total CCSD  energy:                  -362.3578079492                
                                                                                
                                                                                
            Total SCF   energy:                  -361.2090182298                
            Total RSTAR energy:                  -362.3578079492                
            Total CCSD  energy:                  -362.3578099337                
                                                                                
                                                                                
            Total SCF   energy:                  -361.2090182298                
            Total RSTAR energy:                  -362.3578099337                
            Total CCSD  energy:                  -362.3578100465                
                                                                                
                                                                                
            Total SCF   energy:                  -361.2090182298                
            Total RSTAR energy:                  -362.3578100465                
            Total CCSD  energy:                  -362.3578100534                
                                                                                
                                                                                
            Total SCF   energy:                  -361.2090182298                
            Total RSTAR energy:                  -362.3578100534                
            Total CCSD  energy:                  -362.3578100538                
            CCSD Total  energy:                  -362.7911360176                
            CCSD E(QM/MM)     :                    -0.4289002162                
                                                                                
                                                                                
                                                                                
 +=============================================================================+
 |  sym. | Exci.  |        CCSD       Excitation energies            | ||T1||  |
 |(spin, |        +------------------------------------------------------------+
 | spat) |        |     Hartree    |       eV.      |     cm-1       |    %    |
 +=============================================================================+
 | ^1A   |    1   |    14.9155645  |     405.87316  |   3273587.995  |  88.22  |
 | ^1A   |    2   |    14.9716481  |     407.39927  |   3285896.927  |  88.45  |
 | ^1A   |    3   |    15.0040164  |     408.28006  |   3293000.944  |  88.76  |
 | ^1A   |    4   |    15.0118659  |     408.49365  |   3294723.709  |  88.88  |
 | ^1A   |    5   |    15.0706555  |     410.09340  |   3307626.535  |  87.55  |
 | ^1A   |    6   |    15.0931778  |     410.70626  |   3312569.614  |  87.68  |
 | ^1A   |    7   |    15.1103956  |     411.17478  |   3316348.476  |  87.71  |
 | ^1A   |    8   |    15.1247480  |     411.56533  |   3319498.472  |  87.85  |
 | ^1A   |    9   |    15.1273631  |     411.63649  |   3320072.416  |  87.68  |
 | ^1A   |   10   |    15.1532346  |     412.34049  |   3325750.540  |  87.76  |
 | ^1A   |   11   |    15.1597262  |     412.51713  |   3327175.281  |  87.70  |
 | ^1A   |   12   |    15.1635421  |     412.62097  |   3328012.777  |  87.78  |
 | ^1A   |   13   |    15.1877791  |     413.28049  |   3333332.196  |  87.69  |
 | ^1A   |   14   |    15.2194646  |     414.14270  |   3340286.344  |  87.52  |
 | ^1A   |   15   |    15.2393839  |     414.68473  |   3344658.127  |  87.63  |
 +=============================================================================+
                                                                                
                                                                                
     Total energies in Hartree:                                                 
             1 ^1A       -347.4466712798                                        
             2 ^1A       -347.3905876565                                        
             3 ^1A       -347.3582193728                                        
             4 ^1A       -347.3503698797                                        
             5 ^1A       -347.2915802782                                        
             6 ^1A       -347.2690579544                                        
             7 ^1A       -347.2518401913                                        
             8 ^1A       -347.2374877524                                        
             9 ^1A       -347.2348726703                                        
            10 ^1A       -347.2090012357                                        
            11 ^1A       -347.2025096361                                        
            12 ^1A       -347.1986937259                                        
            13 ^1A       -347.1744566685                                        
            14 ^1A       -347.1427712381                                        
            15 ^1A       -347.1228519258                                        
                                                                                
                                                                                
 +=============================================================================+
 |  sym. | Exci.  |        CCSD       Length   Gauge Oscillator Strength       |
 |(spin, |        +------------------------------------------------------------+
 | spat) |        | Dipole Strength(a.u.) | Oscillator strength  | Direction   |
 +=============================================================================+
 | ^1A   |    1   |        0.0006664      |      0.0066264       |  (Y,Z)      |
 | ^1A   |    2   |        0.0036886      |      0.0368160       |  (Y,Z)      |
 | ^1A   |    3   |        0.0040176      |      0.0401865       |  (Y,Z)      |
 | ^1A   |    4   |        0.0042403      |      0.0424368       |  (Y,Z)      |
 | ^1A   |    5   |        0.0001147      |      0.0011520       |  (Y,Z)      |
 | ^1A   |    6   |        0.0002817      |      0.0028346       |  (Y,Z)      |
 | ^1A   |    7   |        0.0002955      |      0.0029769       |  (Y,Z)      |
 | ^1A   |    8   |        0.0004813      |      0.0048528       |  (Y,Z)      |
 | ^1A   |    9   |        0.0002588      |      0.0026096       |  (Y,Z)      |
 | ^1A   |   10   |        0.0003629      |      0.0036662       |  (Y,Z)      |
 | ^1A   |   11   |        0.0002031      |      0.0020523       |  (Y,Z)      |
 | ^1A   |   12   |        0.0004457      |      0.0045059       |  (Y,Z)      |
 | ^1A   |   13   |        0.0002937      |      0.0029734       |  (Y,Z)      |
 | ^1A   |   14   |        0.0000626      |      0.0006348       |  (Y,Z)      |
 | ^1A   |   15   |        0.0000921      |      0.0009361       |  (Y,Z)      |
 +=============================================================================+

  1 a.u. =        27.21138 eV.  
  1 a.u. =    219474.62934 cm-1.
  

 *******************************************************************************
 *******************************************************************************
 *                                                                             *
 *                                                                             *
 *                      END OF COUPLED CLUSTER CALCULATION                     *
 *                                                                             *
 *                                                                             *
 *******************************************************************************
 *******************************************************************************


 CPU and wall time for CC :   10778.941   11199.275

 
     Date and time (Linux)  : Sat Dec 15 13:17:50 2018
     Host name              : n-62-29-9                               


                      .-------------------------------------.
                      | End of Coupled Cluster Section (CC) |
                      `-------------------------------------'

  Total CPU  time used in DALTON:   3 hours  0 minutes  2 seconds
  Total wall time used in DALTON:   3 hours  7 minutes  8 seconds

 
     Date and time (Linux)  : Sat Dec 15 13:17:50 2018
     Host name              : n-62-29-9                               
  

 +---------------------------------------------------------+ 
 | List of selected calculated molecular properties (a.u.) | 
 +---------------------------------------------------------+ 

  Properties are read from unit number                      4

 CCSD       properties :
 #  1 1 CCSD/MM  Ground state Energy =    -362.7911360176
 #  2 1 E_QM/MM  Ground state Energy =      -0.4289002162
 #  3 1 Sy: 1 Sp: 1 Exc:  1 E_tot:   -347.4466712798 w:     14.9155645216 E_grs:   -362.3622358014
 #  4 1 Exctot   Excited state Energy =    -347.4466712798
 #  5 1 Sy: 1 Sp: 1 Exc:  2 E_tot:   -347.3905876565 w:     14.9716481450 E_grs:   -362.3622358014
 #  6 1 Exctot   Excited state Energy =    -347.3905876565
 #  7 1 Sy: 1 Sp: 1 Exc:  3 E_tot:   -347.3582193728 w:     15.0040164286 E_grs:   -362.3622358014
 #  8 1 Exctot   Excited state Energy =    -347.3582193728
 #  9 1 Sy: 1 Sp: 1 Exc:  4 E_tot:   -347.3503698797 w:     15.0118659217 E_grs:   -362.3622358014
 # 10 1 Exctot   Excited state Energy =    -347.3503698797
 # 11 1 Sy: 1 Sp: 1 Exc:  5 E_tot:   -347.2915802782 w:     15.0706555232 E_grs:   -362.3622358014
 # 12 1 Exctot   Excited state Energy =    -347.2915802782
 # 13 1 Sy: 1 Sp: 1 Exc:  6 E_tot:   -347.2690579544 w:     15.0931778470 E_grs:   -362.3622358014
 # 14 1 Exctot   Excited state Energy =    -347.2690579544
 # 15 1 Sy: 1 Sp: 1 Exc:  7 E_tot:   -347.2518401913 w:     15.1103956101 E_grs:   -362.3622358014
 # 16 1 Exctot   Excited state Energy =    -347.2518401913
 # 17 1 Sy: 1 Sp: 1 Exc:  8 E_tot:   -347.2374877524 w:     15.1247480490 E_grs:   -362.3622358014
 # 18 1 Exctot   Excited state Energy =    -347.2374877524
 # 19 1 Sy: 1 Sp: 1 Exc:  9 E_tot:   -347.2348726703 w:     15.1273631311 E_grs:   -362.3622358014
 # 20 1 Exctot   Excited state Energy =    -347.2348726703
 # 21 1 Sy: 1 Sp: 1 Exc: 10 E_tot:   -347.2090012357 w:     15.1532345658 E_grs:   -362.3622358014
 # 22 1 Exctot   Excited state Energy =    -347.2090012357
 # 23 1 Sy: 1 Sp: 1 Exc: 11 E_tot:   -347.2025096361 w:     15.1597261653 E_grs:   -362.3622358014
 # 24 1 Exctot   Excited state Energy =    -347.2025096361
 # 25 1 Sy: 1 Sp: 1 Exc: 12 E_tot:   -347.1986937259 w:     15.1635420755 E_grs:   -362.3622358014
 # 26 1 Exctot   Excited state Energy =    -347.1986937259
 # 27 1 Sy: 1 Sp: 1 Exc: 13 E_tot:   -347.1744566685 w:     15.1877791329 E_grs:   -362.3622358014
 # 28 1 Exctot   Excited state Energy =    -347.1744566685
 # 29 1 Sy: 1 Sp: 1 Exc: 14 E_tot:   -347.1427712381 w:     15.2194645633 E_grs:   -362.3622358014
 # 30 1 Exctot   Excited state Energy =    -347.1427712381
 # 31 1 Sy: 1 Sp: 1 Exc: 15 E_tot:   -347.1228519258 w:     15.2393838756 E_grs:   -362.3622358014
 # 32 1 Exctot   Excited state Energy =    -347.1228519258
 # 33 1 |<O|XDIPLEN |i(14.915565)>| =     0.00433311
 # 35 1 |<O|XDIPLEN |i(14.971648)>| =     0.02059155
 # 37 1 |<O|XDIPLEN |i(15.004016)>| =     0.04040398
 # 39 1 |<O|XDIPLEN |i(15.011866)>| =     0.04501313
 # 41 1 |<O|XDIPLEN |i(15.070656)>| =     0.00306364
 # 43 1 |<O|XDIPLEN |i(15.093178)>| =     0.01106469
 # 45 1 |<O|XDIPLEN |i(15.110396)>| =     0.01382587
 # 47 1 |<O|XDIPLEN |i(15.124748)>| =     0.01552130
 # 49 1 |<O|XDIPLEN |i(15.127363)>| =     0.01465029
 # 51 1 |<O|XDIPLEN |i(15.153235)>| =     0.01197735
 # 53 1 |<O|XDIPLEN |i(15.159726)>| =     0.01395219
 # 55 1 |<O|XDIPLEN |i(15.163542)>| =     0.00400433
 # 57 1 |<O|XDIPLEN |i(15.187779)>| =     0.00001232
 # 59 1 |<O|XDIPLEN |i(15.219465)>| =     0.00719196
 # 61 1 |<O|XDIPLEN |i(15.239384)>| =     0.00231102
 # 63 1 |<O|YDIPLEN |i(14.915565)>| =     0.00016376
 # 65 1 |<O|YDIPLEN |i(14.971648)>| =     0.00925148
 # 67 1 |<O|YDIPLEN |i(15.004016)>| =     0.04410392
 # 69 1 |<O|YDIPLEN |i(15.011866)>| =     0.04640296
 # 71 1 |<O|YDIPLEN |i(15.070656)>| =     0.00019444
 # 73 1 |<O|YDIPLEN |i(15.093178)>| =     0.00988232
 # 75 1 |<O|YDIPLEN |i(15.110396)>| =     0.00989776
 # 77 1 |<O|YDIPLEN |i(15.124748)>| =     0.01293588
 # 79 1 |<O|YDIPLEN |i(15.127363)>| =     0.00184763
 # 81 1 |<O|YDIPLEN |i(15.153235)>| =     0.00545600
 # 83 1 |<O|YDIPLEN |i(15.159726)>| =     0.00043600
 # 85 1 |<O|YDIPLEN |i(15.163542)>| =     0.01610060
 # 87 1 |<O|YDIPLEN |i(15.187779)>| =     0.01119827
 # 89 1 |<O|YDIPLEN |i(15.219465)>| =     0.00305541
 # 91 1 |<O|YDIPLEN |i(15.239384)>| =     0.00097808
 # 93 1 |<O|ZDIPLEN |i(14.915565)>| =     0.02544776
 # 95 1 |<O|ZDIPLEN |i(14.971648)>| =     0.05638233
 # 97 1 |<O|ZDIPLEN |i(15.004016)>| =     0.02097459
 # 99 1 |<O|ZDIPLEN |i(15.011866)>| =     0.00780431
 #101 1 |<O|ZDIPLEN |i(15.070656)>| =     0.01025833
 #103 1 |<O|ZDIPLEN |i(15.093178)>| =     0.00785023
 #105 1 |<O|ZDIPLEN |i(15.110396)>| =     0.00252850
 #107 1 |<O|ZDIPLEN |i(15.124748)>| =     0.00854553
 #109 1 |<O|ZDIPLEN |i(15.127363)>| =     0.00638107
 #111 1 |<O|ZDIPLEN |i(15.153235)>| =     0.01377284
 #113 1 |<O|ZDIPLEN |i(15.159726)>| =     0.00286552
 #115 1 |<O|ZDIPLEN |i(15.163542)>| =     0.01305609
 #117 1 |<O|ZDIPLEN |i(15.187779)>| =     0.01297177
 #119 1 |<O|ZDIPLEN |i(15.219465)>| =     0.00122511
 #121 1 |<O|ZDIPLEN |i(15.239384)>| =     0.00926515

 THE_END   
