

     ************************************************************************
     *************** Dalton - An Electronic Structure Program ***************
     ************************************************************************

    This is output from DALTON release Dalton2017.alpha (2016)
         ( Web site: http://daltonprogram.org )

   ----------------------------------------------------------------------------

    NOTE:
     
    Dalton is an experimental code for the evaluation of molecular
    properties using (MC)SCF, DFT, CI, and CC wave functions.
    The authors accept no responsibility for the performance of
    the code or for the correctness of the results.
     
    The code (in whole or part) is provided under a licence and
    is not to be reproduced for further distribution without
    the written permission of the authors or their representatives.
     
    See the home page "http://daltonprogram.org" for further information.
     
    If results obtained with this code are published,
    the appropriate citations would be both of:
     
       K. Aidas, C. Angeli, K. L. Bak, V. Bakken, R. Bast,
       L. Boman, O. Christiansen, R. Cimiraglia, S. Coriani,
       P. Dahle, E. K. Dalskov, U. Ekstroem,
       T. Enevoldsen, J. J. Eriksen, P. Ettenhuber, B. Fernandez,
       L. Ferrighi, H. Fliegl, L. Frediani, K. Hald, A. Halkier,
       C. Haettig, H. Heiberg, T. Helgaker, A. C. Hennum,
       H. Hettema, E. Hjertenaes, S. Hoest, I.-M. Hoeyvik,
       M. F. Iozzi, B. Jansik, H. J. Aa. Jensen, D. Jonsson,
       P. Joergensen, J. Kauczor, S. Kirpekar,
       T. Kjaergaard, W. Klopper, S. Knecht, R. Kobayashi, H. Koch,
       J. Kongsted, A. Krapp, K. Kristensen, A. Ligabue,
       O. B. Lutnaes, J. I. Melo, K. V. Mikkelsen, R. H. Myhre,
       C. Neiss, C. B. Nielsen, P. Norman, J. Olsen,
       J. M. H. Olsen, A. Osted, M. J. Packer, F. Pawlowski,
       T. B. Pedersen, P. F. Provasi, S. Reine, Z. Rinkevicius,
       T. A. Ruden, K. Ruud, V. Rybkin, P. Salek, C. C. M. Samson,
       A. Sanchez de Meras, T. Saue, S. P. A. Sauer,
       B. Schimmelpfennig, K. Sneskov, A. H. Steindal,
       K. O. Sylvester-Hvid, P. R. Taylor, A. M. Teale,
       E. I. Tellgren, D. P. Tew, A. J. Thorvaldsen, L. Thoegersen,
       O. Vahtras, M. A. Watson, D. J. D. Wilson, M. Ziolkowski
       and H. Agren,
       "The Dalton quantum chemistry program system",
       WIREs Comput. Mol. Sci. 2014, 4:269–284 (doi: 10.1002/wcms.1172)
     
    and
     
       Dalton, a Molecular Electronic Structure Program,
       Release Dalton2017.alpha (2016), see http://daltonprogram.org
   ----------------------------------------------------------------------------

    Authors in alphabetical order (major contribution(s) in parenthesis):

  Kestutis Aidas,           Vilnius University,           Lithuania   (QM/MM)
  Celestino Angeli,         University of Ferrara,        Italy       (NEVPT2)
  Keld L. Bak,              UNI-C,                        Denmark     (AOSOPPA, non-adiabatic coupling, magnetic properties)
  Vebjoern Bakken,          University of Oslo,           Norway      (DALTON; geometry optimizer, symmetry detection)
  Radovan Bast,             UiT The Arctic U. of Norway,  Norway      (DALTON installation and execution frameworks)
  Pablo Baudin,             University of Valencia,       Spain       (Cholesky excitation energies)
  Linus Boman,              NTNU,                         Norway      (Cholesky decomposition and subsystems)
  Ove Christiansen,         Aarhus University,            Denmark     (CC module)
  Renzo Cimiraglia,         University of Ferrara,        Italy       (NEVPT2)
  Sonia Coriani,            University of Trieste,        Italy       (CC module, MCD in RESPONS)
  Janusz Cukras,            University of Trieste,        Italy       (MChD in RESPONS)
  Paal Dahle,               University of Oslo,           Norway      (Parallelization)
  Erik K. Dalskov,          UNI-C,                        Denmark     (SOPPA)
  Thomas Enevoldsen,        Univ. of Southern Denmark,    Denmark     (SOPPA)
  Janus J. Eriksen,         Aarhus University,            Denmark     (Polarizable embedding model, TDA)
  Rasmus Faber,             University of Copenhagen,     Denmark     (Vib.avg. NMR with SOPPA, parallel AO-SOPPA)
  Berta Fernandez,          U. of Santiago de Compostela, Spain       (doublet spin, ESR in RESPONS)
  Lara Ferrighi,            Aarhus University,            Denmark     (PCM Cubic response)
  Heike Fliegl,             University of Oslo,           Norway      (CCSD(R12))
  Luca Frediani,            UiT The Arctic U. of Norway,  Norway      (PCM)
  Bin Gao,                  UiT The Arctic U. of Norway,  Norway      (Gen1Int library)
  Christof Haettig,         Ruhr-University Bochum,       Germany     (CC module)
  Kasper Hald,              Aarhus University,            Denmark     (CC module)
  Asger Halkier,            Aarhus University,            Denmark     (CC module)
  Frederik Beyer Hansen,    University of Copenhagen,     Denmark     (Parallel AO-SOPPA)
  Erik D. Hedegaard,        Univ. of Southern Denmark,    Denmark     (Polarizable embedding model, QM/MM)
  Hanne Heiberg,            University of Oslo,           Norway      (geometry analysis, selected one-electron integrals)
  Trygve Helgaker,          University of Oslo,           Norway      (DALTON; ABACUS, ERI, DFT modules, London, and much more)
  Alf Christian Hennum,     University of Oslo,           Norway      (Parity violation)
  Hinne Hettema,            University of Auckland,       New Zealand (quadratic response in RESPONS; SIRIUS supersymmetry)
  Eirik Hjertenaes,         NTNU,                         Norway      (Cholesky decomposition)
  Pi A. B. Haase,           University of Copenhagen,     Denmark     (Triplet AO-SOPPA)
  Maria Francesca Iozzi,    University of Oslo,           Norway      (RPA)
  Brano Jansik              Technical Univ. of Ostrava    Czech Rep.  (DFT cubic response)
  Hans Joergen Aa. Jensen,  Univ. of Southern Denmark,    Denmark     (DALTON; SIRIUS, RESPONS, ABACUS modules, London, and much more)
  Dan Jonsson,              UiT The Arctic U. of Norway,  Norway      (cubic response in RESPONS module)
  Poul Joergensen,          Aarhus University,            Denmark     (RESPONS, ABACUS, and CC modules)
  Maciej Kaminski,          University of Warsaw,         Poland      (CPPh in RESPONS)
  Joanna Kauczor,           Linkoeping University,        Sweden      (Complex polarization propagator (CPP) module)
  Sheela Kirpekar,          Univ. of Southern Denmark,    Denmark     (Mass-velocity & Darwin integrals)
  Wim Klopper,              KIT Karlsruhe,                Germany     (R12 code in CC, SIRIUS, and ABACUS modules)
  Stefan Knecht,            ETH Zurich,                   Switzerland (Parallel CI and MCSCF)
  Rika Kobayashi,           Australian National Univ.,    Australia   (DIIS in CC, London in MCSCF)
  Henrik Koch,              NTNU,                         Norway      (CC module, Cholesky decomposition)
  Jacob Kongsted,           Univ. of Southern Denmark,    Denmark     (Polarizable embedding model, QM/MM)
  Andrea Ligabue,           University of Modena,         Italy       (CTOCD, AOSOPPA)
  Nanna H. List             Univ. of Southern Denmark,    Denmark     (Polarizable embedding model)
  Ola B. Lutnaes,           University of Oslo,           Norway      (DFT Hessian)
  Juan I. Melo,             University of Buenos Aires,   Argentina   (LRESC, Relativistic Effects on NMR Shieldings)
  Kurt V. Mikkelsen,        University of Copenhagen,     Denmark     (MC-SCRF and QM/MM)
  Rolf H. Myhre,            NTNU,                         Norway      (Cholesky, subsystems and ECC2)
  Christian Neiss,          Univ. Erlangen-Nuernberg,     Germany     (CCSD(R12))
  Christian B. Nielsen,     University of Copenhagen,     Denmark     (QM/MM)
  Patrick Norman,           Linkoeping University,        Sweden      (Cubic response and complex frequency response in RESPONS)
  Jeppe Olsen,              Aarhus University,            Denmark     (SIRIUS CI/density modules)
  Jogvan Magnus H. Olsen,   Univ. of Southern Denmark,    Denmark     (Polarizable embedding model, QM/MM)
  Anders Osted,             Copenhagen University,        Denmark     (QM/MM)
  Martin J. Packer,         University of Sheffield,      UK          (SOPPA)
  Filip Pawlowski,          Kazimierz Wielki University,  Poland      (CC3)
  Morten N. Pedersen,       Univ. of Southern Denmark,    Denmark     (Polarizable embedding model)
  Thomas B. Pedersen,       University of Oslo,           Norway      (Cholesky decomposition)
  Patricio F. Provasi,      University of Northeastern,   Argentina   (Analysis of coupling constants in localized orbitals)
  Zilvinas Rinkevicius,     KTH Stockholm,                Sweden      (open-shell DFT, ESR)
  Elias Rudberg,            KTH Stockholm,                Sweden      (DFT grid and basis info)
  Torgeir A. Ruden,         University of Oslo,           Norway      (Numerical derivatives in ABACUS)
  Kenneth Ruud,             UiT The Arctic U. of Norway,  Norway      (DALTON; ABACUS magnetic properties and much more)
  Pawel Salek,              KTH Stockholm,                Sweden      (DALTON; DFT code)
  Claire C. M. Samson       University of Karlsruhe       Germany     (Boys localization, r12 integrals in ERI)
  Alfredo Sanchez de Meras, University of Valencia,       Spain       (CC module, Cholesky decomposition)
  Trond Saue,               Paul Sabatier University,     France      (direct Fock matrix construction)
  Stephan P. A. Sauer,      University of Copenhagen,     Denmark     (SOPPA(CCSD), SOPPA prop., AOSOPPA, vibrational g-factors)
  Bernd Schimmelpfennig,    Forschungszentrum Karlsruhe,  Germany     (AMFI module)
  Kristian Sneskov,         Aarhus University,            Denmark     (Polarizable embedding model, QM/MM)
  Arnfinn H. Steindal,      UiT The Arctic U. of Norway,  Norway      (parallel QM/MM, Polarizable embedding model)
  Casper Steinmann,         Univ. of Southern Denmark,    Denmark     (QFIT, Polarizable embedding model)
  K. O. Sylvester-Hvid,     University of Copenhagen,     Denmark     (MC-SCRF)
  Peter R. Taylor,          VLSCI/Univ. of Melbourne,     Australia   (Symmetry handling ABACUS, integral transformation)
  Andrew M. Teale,          University of Nottingham,     England     (DFT-AC, DFT-D)
  David P. Tew,             University of Bristol,        England     (CCSD(R12))
  Olav Vahtras,             KTH Stockholm,                Sweden      (triplet response, spin-orbit, ESR, TDDFT, open-shell DFT)
  David J. Wilson,          La Trobe University,          Australia   (DFT Hessian and DFT magnetizabilities)
  Hans Agren,               KTH Stockholm,                Sweden      (SIRIUS module, RESPONS, MC-SCRF solvation model)
 --------------------------------------------------------------------------------

     Date and time (Linux)  : Sat Dec 15 10:29:35 2018
     Host name              : n-62-24-2                               

 * Work memory size             :  1280000000 =  9.537 gigabytes.

 * Directories for basis set searches:
   1) /zhome/37/3/129401/NH3NH4/CCSD/AIMD_SAMPLING/nh4_4h2o_nd
   2) /zhome/9a/4/124800/source/dalton/build-mlcc/basis


Compilation information
-----------------------

 Who compiled             | rfaber
 Host                     | hpclogin1
 System                   | Linux-2.6.32-696.1.1.el6.x86_64
 CMake generator          | Unix Makefiles
 Processor                | x86_64
 64-bit integers          | ON
 MPI                      | OFF
 Fortran compiler         | /opt/intel/2016update2/compilers_and_libraries_201
                          | 6.2.181/linux/bin/intel64/ifort
 Fortran compiler version | ifort (IFORT) 16.0.2 20160204
 C compiler               | /opt/intel/2016update2/compilers_and_libraries_201
                          | 6.2.181/linux/bin/intel64/icc
 C compiler version       | icc (ICC) 16.0.2 20160204
 C++ compiler             | /opt/intel/2016update2/compilers_and_libraries_201
                          | 6.2.181/linux/bin/intel64/icpc
 C++ compiler version     | icpc (ICC) 16.0.2 20160204
 Static linking           | OFF
 Last Git revision        | bb4d1599ca5680a9f3980451fc8bbefdba436d59
 Git branch               | mlcc
 Configuration time       | 2017-06-13 16:11:03.928841


   Content of the .dal input file
 ----------------------------------

**DALTON
.RUN WAVE FUNCTIONS
*QMMM
.QMMM
**INTEGRALS
.DIPLEN
**WAVE FUNCTIONS
.CC
*PRINT
!To check the origin of excit
.PRINTL
   0 11
*SCF INP
.THRESH
1.0D-7
*ORBITAL INPUT
.MOSTART
 NEWORB
*CC INP
.RESTART
.CCSD
.THRLEQ
 1.0D-9
.THRENR
 1.0D-10
.FROIMP
4
0
.PRINT
 1
.MAX IT
 1200
.MAXRED
 1200
.MXLRV
1199
*CCSLV
.CCMM
.MXSLIT
200
.MXINIT
4 5
*CCEXCI
.NCCEXC
 15
.CVSEPARA
1
1
*CCLRSD
.DIPOLE
**END OF DALTON INPUT


   Content of the .mol file
 ----------------------------

ATOMBASIS


Atomtypes=4 Charge=1 Nosymm Angstrom
   7.00000    1    Basis=6-311G**
N          0.000000        0.000000        0.000000
   1.00000    4    Basis=6-311G**
H          0.041844        0.925425       -0.441497
H          0.972270       -0.465234       -0.082964
H         -0.625482       -0.706960       -0.574691
H         -0.218046       -0.000531        1.003046
   8.00000    4    Basis=6-311G**
O          0.086632        2.111185       -1.930292
O         -1.949307       -1.078720       -1.684103
O         -0.545257       -0.162352        2.694023
O          2.126937       -1.454059       -0.956714
   1.00000    8    Basis=6-311G**
H         -0.047913        1.695049       -2.810113
H          0.989501        2.438478       -1.968769
H         -2.312014       -1.958774       -1.395489
H         -2.703692       -0.385732       -1.507868
H         -0.166609       -0.868401        3.174675
H          0.017097        0.671444        2.995701
H          1.936514       -2.340570       -0.599312
H          3.095356       -1.485638       -1.061378


       *******************************************************************
       *********** Output from DALTON general input processing ***********
       *******************************************************************

 --------------------------------------------------------------------------------
   Overall default print level:    0
   Print level for DALTON.STAT:    1

    HERMIT 1- and 2-electron integral sections will be executed
    "Old" integral transformation used (limited to max 255 basis functions)
    Wave function sections will be executed (SIRIUS module)
 --------------------------------------------------------------------------------


 Changes of defaults for *QMMM  :
 --------------------------------

 +------------------+
 |  WORD: | CHANGE: |
 +------------------+
 |   QMMM |       T |
 +------------------+
 


   ****************************************************************************
   *************** Output of molecule and basis set information ***************
   ****************************************************************************


    The two title cards from your ".mol" input:
    ------------------------------------------------------------------------
 1:                                                                         
 2:                                                                         
    ------------------------------------------------------------------------

  Coordinates are entered in Angstrom and converted to atomic units.
          - Conversion factor : 1 bohr = 0.52917721 A

  Atomic type no.    1
  --------------------
  Nuclear charge:   7.00000
  Number of symmetry independent centers:    1
  Number of basis sets to read;    1
  The basis set is "6-311G**" from the basis set library.
  Basis set file used for this atomic type with Z =   7 :
     "/zhome/9a/4/124800/source/dalton/build-mlcc/basis/6-311G**"

  Info about the basis set file: your basis has no documentation.
  Basis set: 6-311G**                                                                        

  Atomic type no.    2
  --------------------
  Nuclear charge:   1.00000
  Number of symmetry independent centers:    4
  Number of basis sets to read;    1
  The basis set is "6-311G**" from the basis set library.
  Basis set file used for this atomic type with Z =   1 :
     "/zhome/9a/4/124800/source/dalton/build-mlcc/basis/6-311G**"

  Info about the basis set file: your basis has no documentation.
  Basis set: 6-311G**                                                                        

  Atomic type no.    3
  --------------------
  Nuclear charge:   8.00000
  Number of symmetry independent centers:    4
  Number of basis sets to read;    1
  The basis set is "6-311G**" from the basis set library.
  Basis set file used for this atomic type with Z =   8 :
     "/zhome/9a/4/124800/source/dalton/build-mlcc/basis/6-311G**"

  Info about the basis set file: your basis has no documentation.
  Basis set: 6-311G**                                                                        

  Atomic type no.    4
  --------------------
  Nuclear charge:   1.00000
  Number of symmetry independent centers:    8
  Number of basis sets to read;    1
  The basis set is "6-311G**" from the basis set library.
  Basis set file used for this atomic type with Z =   1 :
     "/zhome/9a/4/124800/source/dalton/build-mlcc/basis/6-311G**"

  Info about the basis set file: your basis has no documentation.
  Basis set: 6-311G**                                                                        


                         SYMGRP: Point group information
                         -------------------------------

@    Point group: C1 


                                 Isotopic Masses
                                 ---------------

                           N          14.003074
                           H           1.007825
                           H           1.007825
                           H           1.007825
                           H           1.007825
                           O          15.994915
                           O          15.994915
                           O          15.994915
                           O          15.994915
                           H           1.007825
                           H           1.007825
                           H           1.007825
                           H           1.007825
                           H           1.007825
                           H           1.007825
                           H           1.007825
                           H           1.007825

                       Total mass:    90.076634 amu
                       Natural abundance:  98.500 %

 Center-of-mass coordinates (a.u.):   -0.073595   -0.248414   -0.698983


  Atoms and basis sets
  --------------------

  Number of atom types :    4
  Total number of atoms:   17

  label    atoms   charge   prim   cont     basis
  ----------------------------------------------------------------------
  N           1    7.0000    31    18      [11s5p1d|4s3p1d]                                   
  H           4    1.0000     8     6      [5s1p|3s1p]                                        
  O           4    8.0000    31    18      [11s5p1d|4s3p1d]                                   
  H           8    1.0000     8     6      [5s1p|3s1p]                                        
  ----------------------------------------------------------------------
  total:     17   51.0000   251   162
  ----------------------------------------------------------------------
  Spherical harmonic basis used.

  Threshold for neglecting AO integrals:  1.00D-12


  Cartesian Coordinates (a.u.)
  ----------------------------

  Total number of coordinates:   51
  N       :     1  x   0.0000000000    2  y   0.0000000000    3  z   0.0000000000
  H       :     4  x   0.0790737000    5  y   1.7487997992    6  z  -0.8343084150
  H       :     7  x   1.8373240195    8  y  -0.8791648440    9  z  -0.1567792382
  H       :    10  x  -1.1819896761   11  y  -1.3359607813   12  z  -1.0860085965
  H       :    13  x  -0.4120472227   14  y  -0.0010034446   15  z   1.8954822308
  O       :    16  x   0.1637107537   17  y   3.9895614492   18  z  -3.6477232213
  O       :    19  x  -3.6836563635   20  y  -2.0384853656   21  z  -3.1824934363
  O       :    22  x  -1.0303863977   23  y  -0.3068008158   24  z   5.0909656444
  O       :    25  x   4.0193284151   26  y  -2.7477732796   27  z  -1.8079274399
  H       :    28  x  -0.0905424478   29  y   3.2031783784   30  z  -5.3103439503
  H       :    31  x   1.8698858904   32  y   4.6080555818   33  z  -3.7204342134
  H       :    34  x  -4.3690732572   35  y  -3.7015464008   36  z  -2.6370920204
  H       :    37  x  -5.1092374063   38  y  -0.7289278376   39  z  -2.8494575526
  H       :    40  x  -0.3148453800   41  y  -1.6410400567   42  z   5.9992662859
  H       :    43  x   0.0323086476   44  y   1.2688452683   45  z   5.6610544424
  H       :    46  x   3.6594810972   47  y  -4.4230362764   48  z  -1.1325355434
  H       :    49  x   5.8493750994   50  y  -2.8074489409   51  z  -2.0057137351

  Max    interatomic separation is    6.5118 Angstrom (   12.3054 Bohr)
  between atoms   14 and   10, "H     " and "H     ".

  Min HX interatomic separation is    0.9343 Angstrom (    1.7656 Bohr)

  Min YX interatomic separation is    2.7484 Angstrom (    5.1936 Bohr)


  Bond distances (Angstrom):
  --------------------------

                  atom 1     atom 2       distance
                  ------     ------       --------
  bond distance:  H          N            1.026198
  bond distance:  H          N            1.081034
  bond distance:  H          N            1.105120
  bond distance:  H          N            1.026472
  bond distance:  H          O            0.982526
  bond distance:  H          O            0.961131
  bond distance:  H          O            0.994660
  bond distance:  H          O            1.039417
  bond distance:  H          O            0.934294
  bond distance:  H          O            1.049984
  bond distance:  H          O            0.974628
  bond distance:  H          O            0.974570


  Bond angles (degrees):
  ----------------------

                  atom 1     atom 2     atom 3         angle
                  ------     ------     ------         -----
  bond angle:     H          N          H            108.567
  bond angle:     H          N          H            112.101
  bond angle:     H          N          H            115.438
  bond angle:     H          N          H            101.176
  bond angle:     H          N          H            105.416
  bond angle:     H          N          H            112.805
  bond angle:     H          O          H            103.710
  bond angle:     H          O          H            106.024
  bond angle:     H          O          H            103.605
  bond angle:     H          O          H            101.774




 Principal moments of inertia (u*A**2) and principal axes
 --------------------------------------------------------

   IA     305.401300         -0.036570   -0.227943    0.972988
   IB     401.826204          0.919075   -0.389966   -0.056814
   IC     441.271427          0.392383    0.892171    0.223757


 Rotational constants
 --------------------

               A                   B                   C

           1654.8031           1257.7054           1145.2792 MHz
            0.055198            0.041953            0.038202 cm-1


@  Nuclear repulsion energy :  203.301569383779 Hartree


                     .---------------------------------------.
                     | Starting in Integral Section (HERMIT) |
                     `---------------------------------------'



 ***************************************************************************************
 ****************** Output from **INTEGRALS input processing (HERMIT) ******************
 ***************************************************************************************



    *************************************************************************
    ****************** Output from HERMIT input processing ******************
    *************************************************************************


 Default print level:        1

 * Nuclear model: Point charge

 Calculation of one- and two-electron Hamiltonian integrals.

 The following one-electron property integrals are calculated as requested:
          - overlap integrals
          - dipole length integrals

 Center of mass  (bohr):     -0.073594782170     -0.248414031917     -0.698982847901
 Operator center (bohr):      0.000000000000      0.000000000000      0.000000000000
 Gauge origin    (bohr):      0.000000000000      0.000000000000      0.000000000000
 Dipole origin   (bohr):      0.000000000000      0.000000000000      0.000000000000
 
  *********************************** 
  QMMM electrostatic potential: 
  Multipole order                                    0
  Isotropic polarization  
  *********************************** 
 
  ---------------- 
  QMMM information 
  ---------------- 
 
  MM coordinates in au 
  -------------------- 
     1     10.246195      8.599813     -9.063236
     2      8.765823      9.506381     -8.402926
     3     10.006990      6.849959     -8.915545
     4      4.960873      5.861112     -5.919843
     5      5.797168      6.697524     -4.447744
     6      6.434886      4.812118     -6.606152
     7      8.540387      7.655626     -1.827942
     8      8.901183      6.566668     -0.392904
     9     10.246915      8.127797     -2.613091
    10      8.819327     -6.841168     -8.973981
    11      9.087487     -7.597455    -10.745873
    12     10.229097     -7.509592     -8.018446
    13      5.913786      2.309636      1.991503
    14      4.735315      3.558371      1.684825
    15      6.593562      1.692896      0.364112
    16    -10.206796      8.876567     -4.521323
    17    -11.090205      8.552917     -6.112759
    18     -9.696343     10.632688     -4.341922
    19     -1.602989     -9.125402      1.428181
    20     -0.998813    -10.731766      0.657889
    21     -2.394200     -9.559153      3.144440
    22      6.668842     -1.955220     -9.467307
    23      4.883268     -1.986588     -8.735182
    24      7.500992     -3.500173     -8.970662
    25      7.587029      9.501698      3.420894
    26      8.612164     11.028589      3.029554
    27      8.249038      8.575167      4.992224
    28     -1.121738      6.245016    -10.910687
    29     -1.992306      6.153434    -12.515652
    30     -0.729043      4.461222    -10.380608
    31     -7.486687      0.773146     -1.519489
    32     -8.149627      0.068350      0.146664
    33     -7.719478      2.795871     -1.243665
    34      6.140657    -11.638929     -7.300210
    35      6.707660     -9.852675     -7.480985
    36      6.310355    -11.763626     -5.422146
    37      1.921373     -2.489907     -7.218451
    38      0.538058     -3.723821     -7.757303
    39      2.331559     -3.048017     -5.470355
    40     11.737418     -0.130393     -4.730676
    41     12.341314     -1.440500     -5.951810
    42     13.387874      0.145031     -3.670262
    43     10.320539     -7.216216     -2.968178
    44      9.093836     -8.579772     -2.779351
    45      9.628774     -5.744663     -2.042582
    46     10.837685      5.038705      1.942055
    47     12.170460      6.071352      2.763418
    48      9.314029      5.015603      3.182830
    49      5.415023     11.190034     10.308568
    50      5.235796     10.156171      8.888151
    51      4.996884     10.129830     11.743172
    52     -3.303844      7.489759     -3.455774
    53     -2.010689      6.175933     -3.559310
    54     -4.806713      6.828446     -2.566917
    55    -10.760547     -0.062678      2.125719
    56    -11.035356     -0.625392      3.876442
    57    -11.653272      1.633508      2.210301
    58      0.550360    -10.736819     -6.353546
    59      2.003142    -11.332002     -7.442906
    60     -0.890798    -11.798809     -6.838038
    61     -6.820743      1.254292      9.849876
    62     -6.719951      0.405067     11.626695
    63     -6.431067     -0.153359      8.681116
    64     -5.865251     -2.366126      6.535366
    65     -4.668929     -1.505590      5.562836
    66     -4.981964     -3.343874      7.916410
    67     -8.183446     -8.818358     -4.396805
    68     -7.935283     -8.806787     -6.287593
    69     -9.746291     -8.033679     -3.915257
    70     -3.846660     10.116416     -7.609252
    71     -4.159401      9.146416     -6.011071
    72     -3.035397      8.857968     -8.715683
    73    -10.017064     -5.815105     10.207836
    74    -10.382473     -4.444458      9.029077
    75    -11.263650     -7.170806     10.141153
    76     -4.134307     -6.112472      9.444551
    77     -4.162316     -7.485617      8.097958
    78     -5.450749     -6.549247     10.682278
    79      3.284289      7.055676      1.450985
    80      4.793334      8.136144      1.679999
    81      2.037374      7.920184      0.256954
    82     -5.009320     -2.546831     -8.109797
    83     -4.062363     -3.903860     -8.946744
    84     -4.531405     -2.733508     -6.232838
    85      7.204912     -2.144584      5.447171
    86      6.846168     -0.771086      4.125964
    87      5.902235     -1.596518      6.709852
    88      3.305193     -7.350305     11.578923
    89      3.365419     -9.088974     10.927988
    90      4.723501     -7.177643     12.864004
    91      4.130919     -1.548364      9.921132
    92      3.098720     -2.950467      9.450895
    93      5.532168     -2.155873     11.124317
    94      4.839526      3.767343      9.087436
    95      4.211644      4.930350     10.443783
    96      4.580175      2.057475      9.660815
    97     -6.757109     10.003859      7.034640
    98     -7.825214     10.612617      8.453663
    99     -5.462949      8.722144      7.722434
   100     -8.122084     -6.084079      3.415661
   101     -7.478141     -5.365688      1.803721
   102     -7.396042     -5.026035      4.775739
   103     -7.253430     -9.509523     -9.341239
   104     -8.537669    -10.231896    -10.504281
   105     -6.152181    -10.826405     -8.910457
   106      9.210130     -8.764682      9.581393
   107      8.054001    -10.353707      9.673181
   108      9.031704     -8.394468      7.681572
   109    -10.399890     11.410076     10.777433
   110    -11.299306      9.786327     11.220009
   111    -11.713624     12.148358      9.693297
   112     -5.315592     -6.233912     -1.072609
   113     -3.799323     -7.198881     -0.312863
   114     -6.155675     -7.418864     -2.334558
   115    -11.559407     -1.019794      7.661889
   116    -11.130857      0.313439      8.897675
   117    -13.350244     -0.956436      7.067476
   118      7.370427     -7.808494      4.864784
   119      8.787655     -8.165376      3.594939
   120      7.108282     -5.889692      5.075434
   121      1.795742    -10.005342      6.510346
   122      0.404331    -10.650778      5.462622
   123      3.426302    -10.423521      5.631424
   124      8.864592     -2.366171     -1.233961
   125      9.906719     -2.077157      0.257607
   126     10.004342     -1.733077     -2.622808
   127     -3.991045      5.888005      8.199306
   128     -2.658266      5.141837      7.092618
   129     -5.185779      4.494646      8.530188
   130    -11.609088      4.519329     11.392201
   131    -12.569517      3.113639     12.146989
   132    -10.036978      3.680189     11.097352
   133      8.519726      2.868342     -7.981580
   134      7.688126      1.261211     -8.549006
   135      9.616393      2.434315     -6.577645
   136      0.783802      4.653878      6.228753
   137      1.437496      5.737326      4.882669
   138      2.256913      4.131616      7.232556
   139     -1.186123      1.697395     -8.115692
   140     -0.017138      0.166046     -8.315262
   141     -2.949573      0.972345     -7.847793
   142      0.422890     -4.637050      7.996973
   143      0.813780     -6.273006      7.376971
   144     -0.897565     -5.057506      9.198410
   145     -0.930796     -6.338485     -9.302816
   146     -0.737212     -7.700880     -7.933592
   147      0.435538     -6.684300    -10.499672
   148     -9.670473     -3.470535     -8.565673
   149     -9.948403     -4.364311    -10.200615
   150     -7.905917     -3.281052     -8.491205
   151      3.851613      7.082765    -10.790227
   152      1.919932      6.998561    -10.762510
   153      4.255871      6.583987     -9.061845
   154      8.715685      5.987852      6.920185
   155      7.474780      4.649114      7.375575
   156     10.323604      5.541584      7.780063
   157      6.593092    -11.007819     -1.744727
   158      5.340425    -10.209671     -0.714349
   159      7.042456    -12.765297     -1.374736
   160      3.192265     -7.215420      0.994090
   161      4.128048     -7.063821      2.575735
   162      1.522734     -7.650020      1.633200
   163    -11.651588     -9.763287      2.202980
   164    -11.896506     -9.120795      0.472936
   165    -10.259145     -8.685504      2.951533
   166     -8.085798      5.684487     -1.248782
   167     -9.123303      6.239252     -2.684811
   168     -8.355611      6.948139      0.208580
   169     -4.517326     -9.309069      5.326254
   170     -5.213002    -10.924805      5.922895
   171     -6.020743     -8.336544      4.531123
   172     -9.181249      8.613154      2.737382
   173    -10.555927      9.776727      2.327882
   174     -8.614054      9.210081      4.335937
   175      0.506422     10.195433     -1.620108
   176     -1.206072      9.526612     -2.110529
   177      0.930233     11.307443     -3.038016
 
  MM charges 
  ---------- 
     1     -0.674440
     2      0.337220
     3      0.337220
     4     -0.674440
     5      0.337220
     6      0.337220
     7     -0.674440
     8      0.337220
     9      0.337220
    10     -0.674440
    11      0.337220
    12      0.337220
    13     -0.674440
    14      0.337220
    15      0.337220
    16     -0.674440
    17      0.337220
    18      0.337220
    19     -0.674440
    20      0.337220
    21      0.337220
    22     -0.674440
    23      0.337220
    24      0.337220
    25     -0.674440
    26      0.337220
    27      0.337220
    28     -0.674440
    29      0.337220
    30      0.337220
    31     -0.674440
    32      0.337220
    33      0.337220
    34     -0.674440
    35      0.337220
    36      0.337220
    37     -0.674440
    38      0.337220
    39      0.337220
    40     -0.674440
    41      0.337220
    42      0.337220
    43     -0.674440
    44      0.337220
    45      0.337220
    46     -0.674440
    47      0.337220
    48      0.337220
    49     -0.674440
    50      0.337220
    51      0.337220
    52     -0.674440
    53      0.337220
    54      0.337220
    55     -0.674440
    56      0.337220
    57      0.337220
    58     -0.674440
    59      0.337220
    60      0.337220
    61     -0.674440
    62      0.337220
    63      0.337220
    64     -0.674440
    65      0.337220
    66      0.337220
    67     -0.674440
    68      0.337220
    69      0.337220
    70     -0.674440
    71      0.337220
    72      0.337220
    73     -0.674440
    74      0.337220
    75      0.337220
    76     -0.674440
    77      0.337220
    78      0.337220
    79     -0.674440
    80      0.337220
    81      0.337220
    82     -0.674440
    83      0.337220
    84      0.337220
    85     -0.674440
    86      0.337220
    87      0.337220
    88     -0.674440
    89      0.337220
    90      0.337220
    91     -0.674440
    92      0.337220
    93      0.337220
    94     -0.674440
    95      0.337220
    96      0.337220
    97     -0.674440
    98      0.337220
    99      0.337220
   100     -0.674440
   101      0.337220
   102      0.337220
   103     -0.674440
   104      0.337220
   105      0.337220
   106     -0.674440
   107      0.337220
   108      0.337220
   109     -0.674440
   110      0.337220
   111      0.337220
   112     -0.674440
   113      0.337220
   114      0.337220
   115     -0.674440
   116      0.337220
   117      0.337220
   118     -0.674440
   119      0.337220
   120      0.337220
   121     -0.674440
   122      0.337220
   123      0.337220
   124     -0.674440
   125      0.337220
   126      0.337220
   127     -0.674440
   128      0.337220
   129      0.337220
   130     -0.674440
   131      0.337220
   132      0.337220
   133     -0.674440
   134      0.337220
   135      0.337220
   136     -0.674440
   137      0.337220
   138      0.337220
   139     -0.674440
   140      0.337220
   141      0.337220
   142     -0.674440
   143      0.337220
   144      0.337220
   145     -0.674440
   146      0.337220
   147      0.337220
   148     -0.674440
   149      0.337220
   150      0.337220
   151     -0.674440
   152      0.337220
   153      0.337220
   154     -0.674440
   155      0.337220
   156      0.337220
   157     -0.674440
   158      0.337220
   159      0.337220
   160     -0.674440
   161      0.337220
   162      0.337220
   163     -0.674440
   164      0.337220
   165      0.337220
   166     -0.674440
   167      0.337220
   168      0.337220
   169     -0.674440
   170      0.337220
   171      0.337220
   172     -0.674440
   173      0.337220
   174      0.337220
   175     -0.674440
   176      0.337220
   177      0.337220
 
  MM isotropic polarizabilities in au 
  ----------------------------------- 
     1      5.739350
     2      2.308390
     3      2.308390
     4      5.739350
     5      2.308390
     6      2.308390
     7      5.739350
     8      2.308390
     9      2.308390
    10      5.739350
    11      2.308390
    12      2.308390
    13      5.739350
    14      2.308390
    15      2.308390
    16      5.739350
    17      2.308390
    18      2.308390
    19      5.739350
    20      2.308390
    21      2.308390
    22      5.739350
    23      2.308390
    24      2.308390
    25      5.739350
    26      2.308390
    27      2.308390
    28      5.739350
    29      2.308390
    30      2.308390
    31      5.739350
    32      2.308390
    33      2.308390
    34      5.739350
    35      2.308390
    36      2.308390
    37      5.739350
    38      2.308390
    39      2.308390
    40      5.739350
    41      2.308390
    42      2.308390
    43      5.739350
    44      2.308390
    45      2.308390
    46      5.739350
    47      2.308390
    48      2.308390
    49      5.739350
    50      2.308390
    51      2.308390
    52      5.739350
    53      2.308390
    54      2.308390
    55      5.739350
    56      2.308390
    57      2.308390
    58      5.739350
    59      2.308390
    60      2.308390
    61      5.739350
    62      2.308390
    63      2.308390
    64      5.739350
    65      2.308390
    66      2.308390
    67      5.739350
    68      2.308390
    69      2.308390
    70      5.739350
    71      2.308390
    72      2.308390
    73      5.739350
    74      2.308390
    75      2.308390
    76      5.739350
    77      2.308390
    78      2.308390
    79      5.739350
    80      2.308390
    81      2.308390
    82      5.739350
    83      2.308390
    84      2.308390
    85      5.739350
    86      2.308390
    87      2.308390
    88      5.739350
    89      2.308390
    90      2.308390
    91      5.739350
    92      2.308390
    93      2.308390
    94      5.739350
    95      2.308390
    96      2.308390
    97      5.739350
    98      2.308390
    99      2.308390
   100      5.739350
   101      2.308390
   102      2.308390
   103      5.739350
   104      2.308390
   105      2.308390
   106      5.739350
   107      2.308390
   108      2.308390
   109      5.739350
   110      2.308390
   111      2.308390
   112      5.739350
   113      2.308390
   114      2.308390
   115      5.739350
   116      2.308390
   117      2.308390
   118      5.739350
   119      2.308390
   120      2.308390
   121      5.739350
   122      2.308390
   123      2.308390
   124      5.739350
   125      2.308390
   126      2.308390
   127      5.739350
   128      2.308390
   129      2.308390
   130      5.739350
   131      2.308390
   132      2.308390
   133      5.739350
   134      2.308390
   135      2.308390
   136      5.739350
   137      2.308390
   138      2.308390
   139      5.739350
   140      2.308390
   141      2.308390
   142      5.739350
   143      2.308390
   144      2.308390
   145      5.739350
   146      2.308390
   147      2.308390
   148      5.739350
   149      2.308390
   150      2.308390
   151      5.739350
   152      2.308390
   153      2.308390
   154      5.739350
   155      2.308390
   156      2.308390
   157      5.739350
   158      2.308390
   159      2.308390
   160      5.739350
   161      2.308390
   162      2.308390
   163      5.739350
   164      2.308390
   165      2.308390
   166      5.739350
   167      2.308390
   168      2.308390
   169      5.739350
   170      2.308390
   171      2.308390
   172      5.739350
   173      2.308390
   174      2.308390
   175      5.739350
   176      2.308390
   177      2.308390


     ************************************************************************
     ************************** Output from HERINT **************************
     ************************************************************************



                      Nuclear contribution to dipole moments
                      --------------------------------------

                 au               Debye          C m (/(10**-30)

      x     -2.39831568        -6.09591001       -20.33376708
      y    -13.51723365       -34.35737872      -114.60387945
      z    -34.55429793       -87.82825918      -292.96353806


  Time used in OVERLAP    is       0.20 seconds
  Time used in POPOVLP    is       0.15 seconds
  Time used in DIPLEN     is       0.16 seconds
  Time used in QUADRUP    is       0.89 seconds
  Time used in KINENE     is       0.16 seconds

 Threshold for neglecting two-electron integrals:  1.00D-12
 HERMIT - Number of two-electron integrals written:    38282729 ( 43.9% )
 HERMIT - Megabytes written:                            438.358

  Time used in TWOINT     is      17.65 seconds
  Total CPU  time used in HERMIT:  19.25 seconds
  Total wall time used in HERMIT:   7.94 seconds


                        .----------------------------------.
                        | End of Integral Section (HERMIT) |
                        `----------------------------------'



                   .--------------------------------------------.
                   | Starting in Wave Function Section (SIRIUS) |
                   `--------------------------------------------'

NCCEXCI for singlet:   15
 CCSD_INPUT: core-val requested
 Requested number of core orbs per sym
                     1
 Indices of requested core orbs
                     1
* Read MO coefficients from SIRIUS.RST with label "NEWORB  " and header info: 13Dec18  FOCKDIIS

 **********************************************************************
 *SIRIUS* a direct, restricted step, second order MCSCF program       *
 **********************************************************************

 
     Date and time (Linux)  : Sat Dec 15 10:29:43 2018
     Host name              : n-62-24-2                               

 Title lines from ".mol" input file:
                                                                             
                                                                             

 Print level on unit LUPRI =   2 is   0
 Print level on unit LUW4  =   2 is  11

@    (Integral direct) CC calculation.

@    This is a combination run starting with
@              a restricted, closed shell Hartree-Fock calculation


 Initial molecular orbitals are obtained according to
 ".MOSTART NEWORB" input option

@    QM part is embedded in an environment :

@         Model: QMMM

     Wave function specification
     ============================

     For the specification of the Coupled Cluster: see later.

@    Wave function type        --- CC ---
@    Number of closed shell electrons          50
@    Number of electrons in active shells       0
@    Total charge of the molecule               1

@    Spin multiplicity and 2 M_S                1         0
@    Total number of symmetries                 1 (point group: C1 )
@    Reference state symmetry                   1 (irrep name : A  )

     Orbital specifications
     ======================
@    Abelian symmetry species          All |    1
@                                          |  A  
                                       --- |  ---
@    Occupied SCF orbitals              25 |   25
@    Secondary orbitals                137 |  137
@    Total number of orbitals          162 |  162
@    Number of basis functions         162 |  162

     Optimization information
     ========================
@    Number of configurations                 1
@    Number of orbital rotations           3425
     ------------------------------------------
@    Total number of variables             3426

     Maximum number of Fock   iterations      0
     Maximum number of DIIS   iterations     60
     Maximum number of QC-SCF iterations     60
     Threshold for SCF convergence     1.00D-07


 Changes of defaults for CC:
 ---------------------------


 -Implicit frozen core calculation
 -Excitation energies calculated
 -One-photon absorption strengths will be calculated
 -Oscillator strengths calculated
  
* Read MO coefficients from SIRIUS.RST with label "NEWORB  " and header info: 15Dec18  REORTHO 


 ***********************************************
 ***** DIIS acceleration of SCF iterations *****
 ***********************************************

 C1-DIIS algorithm; max error vectors =    8
 -----------------------------------------------------------------------------

 *** DIIS iteration number    1
 RDSUPM called. NFMAT, ISYMDM(1:NFMAT)                     1
                     1

Calculating AOSUPINT
     (Precalculated two-electron integrals are transformed to P-supermatrix elements.
      Threshold for discarding integrals :  1.00D-12 )
  CPU  time used in FORMSUP    is   5.27 seconds
  WALL time used in FORMSUP    is   7.18 seconds

 ITDIIS, energy, error norm, change in energy, scr.thr., difden:
@ DIIS iter.   1    -361.263569350        7.87869D-08   -3.61D+02  -20    F

@ *** DIIS converged in   1 iterations !
@     Converged SCF energy, gradient:   -361.263569349743    7.88D-08
    - total time used in SIRFCK :              0.00 seconds


 *** SCF orbital energy analysis ***
    (incl. solvent contribution)

 Number of electrons :   50
 Orbital occupations :   25

 Sym       Hartree-Fock orbital energies

1 A     -20.65235306   -20.64310417   -20.61803223   -20.61659111   -15.69448157
         -1.43575617    -1.43332029    -1.40665902    -1.38389212    -1.29922398
         -0.80928046    -0.79619034    -0.78155334    -0.76870255    -0.76269746
         -0.75400063    -0.73715776    -0.67946301    -0.66089429    -0.65227234
         -0.63008633    -0.60439485    -0.59703429    -0.57638843    -0.56841268
          0.06581451     0.10313199     0.13121131     0.14046716     0.18015355
          0.19739347     0.20468915     0.22307214     0.24882967     0.25865073
          0.28243703     0.31023236     0.35971550     0.38330064     0.39462872
          0.46342548     0.49957328     0.51707478     0.54801928     0.55343652
          0.56233672     0.57049114     0.59483721     0.61353449     0.79775886
          0.81893306     0.85132256     0.89339928     0.91993991     0.94787081
          0.95945273     0.99534808     1.01368761     1.03088796     1.03679186
          1.05432494     1.06689168     1.09331200     1.09600738     1.18385133
          1.20268252     1.24505502     1.31127745     1.35773129     1.37759289
          1.40013175     1.43197265     1.43315404     1.45006283     1.45147851
          1.46808512     1.48142928     1.48671749     1.52065318     1.61648916
          1.61823019     1.64860888     1.67283571     1.70679575     1.75313489
          1.82304579     1.85013871     1.85576943     1.88776146     1.92030065
          2.04695330     2.07065928     2.08072908     2.14671586     2.15825926
          2.17252345     2.20449760     2.26947265     2.28217455     2.30950716
          2.32377862     2.33565562     2.35290412     2.39063659     2.50499105
          2.55311864     2.58368881     2.64675738     2.68176033     2.70437270
          2.71861614     2.74129897     2.75436309     2.78156953     2.79301691
          2.82918365     2.88885529     2.99164709     3.15610250     3.24224602
          3.27065882     3.30587928     3.34973512     3.40703091     3.41314462
          3.43030694     3.44322170     3.46329056     3.50265031     3.54792803
          3.57954422     3.58734886     3.61236730     3.63913265     3.88214901
          3.90697479     3.92505293     3.94530684     4.14356580     4.16375861
          4.18430947     4.19588312     4.91020622     5.07360276     5.16365064
          5.26877332     5.31544473     5.31709478     5.33384711     5.71975337
          5.73486659     5.77845680     5.81031806     5.98300789     6.03289460
          6.04516567     6.08087110    36.88595115    51.44810721    51.45036924
         51.46044713    51.47913315

    E(LUMO) :     0.06581451 au (symmetry 1)
  - E(HOMO) :    -0.56841268 au (symmetry 1)
  ------------------------------------------
    gap     :     0.63422719 au

 Deviation from canonical Hartree-Fock orbitals :
 Largest off-diagonal Fock matrix element is  4.30D-09

 --- Writing SIRIFC interface file

 CPU and wall time for SCF :     113.791      23.326


                       .-----------------------------------.
                       | --- Final results from SIRIUS --- |
                       `-----------------------------------'


@    Spin multiplicity:           1
@    Spatial symmetry:            1 ( irrep  A   in C1  )
@    Total charge of molecule:    1

     QM/MM "QMMM" calculation converged :

     Charge contribution:         -0.187066089921
     Dipole contribution:          0.000000000000
     Quadrupole contribution:      0.000000000000
     Electronic Pol. energy:       0.669454067429
     Nuclear pol. energy:         -0.726480682024
     Multipole Pol. energy:       -0.244313570274
     Total QM/MM energy:          -0.488406274791

@    Final HF energy:            -361.263569349743                 
@    Nuclear repulsion:           203.301569383779
@    Electronic energy:          -564.076732458732

@    Final gradient norm:           0.000000078787

 
     Date and time (Linux)  : Sat Dec 15 10:30:07 2018
     Host name              : n-62-24-2                               

File label for MO orbitals:  15Dec18   FOCKDIIS

 Molecular orbitals for symmetry species 1  (A  )
 ------------------------------------------------

    Orbital         1        2        3        4        5        6        7
   1 N   :1s    -0.0000   0.0000   0.0000   0.0000   0.5576   0.0074  -0.0049
   2 N   :1s     0.0000  -0.0000  -0.0000  -0.0000   0.4682   0.0122  -0.0081
   3 N   :1s    -0.0001   0.0000   0.0000   0.0000   0.0053  -0.0319   0.0215
   4 N   :1s     0.0004  -0.0003  -0.0003  -0.0003  -0.0014  -0.0280   0.0139
   5 N   :2px   -0.0000  -0.0000   0.0000   0.0000   0.0002   0.0000   0.0023
   6 N   :2py    0.0000   0.0000  -0.0000   0.0000  -0.0001   0.0002  -0.0012
   7 N   :2pz    0.0000  -0.0000   0.0000   0.0000   0.0000  -0.0030  -0.0010
   8 N   :2px    0.0000   0.0000  -0.0000  -0.0000  -0.0001  -0.0000   0.0044
   9 N   :2py   -0.0000  -0.0000   0.0000  -0.0000   0.0001   0.0006  -0.0025
  10 N   :2pz   -0.0001  -0.0000  -0.0000  -0.0000   0.0000  -0.0055  -0.0018
  11 N   :2px   -0.0001  -0.0001  -0.0000   0.0000  -0.0000   0.0011   0.0042
  12 N   :2py    0.0000   0.0001  -0.0002   0.0001   0.0001   0.0003  -0.0014
  13 N   :2pz    0.0003  -0.0000   0.0000   0.0001  -0.0000  -0.0090  -0.0007
  14 N   :3d2-   0.0000   0.0000   0.0000   0.0000   0.0000   0.0002  -0.0009
  16 N   :3d0   -0.0000  -0.0000  -0.0000  -0.0000   0.0000  -0.0016  -0.0007
  17 N   :3d1+   0.0000   0.0000   0.0000  -0.0000  -0.0000   0.0007  -0.0003
  18 N   :3d2+  -0.0000   0.0000  -0.0000  -0.0000  -0.0000  -0.0000   0.0005
  19 H   :1s     0.0000   0.0000  -0.0000   0.0000   0.0002  -0.0044   0.0029
  20 H   :1s    -0.0001   0.0000   0.0001  -0.0000   0.0002  -0.0028   0.0031
  21 H   :1s     0.0001  -0.0000   0.0003  -0.0000   0.0001  -0.0025  -0.0000
  22 H   :2px    0.0000   0.0000   0.0000  -0.0000   0.0000  -0.0000  -0.0001
  23 H   :2py    0.0000   0.0000   0.0000  -0.0000  -0.0000   0.0014  -0.0011
  24 H   :2pz   -0.0000   0.0000  -0.0000  -0.0000   0.0000  -0.0002   0.0004
  25 H   :1s     0.0000  -0.0000  -0.0000  -0.0000   0.0002  -0.0055   0.0104
  26 H   :1s    -0.0001   0.0001   0.0000   0.0001   0.0004  -0.0038   0.0101
  27 H   :1s     0.0001   0.0003  -0.0000  -0.0000   0.0001  -0.0034  -0.0046
  28 H   :2px    0.0000   0.0000  -0.0000  -0.0000  -0.0001   0.0010   0.0004
  29 H   :2py   -0.0000  -0.0000   0.0000  -0.0000   0.0001  -0.0004  -0.0005
  30 H   :2pz   -0.0000  -0.0000   0.0000   0.0000   0.0000   0.0002  -0.0004
  31 H   :1s     0.0000   0.0000   0.0000  -0.0000   0.0002  -0.0037   0.0026
  32 H   :1s    -0.0001  -0.0000  -0.0000   0.0002   0.0003  -0.0030   0.0051
  33 H   :1s     0.0001   0.0000  -0.0000   0.0003   0.0002  -0.0022  -0.0001
  34 H   :2px   -0.0000   0.0000  -0.0000  -0.0001   0.0000  -0.0010   0.0011
  35 H   :2py   -0.0000  -0.0000   0.0000   0.0000   0.0001  -0.0009   0.0007
  36 H   :2pz   -0.0000   0.0000   0.0000  -0.0000   0.0001  -0.0004   0.0006
  37 H   :1s     0.0000  -0.0000  -0.0000  -0.0000   0.0002  -0.0134   0.0014
  38 H   :1s    -0.0002   0.0001   0.0001   0.0001   0.0003  -0.0077   0.0002
  39 H   :1s    -0.0005  -0.0001  -0.0001  -0.0001   0.0002   0.0102   0.0037
  42 H   :2pz   -0.0001  -0.0000  -0.0000  -0.0000  -0.0000  -0.0015  -0.0013
  43 O   :1s     0.0000  -0.0000   0.5514   0.0000   0.0000   0.0012  -0.0012
  44 O   :1s     0.0000  -0.0000   0.4717   0.0000   0.0000   0.0020  -0.0020
  45 O   :1s     0.0000   0.0000   0.0056   0.0000   0.0000  -0.0058   0.0057
  46 O   :1s    -0.0000  -0.0000  -0.0005  -0.0000  -0.0000  -0.0041   0.0045
  47 O   :2px    0.0000  -0.0000   0.0009   0.0000   0.0000  -0.0002   0.0002
  48 O   :2py    0.0000   0.0000  -0.0001   0.0000   0.0000   0.0001  -0.0001
  49 O   :2pz   -0.0000  -0.0000  -0.0010  -0.0000  -0.0000   0.0001  -0.0001
  50 O   :2px   -0.0000   0.0000  -0.0003  -0.0000  -0.0000  -0.0003   0.0004
  51 O   :2py   -0.0000  -0.0000  -0.0000  -0.0000   0.0000   0.0002  -0.0000
  52 O   :2pz    0.0000   0.0000   0.0004   0.0000   0.0000   0.0002  -0.0004
  53 O   :2px    0.0000  -0.0000   0.0000   0.0000   0.0000  -0.0002   0.0005
  54 O   :2py    0.0000   0.0000   0.0001   0.0000   0.0000  -0.0001  -0.0005
  55 O   :2pz   -0.0000   0.0000  -0.0002  -0.0000  -0.0001   0.0004  -0.0003
  61 O   :1s     0.0000  -0.0000  -0.0000   0.5515   0.0000   0.0009  -0.0009
  62 O   :1s     0.0000  -0.0000  -0.0000   0.4717   0.0000   0.0015  -0.0014
  63 O   :1s     0.0000   0.0000   0.0000   0.0055   0.0000  -0.0044   0.0041
  64 O   :1s     0.0000  -0.0000   0.0000  -0.0006  -0.0001  -0.0030   0.0026
  65 O   :2px   -0.0000  -0.0000  -0.0000  -0.0012  -0.0000   0.0001  -0.0000
  66 O   :2py   -0.0000  -0.0000  -0.0000  -0.0004  -0.0000   0.0000  -0.0000
  67 O   :2pz    0.0000  -0.0000   0.0000   0.0005  -0.0000  -0.0002   0.0001
  68 O   :2px    0.0000   0.0000   0.0000   0.0005   0.0000   0.0001  -0.0002
  69 O   :2py    0.0000   0.0000   0.0000   0.0001  -0.0000   0.0000  -0.0001
  70 O   :2pz   -0.0000   0.0000  -0.0000  -0.0001  -0.0000  -0.0003   0.0003
  71 O   :2px   -0.0000  -0.0000  -0.0000  -0.0002  -0.0001   0.0004   0.0004
  72 O   :2py   -0.0000  -0.0000  -0.0000  -0.0000   0.0000   0.0002  -0.0002
  73 O   :2pz    0.0000  -0.0000   0.0000  -0.0001  -0.0001  -0.0001  -0.0002
  79 O   :1s    -0.5515   0.0000   0.0000   0.0000   0.0000   0.1124   0.0196
  80 O   :1s    -0.4717   0.0000   0.0000   0.0000   0.0000   0.1878   0.0327
  81 O   :1s    -0.0056  -0.0000  -0.0000  -0.0000   0.0000  -0.5322  -0.0927
  82 O   :1s     0.0007  -0.0000   0.0000   0.0000  -0.0001  -0.4065  -0.0710
  83 O   :2px   -0.0012  -0.0000   0.0000   0.0000   0.0000  -0.0236  -0.0041
  84 O   :2py    0.0000   0.0000   0.0000  -0.0000  -0.0000   0.0094   0.0017
  85 O   :2pz   -0.0009  -0.0000  -0.0000  -0.0000   0.0000  -0.0191  -0.0035
  86 O   :2px    0.0004   0.0000  -0.0000  -0.0000  -0.0000  -0.0417  -0.0073
  87 O   :2py    0.0000   0.0000  -0.0000   0.0000   0.0000   0.0128   0.0022
  88 O   :2pz    0.0004   0.0000   0.0000   0.0000  -0.0000  -0.0330  -0.0060
  89 O   :2px    0.0000  -0.0000   0.0000   0.0000  -0.0000  -0.0164  -0.0026
  90 O   :2py    0.0001   0.0000  -0.0000   0.0000  -0.0000   0.0065   0.0012
  91 O   :2pz   -0.0003  -0.0000  -0.0000  -0.0000   0.0001  -0.0041  -0.0006
  92 O   :3d2-   0.0001  -0.0000  -0.0000   0.0000  -0.0000   0.0003   0.0001
  93 O   :3d1-   0.0000   0.0000  -0.0000  -0.0000   0.0000   0.0039   0.0007
  94 O   :3d0   -0.0001   0.0000  -0.0000  -0.0000  -0.0000   0.0019   0.0003
  95 O   :3d1+   0.0001  -0.0000   0.0000   0.0000   0.0000  -0.0049  -0.0009
  96 O   :3d2+  -0.0001   0.0000  -0.0000  -0.0000   0.0000   0.0034   0.0006
  97 O   :1s     0.0000   0.5514   0.0000   0.0000   0.0000   0.0190  -0.1124
  98 O   :1s     0.0000   0.4717   0.0000  -0.0000   0.0000   0.0318  -0.1878
  99 O   :1s     0.0000   0.0056  -0.0000   0.0000   0.0000  -0.0903   0.5321
 100 O   :1s    -0.0000  -0.0005   0.0000   0.0000  -0.0001  -0.0668   0.3995
 101 O   :2px    0.0000   0.0009   0.0000   0.0000   0.0000  -0.0031   0.0187
 102 O   :2py   -0.0000  -0.0012  -0.0000  -0.0000  -0.0000   0.0040  -0.0243
 103 O   :2pz    0.0000   0.0003   0.0000   0.0000  -0.0000  -0.0014   0.0078
 104 O   :2px   -0.0000  -0.0003  -0.0000  -0.0000   0.0000  -0.0050   0.0320
 105 O   :2py    0.0000   0.0005   0.0000   0.0000   0.0000   0.0068  -0.0415
 106 O   :2pz    0.0000  -0.0001  -0.0000  -0.0000   0.0000  -0.0025   0.0139
 107 O   :2px    0.0000   0.0002   0.0000   0.0001   0.0000  -0.0010   0.0030
 108 O   :2py   -0.0000  -0.0001  -0.0000  -0.0000  -0.0000   0.0027  -0.0135
 109 O   :2pz    0.0000  -0.0001   0.0000  -0.0000  -0.0000  -0.0011   0.0073
 111 O   :3d1-  -0.0000   0.0001  -0.0000   0.0000  -0.0000   0.0006  -0.0038
 112 O   :3d0    0.0000   0.0001  -0.0000  -0.0000   0.0000   0.0010  -0.0058
 113 O   :3d1+  -0.0000   0.0000   0.0000   0.0000   0.0000   0.0004  -0.0023
 114 O   :3d2+  -0.0000   0.0000  -0.0000   0.0000  -0.0000  -0.0001   0.0007
 115 H   :1s    -0.0000  -0.0000   0.0002   0.0000   0.0000  -0.0009   0.0010
 116 H   :1s    -0.0000   0.0000   0.0001  -0.0000  -0.0000  -0.0005  -0.0003
 117 H   :1s    -0.0000  -0.0000   0.0001   0.0000  -0.0000   0.0002   0.0006
 120 H   :2pz   -0.0000   0.0000   0.0001   0.0000  -0.0000  -0.0002   0.0002
 121 H   :1s    -0.0000  -0.0000   0.0002  -0.0000  -0.0000  -0.0009   0.0010
 122 H   :1s     0.0000   0.0000   0.0002  -0.0000   0.0000  -0.0007  -0.0003
 123 H   :1s    -0.0000  -0.0000   0.0000  -0.0000  -0.0000   0.0004   0.0009
 124 H   :2px    0.0000  -0.0000  -0.0001   0.0000  -0.0000   0.0002  -0.0002
 127 H   :1s     0.0000  -0.0000   0.0000   0.0002  -0.0000  -0.0007   0.0007
 128 H   :1s    -0.0000   0.0000  -0.0000   0.0002   0.0001  -0.0000   0.0002
 129 H   :1s    -0.0000  -0.0000   0.0000  -0.0000  -0.0000  -0.0001   0.0005
 131 H   :2py   -0.0000  -0.0000  -0.0000   0.0001   0.0000  -0.0001   0.0002
 133 H   :1s     0.0000   0.0000   0.0000   0.0001   0.0000  -0.0006   0.0004
 134 H   :1s    -0.0000  -0.0000  -0.0000   0.0002   0.0000  -0.0001   0.0010
 135 H   :1s     0.0000  -0.0000  -0.0000   0.0000  -0.0000  -0.0001  -0.0004
 136 H   :2px   -0.0000   0.0000   0.0000   0.0001   0.0000  -0.0002   0.0002
 137 H   :2py    0.0000   0.0000   0.0000  -0.0001  -0.0000   0.0001  -0.0002
 139 H   :1s    -0.0002  -0.0000   0.0000   0.0000   0.0000  -0.0980  -0.0170
 140 H   :1s    -0.0001   0.0000  -0.0000  -0.0000   0.0000  -0.0672  -0.0124
 141 H   :1s    -0.0000  -0.0000   0.0000   0.0000  -0.0000   0.0020   0.0010
 142 H   :2px   -0.0000   0.0000   0.0000  -0.0000   0.0000   0.0098   0.0017
 143 H   :2py   -0.0001   0.0000  -0.0000  -0.0000   0.0000  -0.0217  -0.0038
 144 H   :2pz    0.0000  -0.0000   0.0000   0.0000  -0.0000   0.0127   0.0022
 145 H   :1s    -0.0001  -0.0000  -0.0000   0.0000  -0.0000  -0.0697  -0.0121
 146 H   :1s    -0.0003   0.0000   0.0000  -0.0000   0.0000  -0.0575  -0.0102
 147 H   :1s     0.0001   0.0000  -0.0000   0.0000  -0.0000   0.0007  -0.0003
 148 H   :2px    0.0001   0.0000   0.0000   0.0000  -0.0000   0.0111   0.0020
 149 H   :2py    0.0001  -0.0000   0.0000   0.0000  -0.0000   0.0210   0.0037
 150 H   :2pz    0.0000  -0.0000  -0.0000  -0.0000  -0.0000   0.0059   0.0010
 151 H   :1s     0.0000   0.0002   0.0000  -0.0000  -0.0000  -0.0149   0.0878
 152 H   :1s    -0.0000   0.0002  -0.0000   0.0000   0.0000  -0.0109   0.0657
 153 H   :1s    -0.0000  -0.0000   0.0000  -0.0000  -0.0000   0.0003  -0.0013
 154 H   :2px    0.0000   0.0000  -0.0000  -0.0000   0.0000  -0.0012   0.0072
 155 H   :2py   -0.0000   0.0001  -0.0000   0.0000   0.0000  -0.0040   0.0234
 156 H   :2pz    0.0000  -0.0000   0.0000  -0.0000   0.0000   0.0017  -0.0102
 157 H   :1s    -0.0000   0.0002  -0.0000   0.0000  -0.0000  -0.0142   0.0848
 158 H   :1s     0.0000   0.0000  -0.0000  -0.0000   0.0000  -0.0110   0.0651
 159 H   :1s    -0.0000   0.0001  -0.0000   0.0000  -0.0000   0.0011  -0.0035
 160 H   :2px   -0.0000  -0.0000   0.0000   0.0000  -0.0000   0.0046  -0.0274
 161 H   :2py    0.0000  -0.0000   0.0000   0.0000   0.0000   0.0002  -0.0016
 162 H   :2pz   -0.0000   0.0000  -0.0000  -0.0000   0.0000  -0.0004   0.0021

    Orbital         8        9       10       11       12       13       14
   1 N   :1s    -0.0056  -0.0089   0.1089  -0.0019  -0.0046  -0.0021   0.0014
   2 N   :1s    -0.0093  -0.0147   0.1806  -0.0031  -0.0078  -0.0036   0.0022
   3 N   :1s     0.0242   0.0392  -0.4884   0.0088   0.0233   0.0090  -0.0074
   4 N   :1s     0.0188   0.0266  -0.3281   0.0128   0.0147   0.0157   0.0061
   5 N   :2px    0.0002  -0.0016  -0.0046   0.0329  -0.0402  -0.0268   0.0041
   6 N   :2py    0.0020  -0.0014  -0.0015   0.0217   0.1286  -0.0795  -0.1208
   7 N   :2pz   -0.0013  -0.0014  -0.0037  -0.1533  -0.0314   0.0759  -0.0807
   8 N   :2px    0.0004  -0.0028  -0.0071   0.0536  -0.0655  -0.0431   0.0063
   9 N   :2py    0.0024  -0.0029  -0.0003   0.0338   0.2068  -0.1271  -0.1948
  10 N   :2pz   -0.0018  -0.0024  -0.0045  -0.2475  -0.0497   0.1213  -0.1301
  11 N   :2px    0.0004  -0.0027  -0.0037   0.0343  -0.0452  -0.0334   0.0018
  12 N   :2py    0.0040  -0.0029   0.0020   0.0206   0.1506  -0.0972  -0.1394
  13 N   :2pz   -0.0032  -0.0021  -0.0079  -0.1630  -0.0389   0.0816  -0.0942
  14 N   :3d2-  -0.0000   0.0007   0.0002   0.0008   0.0051   0.0007   0.0014
  15 N   :3d1-  -0.0006   0.0007   0.0010  -0.0020  -0.0093   0.0067   0.0094
  16 N   :3d0    0.0000   0.0000  -0.0014  -0.0169   0.0004   0.0074  -0.0083
  17 N   :3d1+  -0.0000   0.0007   0.0007   0.0056  -0.0005  -0.0001   0.0062
  18 N   :3d2+  -0.0005  -0.0000   0.0016  -0.0038  -0.0118   0.0059   0.0059
  19 H   :1s     0.0094   0.0055  -0.0771   0.0667   0.1041  -0.0802  -0.0607
  20 H   :1s     0.0083   0.0060  -0.0837   0.0875   0.1275  -0.0979  -0.0834
  21 H   :1s    -0.0045   0.0003   0.0069   0.0111   0.0265  -0.0218  -0.0137
  22 H   :2px    0.0002  -0.0001   0.0005   0.0020  -0.0024  -0.0014   0.0001
  23 H   :2py   -0.0006  -0.0020   0.0225  -0.0133  -0.0141   0.0119   0.0060
  24 H   :2pz    0.0002   0.0010  -0.0115  -0.0006   0.0096  -0.0041  -0.0114
  25 H   :1s     0.0032   0.0051  -0.0708   0.0285  -0.0715   0.0004   0.0454
  26 H   :1s     0.0013   0.0045  -0.0802   0.0396  -0.0954  -0.0014   0.0643
  27 H   :1s     0.0038   0.0001   0.0052   0.0114  -0.0256   0.0020   0.0136
  28 H   :2px   -0.0009  -0.0016   0.0222  -0.0040   0.0117  -0.0020  -0.0096
  29 H   :2py    0.0003   0.0010  -0.0105   0.0032   0.0028  -0.0023  -0.0019
  30 H   :2pz    0.0001   0.0002  -0.0024  -0.0083  -0.0029   0.0045  -0.0042
  31 H   :1s     0.0031   0.0131  -0.0630   0.0351  -0.0268   0.0215   0.0858
  32 H   :1s     0.0029   0.0157  -0.0742   0.0466  -0.0311   0.0237   0.1164
  33 H   :1s    -0.0001  -0.0039   0.0063   0.0127  -0.0176   0.0033   0.0262
  34 H   :2px    0.0006  -0.0007  -0.0143   0.0074  -0.0073   0.0009   0.0133
  35 H   :2py    0.0006   0.0003  -0.0143   0.0059   0.0028  -0.0007   0.0059
  36 H   :2pz    0.0007  -0.0005  -0.0127  -0.0027  -0.0041   0.0064   0.0073
  37 H   :1s     0.0032   0.0056  -0.0787  -0.1267  -0.0110   0.0587  -0.0633
  38 H   :1s     0.0027   0.0044  -0.0805  -0.1671  -0.0064   0.0753  -0.0847
  39 H   :1s     0.0011   0.0026   0.0092  -0.0399  -0.0001   0.0123  -0.0189
  40 H   :2px    0.0002   0.0005  -0.0057  -0.0050  -0.0032   0.0024  -0.0033
  41 H   :2py   -0.0002   0.0001  -0.0004   0.0003   0.0067  -0.0058  -0.0058
  42 H   :2pz   -0.0009  -0.0017   0.0242   0.0152   0.0000  -0.0117   0.0105
  43 O   :1s    -0.1143   0.0036  -0.0070   0.0006   0.0000   0.0001   0.0001
  44 O   :1s    -0.1909   0.0060  -0.0117   0.0010  -0.0000   0.0001   0.0002
  45 O   :1s     0.5406  -0.0169   0.0330  -0.0024   0.0007  -0.0009  -0.0010
  46 O   :1s     0.4108  -0.0139   0.0269   0.0006   0.0067  -0.0059  -0.0017
  47 O   :2px    0.0217  -0.0008   0.0018  -0.0053  -0.0053   0.0014  -0.0389
  48 O   :2py   -0.0015  -0.0002   0.0022  -0.0135  -0.0127   0.0105  -0.0234
  49 O   :2pz   -0.0223   0.0009  -0.0042   0.0176   0.0301  -0.0288  -0.0505
  50 O   :2px    0.0373  -0.0012   0.0030  -0.0084  -0.0082   0.0024  -0.0595
  51 O   :2py   -0.0025  -0.0001   0.0032  -0.0214  -0.0200   0.0168  -0.0359
  52 O   :2pz   -0.0394   0.0014  -0.0066   0.0278   0.0469  -0.0448  -0.0775
  53 O   :2px    0.0076  -0.0012   0.0012  -0.0053  -0.0059   0.0011  -0.0430
  54 O   :2py   -0.0018  -0.0008   0.0021  -0.0180  -0.0178   0.0151  -0.0241
  55 O   :2pz   -0.0089   0.0006  -0.0037   0.0224   0.0374  -0.0360  -0.0611
  56 O   :3d2-   0.0036  -0.0002   0.0004  -0.0008  -0.0007   0.0006  -0.0016
  57 O   :3d1-   0.0039  -0.0001   0.0004  -0.0006  -0.0011   0.0011   0.0033
  58 O   :3d0    0.0012  -0.0000   0.0002  -0.0005  -0.0011   0.0014   0.0054
  59 O   :3d1+  -0.0001   0.0000  -0.0000   0.0006   0.0007  -0.0006   0.0006
  60 O   :3d2+   0.0044  -0.0002   0.0004  -0.0009  -0.0007   0.0004  -0.0031
  61 O   :1s    -0.0029  -0.1145  -0.0112   0.0003  -0.0003   0.0004   0.0002
  62 O   :1s    -0.0048  -0.1913  -0.0187   0.0005  -0.0006   0.0008   0.0004
  63 O   :1s     0.0135   0.5410   0.0529  -0.0009   0.0011  -0.0024  -0.0001
  64 O   :1s     0.0102   0.4370   0.0453  -0.0009   0.0039  -0.0014   0.0024
  65 O   :2px   -0.0003  -0.0223  -0.0055   0.0135  -0.0078   0.0051   0.0344
  66 O   :2py   -0.0001  -0.0091  -0.0023   0.0087   0.0067  -0.0033   0.0154
  67 O   :2pz    0.0003   0.0107  -0.0011   0.0039  -0.0038   0.0048   0.0143
  68 O   :2px   -0.0010  -0.0406  -0.0087   0.0211  -0.0122   0.0076   0.0528
  69 O   :2py   -0.0003  -0.0148  -0.0036   0.0134   0.0102  -0.0052   0.0236
  70 O   :2pz    0.0007   0.0204  -0.0010   0.0061  -0.0058   0.0069   0.0216
  71 O   :2px    0.0006  -0.0158  -0.0059   0.0180  -0.0096   0.0070   0.0479
  72 O   :2py    0.0013  -0.0099  -0.0016   0.0103   0.0090  -0.0039   0.0185
  73 O   :2pz   -0.0002   0.0059  -0.0015   0.0054  -0.0048   0.0083   0.0227
  74 O   :3d2-  -0.0001  -0.0002  -0.0002  -0.0004  -0.0005   0.0003  -0.0008
  75 O   :3d1-   0.0000  -0.0016  -0.0002   0.0004   0.0004  -0.0002   0.0006
  76 O   :3d0   -0.0001  -0.0049  -0.0007   0.0006  -0.0004   0.0004   0.0018
  77 O   :3d1+  -0.0000  -0.0017  -0.0004   0.0005  -0.0002   0.0001   0.0012
  78 O   :3d2+  -0.0000  -0.0026  -0.0003   0.0002   0.0003  -0.0002   0.0001
  79 O   :1s     0.0015   0.0015  -0.0083   0.0043  -0.0007   0.0053  -0.0027
  80 O   :1s     0.0025   0.0024  -0.0139   0.0074  -0.0011   0.0091  -0.0045
  81 O   :1s    -0.0069  -0.0068   0.0399  -0.0228   0.0036  -0.0271   0.0133
  82 O   :1s    -0.0057  -0.0059   0.0302  -0.0561   0.0027  -0.0444   0.0204
  83 O   :2px   -0.0003  -0.0003   0.0014   0.0080  -0.0008  -0.0025   0.0038
  84 O   :2py    0.0001   0.0002  -0.0015  -0.1154   0.0172  -0.1666   0.0993
  85 O   :2pz   -0.0004  -0.0006   0.0071   0.0905   0.0040   0.0075   0.0122
  86 O   :2px   -0.0005  -0.0005   0.0026   0.0107  -0.0010  -0.0054   0.0066
  87 O   :2py    0.0002   0.0002  -0.0022  -0.1766   0.0266  -0.2556   0.1522
  88 O   :2pz   -0.0007  -0.0010   0.0104   0.1384   0.0062   0.0102   0.0195
  89 O   :2px   -0.0004  -0.0003   0.0006   0.0006  -0.0022  -0.0068   0.0059
  90 O   :2py    0.0001   0.0001  -0.0009  -0.1249   0.0195  -0.1921   0.1164
  91 O   :2pz   -0.0001   0.0001   0.0070   0.1100   0.0064   0.0015   0.0210
  92 O   :3d2-   0.0000   0.0000  -0.0001  -0.0104   0.0015  -0.0146   0.0087
  93 O   :3d1-   0.0001   0.0001  -0.0004  -0.0090   0.0009  -0.0113   0.0069
  94 O   :3d0    0.0000   0.0000  -0.0004   0.0010  -0.0002   0.0022  -0.0013
  95 O   :3d1+  -0.0001  -0.0001   0.0008   0.0056   0.0002   0.0005   0.0007
  96 O   :3d2+   0.0001   0.0001  -0.0004  -0.0017   0.0000  -0.0011   0.0005
  97 O   :1s     0.0019   0.0017  -0.0076  -0.0011   0.0008  -0.0002  -0.0040
  98 O   :1s     0.0031   0.0028  -0.0127  -0.0018   0.0014  -0.0004  -0.0069
  99 O   :1s    -0.0087  -0.0079   0.0363   0.0057  -0.0040   0.0017   0.0214
 100 O   :1s    -0.0078  -0.0064   0.0274   0.0124  -0.0140   0.0000   0.0383
 101 O   :2px   -0.0005  -0.0006   0.0054  -0.0359   0.1508   0.0844   0.0570
 102 O   :2py    0.0005   0.0006  -0.0049   0.0036   0.0534   0.0541   0.0967
 103 O   :2pz   -0.0001  -0.0000  -0.0013   0.0089  -0.0575  -0.0311  -0.0315
 104 O   :2px   -0.0008  -0.0008   0.0082  -0.0550   0.2304   0.1286   0.0873
 105 O   :2py    0.0010   0.0008  -0.0074   0.0057   0.0819   0.0829   0.1477
 106 O   :2pz   -0.0001  -0.0000  -0.0016   0.0139  -0.0880  -0.0473  -0.0475
 107 O   :2px   -0.0000  -0.0012   0.0037  -0.0432   0.1786   0.1001   0.0615
 108 O   :2py    0.0005   0.0004  -0.0043   0.0064   0.0532   0.0584   0.1129
 109 O   :2pz   -0.0006  -0.0001  -0.0012   0.0102  -0.0698  -0.0358  -0.0343
 110 O   :3d2-  -0.0000   0.0000   0.0000   0.0011  -0.0053  -0.0029  -0.0019
 111 O   :3d1-   0.0001   0.0000  -0.0004  -0.0004   0.0053   0.0041   0.0057
 112 O   :3d0    0.0001   0.0001  -0.0005   0.0012  -0.0040  -0.0015   0.0003
 113 O   :3d1+   0.0000   0.0000  -0.0001  -0.0002   0.0004  -0.0000  -0.0004
 114 O   :3d2+   0.0000  -0.0001   0.0000  -0.0025   0.0158   0.0107   0.0118
 115 H   :1s     0.0845  -0.0026   0.0062  -0.0069  -0.0146   0.0150   0.0453
 116 H   :1s     0.0607  -0.0027   0.0041  -0.0065  -0.0171   0.0167   0.0531
 117 H   :1s    -0.0040   0.0021  -0.0011  -0.0004  -0.0019   0.0027   0.0118
 118 H   :2px    0.0060  -0.0001   0.0004  -0.0009  -0.0015   0.0012   0.0002
 119 H   :2py    0.0109  -0.0004   0.0011  -0.0023  -0.0033   0.0031   0.0043
 120 H   :2pz    0.0229  -0.0006   0.0011  -0.0002  -0.0021   0.0021   0.0097
 121 H   :1s     0.0910  -0.0030   0.0065  -0.0079  -0.0071   0.0039  -0.0339
 122 H   :1s     0.0661  -0.0011   0.0049  -0.0087  -0.0084   0.0035  -0.0440
 123 H   :1s    -0.0024  -0.0006  -0.0019   0.0000   0.0002   0.0005  -0.0083
 124 H   :2px   -0.0238   0.0006  -0.0016   0.0018   0.0018  -0.0011   0.0068
 125 H   :2py   -0.0107   0.0003  -0.0003  -0.0005  -0.0004   0.0007   0.0026
 126 H   :2pz    0.0004   0.0000  -0.0004   0.0016   0.0026  -0.0026  -0.0045
 127 H   :1s     0.0019   0.0849   0.0094  -0.0083  -0.0030   0.0015  -0.0159
 128 H   :1s     0.0027   0.0543   0.0070  -0.0089  -0.0031   0.0012  -0.0180
 129 H   :1s    -0.0004   0.0001  -0.0014  -0.0026  -0.0008   0.0012  -0.0042
 130 H   :2px    0.0003   0.0087   0.0008  -0.0000  -0.0009   0.0006   0.0007
 131 H   :2py    0.0008   0.0221   0.0023  -0.0018  -0.0005   0.0001  -0.0035
 132 H   :2pz   -0.0003  -0.0081  -0.0012   0.0013  -0.0001   0.0002   0.0031
 133 H   :1s     0.0019   0.0717   0.0078  -0.0021   0.0066  -0.0037  -0.0077
 134 H   :1s     0.0005   0.0476   0.0042  -0.0009   0.0063  -0.0048  -0.0060
 135 H   :1s     0.0013  -0.0030  -0.0015  -0.0003   0.0035  -0.0005  -0.0017
 136 H   :2px    0.0004   0.0179   0.0012   0.0005   0.0013  -0.0008   0.0003
 137 H   :2py   -0.0005  -0.0158  -0.0017   0.0009  -0.0010   0.0008   0.0025
 138 H   :2pz   -0.0000  -0.0044  -0.0008   0.0004  -0.0005   0.0004   0.0013
 139 H   :1s    -0.0014  -0.0014   0.0095   0.1027  -0.0086   0.0991  -0.0528
 140 H   :1s    -0.0006  -0.0009   0.0080   0.1304  -0.0099   0.1249  -0.0668
 141 H   :1s    -0.0004  -0.0001  -0.0015   0.0192  -0.0040   0.0251  -0.0133
 142 H   :2px    0.0001   0.0002  -0.0010  -0.0115   0.0009  -0.0114   0.0063
 143 H   :2py   -0.0003  -0.0003   0.0022   0.0175  -0.0005   0.0108  -0.0045
 144 H   :2pz    0.0001   0.0001  -0.0008  -0.0096   0.0019  -0.0161   0.0098
 145 H   :1s    -0.0009  -0.0010   0.0055  -0.0502   0.0109  -0.1006   0.0637
 146 H   :1s    -0.0007  -0.0005   0.0059  -0.0658   0.0157  -0.1345   0.0853
 147 H   :1s     0.0000  -0.0005  -0.0026  -0.0122   0.0037  -0.0300   0.0187
 148 H   :2px    0.0002   0.0002  -0.0011   0.0078  -0.0019   0.0155  -0.0098
 149 H   :2py    0.0003   0.0003  -0.0020   0.0062  -0.0024   0.0189  -0.0125
 150 H   :2pz    0.0001   0.0001   0.0000   0.0116  -0.0009   0.0094  -0.0041
 151 H   :1s    -0.0016  -0.0012   0.0068   0.0074  -0.0813  -0.0614  -0.0831
 152 H   :1s    -0.0004  -0.0020   0.0064   0.0090  -0.1054  -0.0814  -0.1132
 153 H   :1s    -0.0008   0.0015  -0.0028   0.0022  -0.0245  -0.0164  -0.0212
 154 H   :2px   -0.0001  -0.0001   0.0012  -0.0025   0.0067   0.0019  -0.0024
 155 H   :2py   -0.0003  -0.0004   0.0016   0.0022  -0.0195  -0.0136  -0.0173
 156 H   :2pz    0.0001   0.0002  -0.0011  -0.0000   0.0051   0.0054   0.0087
 157 H   :1s    -0.0015  -0.0015   0.0083  -0.0257   0.1148   0.0656   0.0501
 158 H   :1s    -0.0013  -0.0003   0.0079  -0.0304   0.1340   0.0779   0.0603
 159 H   :1s     0.0005  -0.0005  -0.0005  -0.0044   0.0259   0.0144   0.0139
 160 H   :2px    0.0004   0.0003  -0.0027   0.0063  -0.0276  -0.0156  -0.0117
 161 H   :2py   -0.0000   0.0001  -0.0004   0.0009   0.0017   0.0030   0.0068
 162 H   :2pz    0.0000  -0.0000   0.0001   0.0000  -0.0011  -0.0007  -0.0013

    Orbital        15       16       17       18       19       20       21
   1 N   :1s    -0.0016  -0.0030   0.0020   0.0078  -0.0045  -0.0030   0.0052
   2 N   :1s    -0.0027  -0.0052   0.0035   0.0129  -0.0075  -0.0049   0.0087
   3 N   :1s     0.0076   0.0157  -0.0115  -0.0325   0.0200   0.0128  -0.0235
   4 N   :1s     0.0102   0.0206  -0.0036  -0.0721   0.0371   0.0306  -0.0471
   5 N   :2px   -0.0570  -0.1561   0.0378  -0.0181   0.0844  -0.0301   0.0387
   6 N   :2py    0.0302  -0.0432   0.0033   0.0155  -0.0274   0.0494   0.0233
   7 N   :2pz    0.0067  -0.0427   0.0187  -0.0364  -0.0415  -0.0092   0.0200
   8 N   :2px   -0.0924  -0.2537   0.0627  -0.0299   0.1329  -0.0478   0.0610
   9 N   :2py    0.0482  -0.0697   0.0062   0.0240  -0.0425   0.0758   0.0351
  10 N   :2pz    0.0112  -0.0691   0.0310  -0.0541  -0.0625  -0.0143   0.0301
  11 N   :2px   -0.0667  -0.1843   0.0373  -0.0227   0.1093  -0.0351   0.0612
  12 N   :2py    0.0348  -0.0606   0.0057   0.0173  -0.0372   0.0828   0.0444
  13 N   :2pz    0.0017  -0.0506   0.0173  -0.0621  -0.0544  -0.0214   0.0264
  14 N   :3d2-   0.0047   0.0140  -0.0036   0.0016  -0.0038   0.0020  -0.0023
  15 N   :3d1-  -0.0009   0.0075  -0.0014  -0.0003  -0.0002  -0.0020  -0.0017
  16 N   :3d0    0.0041   0.0048  -0.0003  -0.0008  -0.0061   0.0006  -0.0002
  17 N   :3d1+   0.0006   0.0065  -0.0014  -0.0000   0.0008  -0.0006  -0.0007
  18 N   :3d2+  -0.0047  -0.0063   0.0024  -0.0020   0.0037  -0.0037   0.0008
  19 H   :1s     0.0182  -0.0168  -0.0042   0.0191  -0.0048   0.0273   0.0073
  20 H   :1s     0.0246  -0.0164  -0.0127   0.0268  -0.0039   0.0228   0.0027
  21 H   :1s    -0.0031   0.0000   0.0070   0.0061  -0.0228  -0.0483   0.0041
  22 H   :2px   -0.0049  -0.0093   0.0026  -0.0008   0.0062  -0.0009   0.0016
  23 H   :2py   -0.0026   0.0011   0.0016  -0.0025  -0.0028  -0.0072  -0.0001
  24 H   :2pz    0.0021  -0.0038   0.0001   0.0002  -0.0018   0.0064   0.0015
  25 H   :1s    -0.0510  -0.0969   0.0255  -0.0110   0.0551  -0.0286   0.0149
  26 H   :1s    -0.0718  -0.1409   0.0396  -0.0120   0.0889  -0.0484   0.0165
  27 H   :1s    -0.0268  -0.0521   0.0160  -0.0059  -0.0194   0.0125   0.0190
  28 H   :2px    0.0075   0.0108  -0.0026   0.0055  -0.0158   0.0075  -0.0010
  29 H   :2py   -0.0034  -0.0114   0.0025  -0.0021   0.0091  -0.0022   0.0024
  30 H   :2pz    0.0000  -0.0048   0.0020  -0.0045   0.0036  -0.0031   0.0031
  31 H   :1s     0.0110   0.1121  -0.0278   0.0119  -0.0095  -0.0036  -0.0239
  32 H   :1s     0.0112   0.1571  -0.0424   0.0101  -0.0134  -0.0041  -0.0236
  33 H   :1s     0.0128   0.0390  -0.0225   0.0232  -0.0273   0.0120   0.0308
  34 H   :2px   -0.0022   0.0072  -0.0028   0.0004   0.0036  -0.0023  -0.0068
  35 H   :2py    0.0031   0.0142  -0.0023   0.0014  -0.0020   0.0015  -0.0053
  36 H   :2pz    0.0014   0.0122  -0.0037  -0.0008  -0.0022  -0.0003  -0.0103
  37 H   :1s     0.0174  -0.0011   0.0061  -0.0148  -0.0401   0.0004   0.0077
  38 H   :1s     0.0263  -0.0026   0.0063  -0.0083  -0.0625   0.0075   0.0209
  39 H   :1s     0.0097   0.0075   0.0028   0.0450   0.0302  -0.0001  -0.0148
  40 H   :2px   -0.0024  -0.0105   0.0035  -0.0063   0.0016  -0.0027   0.0036
  41 H   :2py    0.0016  -0.0017  -0.0002  -0.0001  -0.0025   0.0026   0.0007
  42 H   :2pz   -0.0036  -0.0016   0.0004   0.0101   0.0107  -0.0016  -0.0005
  43 O   :1s    -0.0025   0.0006   0.0003  -0.0036   0.0083   0.0298   0.0014
  44 O   :1s    -0.0042   0.0010   0.0005  -0.0060   0.0141   0.0504   0.0023
  45 O   :1s     0.0110  -0.0027  -0.0010   0.0179  -0.0419  -0.1482  -0.0060
  46 O   :1s     0.0320  -0.0104  -0.0051   0.0343  -0.0726  -0.2640  -0.0162
  47 O   :2px   -0.1536   0.0548   0.0048  -0.0179   0.0438   0.1604   0.0099
  48 O   :2py   -0.1016   0.0395   0.0029  -0.0071  -0.0097  -0.0515  -0.0119
  49 O   :2pz   -0.1023   0.0380   0.0020   0.0325  -0.0530  -0.1723  -0.0001
  50 O   :2px   -0.2345   0.0839   0.0076  -0.0267   0.0649   0.2372   0.0145
  51 O   :2py   -0.1566   0.0608   0.0049  -0.0113  -0.0132  -0.0729  -0.0174
  52 O   :2pz   -0.1576   0.0586   0.0028   0.0491  -0.0799  -0.2594  -0.0004
  53 O   :2px   -0.1747   0.0596   0.0038  -0.0235   0.0643   0.2399   0.0148
  54 O   :2py   -0.1117   0.0438   0.0019  -0.0103  -0.0183  -0.0904  -0.0203
  55 O   :2pz   -0.1160   0.0434   0.0017   0.0444  -0.0707  -0.2319   0.0023
  56 O   :3d2-  -0.0068   0.0027   0.0001  -0.0006   0.0006   0.0020  -0.0004
  57 O   :3d1-   0.0092  -0.0034  -0.0002  -0.0007   0.0014   0.0053   0.0003
  58 O   :3d0    0.0165  -0.0061  -0.0003  -0.0011   0.0015   0.0048  -0.0001
  59 O   :3d1+   0.0043  -0.0017  -0.0001   0.0013  -0.0026  -0.0094  -0.0003
  60 O   :3d2+  -0.0119   0.0042   0.0003  -0.0009   0.0018   0.0067   0.0002
  61 O   :1s    -0.0002  -0.0005  -0.0051  -0.0013   0.0015  -0.0000  -0.0282
[...]

 Principal values of diagonalized transition strength matrix:

             a.u.               
 1      -0.00000000
 2      -0.00000000
 3       0.00029529

 Principal axis of diagonalized transition strength matrix:


               Column   1     Column   2     Column   3
       1       0.23950594     0.92141187     0.30600175
       2       0.50388373    -0.38737131     0.77203929
       3       0.82990246    -0.03071869    -0.55706218
    ==== End of matrix output ====


 CCSD   oscillator strength matrix for state nr. 13 of symmetry 1
 CCSD  excitation energy:15.17072915


               Column   1     Column   2     Column   3
       1       0.00027965     0.00070554    -0.00050908
       2       0.00070554     0.00178008    -0.00128441
       3      -0.00050908    -0.00128441     0.00092676
    ==== End of matrix output ====

 Principal values of diagonalized oscillator strength matrix:

             a.u.               
 1      -0.00000001
 2       0.00000000
 3       0.00298649

 Principal axis of diagonalized oscillator strength matrix:


               Column   1     Column   2     Column   3
       1       0.23950594     0.92141187     0.30600175
       2       0.50388373    -0.38737131     0.77203929
       3       0.82990246    -0.03071869    -0.55706218
    ==== End of matrix output ====


 CCSD  Transition strength matrix for state nr. 14 of symmetry 1
 CCSD  excitation energy:15.19648930

 Gauge: length

               Column   1     Column   2     Column   3
       1     7.156431D-05   8.751995D-06  -1.360231D-04
       2     8.751995D-06   1.069352D-06  -1.663298D-05
       3    -1.360231D-04  -1.663298D-05   2.585364D-04
    ==== End of matrix output ====

 Principal values of diagonalized transition strength matrix:

             a.u.               
 1      -0.00000000
 2       0.00000000
 3       0.00033117

 Principal axis of diagonalized transition strength matrix:


               Column   1     Column   2     Column   3
       1      -0.66868073     0.58031847    -0.46486187
       2       0.67663190     0.73412392    -0.05684493
       3      -0.30827806     0.35255148     0.88355650
    ==== End of matrix output ====


 CCSD   oscillator strength matrix for state nr. 14 of symmetry 1
 CCSD  excitation energy:15.19648930


               Column   1     Column   2     Column   3
       1       0.00072502     0.00008867    -0.00137805
       2       0.00008867     0.00001083    -0.00016851
       3      -0.00137805    -0.00016851     0.00261923
    ==== End of matrix output ====

 Principal values of diagonalized oscillator strength matrix:

             a.u.               
 1      -0.00000002
 2       0.00000000
 3       0.00335510

 Principal axis of diagonalized oscillator strength matrix:


               Column   1     Column   2     Column   3
       1      -0.66868073     0.58031847    -0.46486187
       2       0.67663190     0.73412392    -0.05684493
       3      -0.30827806     0.35255148     0.88355650
    ==== End of matrix output ====


 CCSD  Transition strength matrix for state nr. 15 of symmetry 1
 CCSD  excitation energy:15.21498144

 Gauge: length

               Column   1     Column   2     Column   3
       1     5.589315D-07  -2.262752D-07   9.544907D-07
       2    -2.262752D-07   9.087323D-08  -3.857217D-07
       3     9.544907D-07  -3.857217D-07   1.629338D-06
    ==== End of matrix output ====

 Principal values of diagonalized transition strength matrix:

             a.u.               
 1      -0.00000000
 2       0.00000000
 3       0.00000228

 Principal axis of diagonalized transition strength matrix:


               Column   1     Column   2     Column   3
       1       0.52250924     0.69407388     0.49522272
       2       0.84604879    -0.49410116    -0.20016368
       3      -0.10576174    -0.52356996     0.84539278
    ==== End of matrix output ====


 CCSD   oscillator strength matrix for state nr. 15 of symmetry 1
 CCSD  excitation energy:15.21498144


               Column   1     Column   2     Column   3
       1     5.669422D-06  -2.295182D-06   9.681705D-06
       2    -2.295182D-06   9.217564D-07  -3.912499D-06
       3     9.681705D-06  -3.912499D-06   1.652690D-05
    ==== End of matrix output ====

 Principal values of diagonalized oscillator strength matrix:

             a.u.               
 1      -0.00000001
 2      -0.00000000
 3       0.00002312

 Principal axis of diagonalized oscillator strength matrix:


               Column   1     Column   2     Column   3
       1       0.52250924     0.69407388     0.49522272
       2       0.84604879    -0.49410116    -0.20016368
       3      -0.10576174    -0.52356996     0.84539278
    ==== End of matrix output ====

  Total time for    135 linear response residues:     116.12 seconds.
  

 *******************************************************************************
 *******************************************************************************
 *                                                                             *
 *                                                                             *
 *                   SUMMARY OF COUPLED CLUSTER CALCULATION                    *
 *                                                                             *
 *                                                                             *
 *******************************************************************************
 *******************************************************************************

                                                                                
                                                                                
            Total SCF   energy:                  -361.2635693497                
            Total RSTAR energy:                  -362.4123313166                
            Total CCSD  energy:                  -362.4122788654                
                                                                                
                                                                                
            Total SCF   energy:                  -361.2635693497                
            Total RSTAR energy:                  -362.4122788654                
            Total CCSD  energy:                  -362.4123292380                
                                                                                
                                                                                
            Total SCF   energy:                  -361.2635693497                
            Total RSTAR energy:                  -362.4123292380                
            Total CCSD  energy:                  -362.4123312105                
                                                                                
                                                                                
            Total SCF   energy:                  -361.2635693497                
            Total RSTAR energy:                  -362.4123312105                
            Total CCSD  energy:                  -362.4123313106                
                                                                                
                                                                                
            Total SCF   energy:                  -361.2635693497                
            Total RSTAR energy:                  -362.4123313106                
            Total CCSD  energy:                  -362.4123313162                
                                                                                
                                                                                
            Total SCF   energy:                  -361.2635693497                
            Total RSTAR energy:                  -362.4123313162                
            Total CCSD  energy:                  -362.4123313166                
            CCSD Total  energy:                  -362.8972457020                
            CCSD E(QM/MM)     :                    -0.4796105630                
                                                                                
                                                                                
                                                                                
 +=============================================================================+
 |  sym. | Exci.  |        CCSD       Excitation energies            | ||T1||  |
 |(spin, |        +------------------------------------------------------------+
 | spat) |        |     Hartree    |       eV.      |     cm-1       |    %    |
 +=============================================================================+
 | ^1A   |    1   |    14.9117368  |     405.76900  |   3272747.916  |  88.38  |
 | ^1A   |    2   |    14.9723229  |     407.41763  |   3286045.011  |  88.65  |
 | ^1A   |    3   |    14.9915558  |     407.94099  |   3290266.160  |  88.83  |
 | ^1A   |    4   |    15.0065114  |     408.34795  |   3293548.526  |  88.58  |
 | ^1A   |    5   |    15.0616930  |     409.84951  |   3305659.485  |  87.84  |
 | ^1A   |    6   |    15.0781588  |     410.29757  |   3309273.321  |  87.90  |
 | ^1A   |    7   |    15.0853419  |     410.49303  |   3310849.821  |  87.93  |
 | ^1A   |    8   |    15.0999835  |     410.89145  |   3314063.284  |  88.08  |
 | ^1A   |    9   |    15.1038476  |     410.99660  |   3314911.363  |  87.95  |
 | ^1A   |   10   |    15.1454572  |     412.12885  |   3324043.605  |  87.82  |
 | ^1A   |   11   |    15.1479629  |     412.19704  |   3324593.539  |  87.74  |
 | ^1A   |   12   |    15.1608164  |     412.54680  |   3327414.550  |  87.82  |
 | ^1A   |   13   |    15.1707292  |     412.81654  |   3329590.158  |  87.89  |
 | ^1A   |   14   |    15.1964893  |     413.51751  |   3335243.857  |  88.00  |
 | ^1A   |   15   |    15.2149814  |     414.02071  |   3339302.411  |  87.49  |
 +=============================================================================+
                                                                                
                                                                                
     Total energies in Hartree:                                                 
             1 ^1A       -347.5058982968                                        
             2 ^1A       -347.4453122741                                        
             3 ^1A       -347.4260793055                                        
             4 ^1A       -347.4111237442                                        
             5 ^1A       -347.3559421561                                        
             6 ^1A       -347.3394763080                                        
             7 ^1A       -347.3322932425                                        
             8 ^1A       -347.3176516267                                        
             9 ^1A       -347.3137874966                                        
            10 ^1A       -347.2721779405                                        
            11 ^1A       -347.2696722547                                        
            12 ^1A       -347.2568187862                                        
            13 ^1A       -347.2469059841                                        
            14 ^1A       -347.2211458371                                        
            15 ^1A       -347.2026537027                                        
                                                                                
                                                                                
 +=============================================================================+
 |  sym. | Exci.  |        CCSD       Length   Gauge Oscillator Strength       |
 |(spin, |        +------------------------------------------------------------+
 | spat) |        | Dipole Strength(a.u.) | Oscillator strength  | Direction   |
 +=============================================================================+
 | ^1A   |    1   |        0.0001899      |      0.0018883       |  (Y,Z)      |
 | ^1A   |    2   |        0.0040250      |      0.0401756       |  (Y,Z)      |
 | ^1A   |    3   |        0.0032828      |      0.0328093       |  (Y,Z)      |
 | ^1A   |    4   |        0.0025563      |      0.0255741       |  (Y,Z)      |
 | ^1A   |    5   |        0.0006348      |      0.0063738       |  (Y,Z)      |
 | ^1A   |    6   |        0.0004274      |      0.0042965       |  (Y,Z)      |
 | ^1A   |    7   |        0.0004967      |      0.0049950       |  (Y,Z)      |
 | ^1A   |    8   |        0.0011147      |      0.0112210       |  (Y,Z)      |
 | ^1A   |    9   |        0.0003208      |      0.0032306       |  (Y,Z)      |
 | ^1A   |   10   |        0.0005177      |      0.0052267       |  (Y,Z)      |
 | ^1A   |   11   |        0.0003543      |      0.0035778       |  (Y,Z)      |
 | ^1A   |   12   |        0.0002077      |      0.0020997       |  (Y,Z)      |
 | ^1A   |   13   |        0.0002953      |      0.0029865       |  (Y,Z)      |
 | ^1A   |   14   |        0.0003312      |      0.0033551       |  (Y,Z)      |
 | ^1A   |   15   |        0.0000023      |      0.0000231       |  (Y,Z)      |
 +=============================================================================+

  1 a.u. =        27.21138 eV.  
  1 a.u. =    219474.62934 cm-1.
  

 *******************************************************************************
 *******************************************************************************
 *                                                                             *
 *                                                                             *
 *                      END OF COUPLED CLUSTER CALCULATION                     *
 *                                                                             *
 *                                                                             *
 *******************************************************************************
 *******************************************************************************


 CPU and wall time for CC :  153952.646   16279.985

 
     Date and time (Linux)  : Sat Dec 15 15:01:27 2018
     Host name              : n-62-24-2                               


                      .-------------------------------------.
                      | End of Coupled Cluster Section (CC) |
                      `-------------------------------------'

  Total CPU  time used in DALTON:  42 hours 48 minutes  6 seconds
  Total wall time used in DALTON:   4 hours 31 minutes 51 seconds

 
     Date and time (Linux)  : Sat Dec 15 15:01:27 2018
     Host name              : n-62-24-2                               
  

 +---------------------------------------------------------+ 
 | List of selected calculated molecular properties (a.u.) | 
 +---------------------------------------------------------+ 

  Properties are read from unit number                      4

 CCSD       properties :
 #  1 1 CCSD/MM  Ground state Energy =    -362.8972457020
 #  2 1 E_QM/MM  Ground state Energy =      -0.4796105630
 #  3 1 Sy: 1 Sp: 1 Exc:  1 E_tot:   -347.5058982968 w:     14.9117368422 E_grs:   -362.4176351390
 #  4 1 Exctot   Excited state Energy =    -347.5058982968
 #  5 1 Sy: 1 Sp: 1 Exc:  2 E_tot:   -347.4453122741 w:     14.9723228649 E_grs:   -362.4176351390
 #  6 1 Exctot   Excited state Energy =    -347.4453122741
 #  7 1 Sy: 1 Sp: 1 Exc:  3 E_tot:   -347.4260793055 w:     14.9915558334 E_grs:   -362.4176351390
 #  8 1 Exctot   Excited state Energy =    -347.4260793055
 #  9 1 Sy: 1 Sp: 1 Exc:  4 E_tot:   -347.4111237442 w:     15.0065113948 E_grs:   -362.4176351390
 # 10 1 Exctot   Excited state Energy =    -347.4111237442
 # 11 1 Sy: 1 Sp: 1 Exc:  5 E_tot:   -347.3559421561 w:     15.0616929829 E_grs:   -362.4176351390
 # 12 1 Exctot   Excited state Energy =    -347.3559421561
 # 13 1 Sy: 1 Sp: 1 Exc:  6 E_tot:   -347.3394763080 w:     15.0781588310 E_grs:   -362.4176351390
 # 14 1 Exctot   Excited state Energy =    -347.3394763080
 # 15 1 Sy: 1 Sp: 1 Exc:  7 E_tot:   -347.3322932425 w:     15.0853418964 E_grs:   -362.4176351390
 # 16 1 Exctot   Excited state Energy =    -347.3322932425
 # 17 1 Sy: 1 Sp: 1 Exc:  8 E_tot:   -347.3176516267 w:     15.0999835123 E_grs:   -362.4176351390
 # 18 1 Exctot   Excited state Energy =    -347.3176516267
 # 19 1 Sy: 1 Sp: 1 Exc:  9 E_tot:   -347.3137874966 w:     15.1038476423 E_grs:   -362.4176351390
 # 20 1 Exctot   Excited state Energy =    -347.3137874966
 # 21 1 Sy: 1 Sp: 1 Exc: 10 E_tot:   -347.2721779405 w:     15.1454571984 E_grs:   -362.4176351390
 # 22 1 Exctot   Excited state Energy =    -347.2721779405
 # 23 1 Sy: 1 Sp: 1 Exc: 11 E_tot:   -347.2696722547 w:     15.1479628843 E_grs:   -362.4176351390
 # 24 1 Exctot   Excited state Energy =    -347.2696722547
 # 25 1 Sy: 1 Sp: 1 Exc: 12 E_tot:   -347.2568187862 w:     15.1608163528 E_grs:   -362.4176351390
 # 26 1 Exctot   Excited state Energy =    -347.2568187862
 # 27 1 Sy: 1 Sp: 1 Exc: 13 E_tot:   -347.2469059841 w:     15.1707291548 E_grs:   -362.4176351390
 # 28 1 Exctot   Excited state Energy =    -347.2469059841
 # 29 1 Sy: 1 Sp: 1 Exc: 14 E_tot:   -347.2211458371 w:     15.1964893018 E_grs:   -362.4176351390
 # 30 1 Exctot   Excited state Energy =    -347.2211458371
 # 31 1 Sy: 1 Sp: 1 Exc: 15 E_tot:   -347.2026537027 w:     15.2149814362 E_grs:   -362.4176351390
 # 32 1 Exctot   Excited state Energy =    -347.2026537027
 # 33 1 |<O|XDIPLEN |i(14.911737)>| =     0.00772558
 # 35 1 |<O|XDIPLEN |i(14.972323)>| =     0.05902907
 # 37 1 |<O|XDIPLEN |i(14.991556)>| =     0.01770087
 # 39 1 |<O|XDIPLEN |i(15.006511)>| =     0.00754360
 # 41 1 |<O|XDIPLEN |i(15.061693)>| =     0.00942375
 # 43 1 |<O|XDIPLEN |i(15.078159)>| =     0.00098150
 # 45 1 |<O|XDIPLEN |i(15.085342)>| =     0.00707030
 # 47 1 |<O|XDIPLEN |i(15.099984)>| =     0.01182585
 # 49 1 |<O|XDIPLEN |i(15.103848)>| =     0.01103511
 # 51 1 |<O|XDIPLEN |i(15.145457)>| =     0.00607228
 # 53 1 |<O|XDIPLEN |i(15.147963)>| =     0.01439974
 # 55 1 |<O|XDIPLEN |i(15.160816)>| =     0.01163536
 # 57 1 |<O|XDIPLEN |i(15.170729)>| =     0.00525831
 # 59 1 |<O|XDIPLEN |i(15.196489)>| =     0.00845957
 # 61 1 |<O|XDIPLEN |i(15.214981)>| =     0.00074762
 # 63 1 |<O|YDIPLEN |i(14.911737)>| =     0.01088611
 # 65 1 |<O|YDIPLEN |i(14.972323)>| =     0.01530302
 # 67 1 |<O|YDIPLEN |i(14.991556)>| =     0.05183247
 # 69 1 |<O|YDIPLEN |i(15.006511)>| =     0.02454848
 # 71 1 |<O|YDIPLEN |i(15.061693)>| =     0.02247838
 # 73 1 |<O|YDIPLEN |i(15.078159)>| =     0.00460211
 # 75 1 |<O|YDIPLEN |i(15.085342)>| =     0.01248877
 # 77 1 |<O|YDIPLEN |i(15.099984)>| =     0.00303993
 # 79 1 |<O|YDIPLEN |i(15.103848)>| =     0.01301462
 # 81 1 |<O|YDIPLEN |i(15.145457)>| =     0.01680597
 # 83 1 |<O|YDIPLEN |i(15.147963)>| =     0.00122359
 # 85 1 |<O|YDIPLEN |i(15.160816)>| =     0.00517294
 # 87 1 |<O|YDIPLEN |i(15.170729)>| =     0.01326667
 # 89 1 |<O|YDIPLEN |i(15.196489)>| =     0.00103409
 # 91 1 |<O|YDIPLEN |i(15.214981)>| =     0.00030145
 # 93 1 |<O|ZDIPLEN |i(14.911737)>| =     0.00342887
 # 95 1 |<O|ZDIPLEN |i(14.972323)>| =     0.01750359
 # 97 1 |<O|ZDIPLEN |i(14.991556)>| =     0.01681824
 # 99 1 |<O|ZDIPLEN |i(15.006511)>| =     0.04355188
 #101 1 |<O|ZDIPLEN |i(15.061693)>| =     0.00637809
 #103 1 |<O|ZDIPLEN |i(15.078159)>| =     0.02013146
 #105 1 |<O|ZDIPLEN |i(15.085342)>| =     0.01705027
 #107 1 |<O|ZDIPLEN |i(15.099984)>| =     0.03107381
 #109 1 |<O|ZDIPLEN |i(15.103848)>| =     0.00544860
 #111 1 |<O|ZDIPLEN |i(15.145457)>| =     0.01408323
 #113 1 |<O|ZDIPLEN |i(15.147963)>| =     0.01205982
 #115 1 |<O|ZDIPLEN |i(15.160816)>| =     0.00675324
 #117 1 |<O|ZDIPLEN |i(15.170729)>| =     0.00957249
 #119 1 |<O|ZDIPLEN |i(15.196489)>| =     0.01607907
 #121 1 |<O|ZDIPLEN |i(15.214981)>| =     0.00127646

 THE_END   
