

     ************************************************************************
     *************** Dalton - An Electronic Structure Program ***************
     ************************************************************************

    This is output from DALTON release Dalton2017.alpha (2016)
         ( Web site: http://daltonprogram.org )

   ----------------------------------------------------------------------------

    NOTE:
     
    Dalton is an experimental code for the evaluation of molecular
    properties using (MC)SCF, DFT, CI, and CC wave functions.
    The authors accept no responsibility for the performance of
    the code or for the correctness of the results.
     
    The code (in whole or part) is provided under a licence and
    is not to be reproduced for further distribution without
    the written permission of the authors or their representatives.
     
    See the home page "http://daltonprogram.org" for further information.
     
    If results obtained with this code are published,
    the appropriate citations would be both of:
     
       K. Aidas, C. Angeli, K. L. Bak, V. Bakken, R. Bast,
       L. Boman, O. Christiansen, R. Cimiraglia, S. Coriani,
       P. Dahle, E. K. Dalskov, U. Ekstroem,
       T. Enevoldsen, J. J. Eriksen, P. Ettenhuber, B. Fernandez,
       L. Ferrighi, H. Fliegl, L. Frediani, K. Hald, A. Halkier,
       C. Haettig, H. Heiberg, T. Helgaker, A. C. Hennum,
       H. Hettema, E. Hjertenaes, S. Hoest, I.-M. Hoeyvik,
       M. F. Iozzi, B. Jansik, H. J. Aa. Jensen, D. Jonsson,
       P. Joergensen, J. Kauczor, S. Kirpekar,
       T. Kjaergaard, W. Klopper, S. Knecht, R. Kobayashi, H. Koch,
       J. Kongsted, A. Krapp, K. Kristensen, A. Ligabue,
       O. B. Lutnaes, J. I. Melo, K. V. Mikkelsen, R. H. Myhre,
       C. Neiss, C. B. Nielsen, P. Norman, J. Olsen,
       J. M. H. Olsen, A. Osted, M. J. Packer, F. Pawlowski,
       T. B. Pedersen, P. F. Provasi, S. Reine, Z. Rinkevicius,
       T. A. Ruden, K. Ruud, V. Rybkin, P. Salek, C. C. M. Samson,
       A. Sanchez de Meras, T. Saue, S. P. A. Sauer,
       B. Schimmelpfennig, K. Sneskov, A. H. Steindal,
       K. O. Sylvester-Hvid, P. R. Taylor, A. M. Teale,
       E. I. Tellgren, D. P. Tew, A. J. Thorvaldsen, L. Thoegersen,
       O. Vahtras, M. A. Watson, D. J. D. Wilson, M. Ziolkowski
       and H. Agren,
       "The Dalton quantum chemistry program system",
       WIREs Comput. Mol. Sci. 2014, 4:269–284 (doi: 10.1002/wcms.1172)
     
    and
     
       Dalton, a Molecular Electronic Structure Program,
       Release Dalton2017.alpha (2016), see http://daltonprogram.org
   ----------------------------------------------------------------------------

    Authors in alphabetical order (major contribution(s) in parenthesis):

  Kestutis Aidas,           Vilnius University,           Lithuania   (QM/MM)
  Celestino Angeli,         University of Ferrara,        Italy       (NEVPT2)
  Keld L. Bak,              UNI-C,                        Denmark     (AOSOPPA, non-adiabatic coupling, magnetic properties)
  Vebjoern Bakken,          University of Oslo,           Norway      (DALTON; geometry optimizer, symmetry detection)
  Radovan Bast,             UiT The Arctic U. of Norway,  Norway      (DALTON installation and execution frameworks)
  Pablo Baudin,             University of Valencia,       Spain       (Cholesky excitation energies)
  Linus Boman,              NTNU,                         Norway      (Cholesky decomposition and subsystems)
  Ove Christiansen,         Aarhus University,            Denmark     (CC module)
  Renzo Cimiraglia,         University of Ferrara,        Italy       (NEVPT2)
  Sonia Coriani,            University of Trieste,        Italy       (CC module, MCD in RESPONS)
  Janusz Cukras,            University of Trieste,        Italy       (MChD in RESPONS)
  Paal Dahle,               University of Oslo,           Norway      (Parallelization)
  Erik K. Dalskov,          UNI-C,                        Denmark     (SOPPA)
  Thomas Enevoldsen,        Univ. of Southern Denmark,    Denmark     (SOPPA)
  Janus J. Eriksen,         Aarhus University,            Denmark     (Polarizable embedding model, TDA)
  Rasmus Faber,             University of Copenhagen,     Denmark     (Vib.avg. NMR with SOPPA, parallel AO-SOPPA)
  Berta Fernandez,          U. of Santiago de Compostela, Spain       (doublet spin, ESR in RESPONS)
  Lara Ferrighi,            Aarhus University,            Denmark     (PCM Cubic response)
  Heike Fliegl,             University of Oslo,           Norway      (CCSD(R12))
  Luca Frediani,            UiT The Arctic U. of Norway,  Norway      (PCM)
  Bin Gao,                  UiT The Arctic U. of Norway,  Norway      (Gen1Int library)
  Christof Haettig,         Ruhr-University Bochum,       Germany     (CC module)
  Kasper Hald,              Aarhus University,            Denmark     (CC module)
  Asger Halkier,            Aarhus University,            Denmark     (CC module)
  Frederik Beyer Hansen,    University of Copenhagen,     Denmark     (Parallel AO-SOPPA)
  Erik D. Hedegaard,        Univ. of Southern Denmark,    Denmark     (Polarizable embedding model, QM/MM)
  Hanne Heiberg,            University of Oslo,           Norway      (geometry analysis, selected one-electron integrals)
  Trygve Helgaker,          University of Oslo,           Norway      (DALTON; ABACUS, ERI, DFT modules, London, and much more)
  Alf Christian Hennum,     University of Oslo,           Norway      (Parity violation)
  Hinne Hettema,            University of Auckland,       New Zealand (quadratic response in RESPONS; SIRIUS supersymmetry)
  Eirik Hjertenaes,         NTNU,                         Norway      (Cholesky decomposition)
  Pi A. B. Haase,           University of Copenhagen,     Denmark     (Triplet AO-SOPPA)
  Maria Francesca Iozzi,    University of Oslo,           Norway      (RPA)
  Brano Jansik              Technical Univ. of Ostrava    Czech Rep.  (DFT cubic response)
  Hans Joergen Aa. Jensen,  Univ. of Southern Denmark,    Denmark     (DALTON; SIRIUS, RESPONS, ABACUS modules, London, and much more)
  Dan Jonsson,              UiT The Arctic U. of Norway,  Norway      (cubic response in RESPONS module)
  Poul Joergensen,          Aarhus University,            Denmark     (RESPONS, ABACUS, and CC modules)
  Maciej Kaminski,          University of Warsaw,         Poland      (CPPh in RESPONS)
  Joanna Kauczor,           Linkoeping University,        Sweden      (Complex polarization propagator (CPP) module)
  Sheela Kirpekar,          Univ. of Southern Denmark,    Denmark     (Mass-velocity & Darwin integrals)
  Wim Klopper,              KIT Karlsruhe,                Germany     (R12 code in CC, SIRIUS, and ABACUS modules)
  Stefan Knecht,            ETH Zurich,                   Switzerland (Parallel CI and MCSCF)
  Rika Kobayashi,           Australian National Univ.,    Australia   (DIIS in CC, London in MCSCF)
  Henrik Koch,              NTNU,                         Norway      (CC module, Cholesky decomposition)
  Jacob Kongsted,           Univ. of Southern Denmark,    Denmark     (Polarizable embedding model, QM/MM)
  Andrea Ligabue,           University of Modena,         Italy       (CTOCD, AOSOPPA)
  Nanna H. List             Univ. of Southern Denmark,    Denmark     (Polarizable embedding model)
  Ola B. Lutnaes,           University of Oslo,           Norway      (DFT Hessian)
  Juan I. Melo,             University of Buenos Aires,   Argentina   (LRESC, Relativistic Effects on NMR Shieldings)
  Kurt V. Mikkelsen,        University of Copenhagen,     Denmark     (MC-SCRF and QM/MM)
  Rolf H. Myhre,            NTNU,                         Norway      (Cholesky, subsystems and ECC2)
  Christian Neiss,          Univ. Erlangen-Nuernberg,     Germany     (CCSD(R12))
  Christian B. Nielsen,     University of Copenhagen,     Denmark     (QM/MM)
  Patrick Norman,           Linkoeping University,        Sweden      (Cubic response and complex frequency response in RESPONS)
  Jeppe Olsen,              Aarhus University,            Denmark     (SIRIUS CI/density modules)
  Jogvan Magnus H. Olsen,   Univ. of Southern Denmark,    Denmark     (Polarizable embedding model, QM/MM)
  Anders Osted,             Copenhagen University,        Denmark     (QM/MM)
  Martin J. Packer,         University of Sheffield,      UK          (SOPPA)
  Filip Pawlowski,          Kazimierz Wielki University,  Poland      (CC3)
  Morten N. Pedersen,       Univ. of Southern Denmark,    Denmark     (Polarizable embedding model)
  Thomas B. Pedersen,       University of Oslo,           Norway      (Cholesky decomposition)
  Patricio F. Provasi,      University of Northeastern,   Argentina   (Analysis of coupling constants in localized orbitals)
  Zilvinas Rinkevicius,     KTH Stockholm,                Sweden      (open-shell DFT, ESR)
  Elias Rudberg,            KTH Stockholm,                Sweden      (DFT grid and basis info)
  Torgeir A. Ruden,         University of Oslo,           Norway      (Numerical derivatives in ABACUS)
  Kenneth Ruud,             UiT The Arctic U. of Norway,  Norway      (DALTON; ABACUS magnetic properties and much more)
  Pawel Salek,              KTH Stockholm,                Sweden      (DALTON; DFT code)
  Claire C. M. Samson       University of Karlsruhe       Germany     (Boys localization, r12 integrals in ERI)
  Alfredo Sanchez de Meras, University of Valencia,       Spain       (CC module, Cholesky decomposition)
  Trond Saue,               Paul Sabatier University,     France      (direct Fock matrix construction)
  Stephan P. A. Sauer,      University of Copenhagen,     Denmark     (SOPPA(CCSD), SOPPA prop., AOSOPPA, vibrational g-factors)
  Bernd Schimmelpfennig,    Forschungszentrum Karlsruhe,  Germany     (AMFI module)
  Kristian Sneskov,         Aarhus University,            Denmark     (Polarizable embedding model, QM/MM)
  Arnfinn H. Steindal,      UiT The Arctic U. of Norway,  Norway      (parallel QM/MM, Polarizable embedding model)
  Casper Steinmann,         Univ. of Southern Denmark,    Denmark     (QFIT, Polarizable embedding model)
  K. O. Sylvester-Hvid,     University of Copenhagen,     Denmark     (MC-SCRF)
  Peter R. Taylor,          VLSCI/Univ. of Melbourne,     Australia   (Symmetry handling ABACUS, integral transformation)
  Andrew M. Teale,          University of Nottingham,     England     (DFT-AC, DFT-D)
  David P. Tew,             University of Bristol,        England     (CCSD(R12))
  Olav Vahtras,             KTH Stockholm,                Sweden      (triplet response, spin-orbit, ESR, TDDFT, open-shell DFT)
  David J. Wilson,          La Trobe University,          Australia   (DFT Hessian and DFT magnetizabilities)
  Hans Agren,               KTH Stockholm,                Sweden      (SIRIUS module, RESPONS, MC-SCRF solvation model)
 --------------------------------------------------------------------------------

     Date and time (Linux)  : Sun Dec 16 04:17:02 2018
     Host name              : n-62-23-23                              

 * Work memory size             :  1280000000 =  9.537 gigabytes.

 * Directories for basis set searches:
   1) /zhome/37/3/129401/NH3NH4/CCSD/AIMD_SAMPLING/nh4_4h2o_nd
   2) /zhome/9a/4/124800/source/dalton/build-mlcc/basis


Compilation information
-----------------------

 Who compiled             | rfaber
 Host                     | hpclogin1
 System                   | Linux-2.6.32-696.1.1.el6.x86_64
 CMake generator          | Unix Makefiles
 Processor                | x86_64
 64-bit integers          | ON
 MPI                      | OFF
 Fortran compiler         | /opt/intel/2016update2/compilers_and_libraries_201
                          | 6.2.181/linux/bin/intel64/ifort
 Fortran compiler version | ifort (IFORT) 16.0.2 20160204
 C compiler               | /opt/intel/2016update2/compilers_and_libraries_201
                          | 6.2.181/linux/bin/intel64/icc
 C compiler version       | icc (ICC) 16.0.2 20160204
 C++ compiler             | /opt/intel/2016update2/compilers_and_libraries_201
                          | 6.2.181/linux/bin/intel64/icpc
 C++ compiler version     | icpc (ICC) 16.0.2 20160204
 Static linking           | OFF
 Last Git revision        | bb4d1599ca5680a9f3980451fc8bbefdba436d59
 Git branch               | mlcc
 Configuration time       | 2017-06-13 16:11:03.928841


   Content of the .dal input file
 ----------------------------------

**DALTON
.RUN WAVE FUNCTIONS
*QMMM
.QMMM
**INTEGRALS
.DIPLEN
**WAVE FUNCTIONS
.CC
*PRINT
!To check the origin of excit
.PRINTL
   0 11
*SCF INP
.THRESH
1.0D-7
*ORBITAL INPUT
.MOSTART
 NEWORB
*CC INP
.RESTART
.CCSD
.THRLEQ
 1.0D-9
.THRENR
 1.0D-10
.FROIMP
4
0
.PRINT
 1
.MAX IT
 1200
.MAXRED
 1200
.MXLRV
1199
*CCSLV
.CCMM
.MXSLIT
200
.MXINIT
4 5
*CCEXCI
.NCCEXC
 15
.CVSEPARA
1
1
*CCLRSD
.DIPOLE
**END OF DALTON INPUT


   Content of the .mol file
 ----------------------------

ATOMBASIS


Atomtypes=4 Charge=1 Nosymm Angstrom
   7.00000    1    Basis=6-311G**
N          0.000000        0.000000        0.000000
   1.00000    4    Basis=6-311G**
H          0.340286        0.856015       -0.460048
H          0.787444       -0.666429       -0.248095
H         -0.837506       -0.434569       -0.427726
H         -0.102000        0.196604        1.091853
   8.00000    4    Basis=6-311G**
O          0.574654        2.193335       -1.976520
O         -2.191268       -1.427348       -1.152654
O         -0.559927        0.099465        2.903666
O          2.206955       -2.082802       -0.739372
   1.00000    8    Basis=6-311G**
H          0.549349        1.425619       -2.624728
H          1.516750        2.482888       -1.839553
H         -2.459693       -2.248557       -0.638311
H         -2.882896       -0.763090       -0.912742
H         -0.025108       -0.718313        3.064788
H         -0.209841        0.838525        3.437781
H          1.875544       -2.925537       -0.316004
H          3.038060       -1.916035       -0.243565


       *******************************************************************
       *********** Output from DALTON general input processing ***********
       *******************************************************************

 --------------------------------------------------------------------------------
   Overall default print level:    0
   Print level for DALTON.STAT:    1

    HERMIT 1- and 2-electron integral sections will be executed
    "Old" integral transformation used (limited to max 255 basis functions)
    Wave function sections will be executed (SIRIUS module)
 --------------------------------------------------------------------------------


 Changes of defaults for *QMMM  :
 --------------------------------

 +------------------+
 |  WORD: | CHANGE: |
 +------------------+
 |   QMMM |       T |
 +------------------+
 


   ****************************************************************************
   *************** Output of molecule and basis set information ***************
   ****************************************************************************


    The two title cards from your ".mol" input:
    ------------------------------------------------------------------------
 1:                                                                         
 2:                                                                         
    ------------------------------------------------------------------------

  Coordinates are entered in Angstrom and converted to atomic units.
          - Conversion factor : 1 bohr = 0.52917721 A

  Atomic type no.    1
  --------------------
  Nuclear charge:   7.00000
  Number of symmetry independent centers:    1
  Number of basis sets to read;    1
  The basis set is "6-311G**" from the basis set library.
  Basis set file used for this atomic type with Z =   7 :
     "/zhome/9a/4/124800/source/dalton/build-mlcc/basis/6-311G**"

  Info about the basis set file: your basis has no documentation.
  Basis set: 6-311G**                                                                        

  Atomic type no.    2
  --------------------
  Nuclear charge:   1.00000
  Number of symmetry independent centers:    4
  Number of basis sets to read;    1
  The basis set is "6-311G**" from the basis set library.
  Basis set file used for this atomic type with Z =   1 :
     "/zhome/9a/4/124800/source/dalton/build-mlcc/basis/6-311G**"

  Info about the basis set file: your basis has no documentation.
  Basis set: 6-311G**                                                                        

  Atomic type no.    3
  --------------------
  Nuclear charge:   8.00000
  Number of symmetry independent centers:    4
  Number of basis sets to read;    1
  The basis set is "6-311G**" from the basis set library.
  Basis set file used for this atomic type with Z =   8 :
     "/zhome/9a/4/124800/source/dalton/build-mlcc/basis/6-311G**"

  Info about the basis set file: your basis has no documentation.
  Basis set: 6-311G**                                                                        

  Atomic type no.    4
  --------------------
  Nuclear charge:   1.00000
  Number of symmetry independent centers:    8
  Number of basis sets to read;    1
  The basis set is "6-311G**" from the basis set library.
  Basis set file used for this atomic type with Z =   1 :
     "/zhome/9a/4/124800/source/dalton/build-mlcc/basis/6-311G**"

  Info about the basis set file: your basis has no documentation.
  Basis set: 6-311G**                                                                        


                         SYMGRP: Point group information
                         -------------------------------

@    Point group: C1 


                                 Isotopic Masses
                                 ---------------

                           N          14.003074
                           H           1.007825
                           H           1.007825
                           H           1.007825
                           H           1.007825
                           O          15.994915
                           O          15.994915
                           O          15.994915
                           O          15.994915
                           H           1.007825
                           H           1.007825
                           H           1.007825
                           H           1.007825
                           H           1.007825
                           H           1.007825
                           H           1.007825
                           H           1.007825

                       Total mass:    90.076634 amu
                       Natural abundance:  98.500 %

 Center-of-mass coordinates (a.u.):    0.043832   -0.490378   -0.326234


  Atoms and basis sets
  --------------------

  Number of atom types :    4
  Total number of atoms:   17

  label    atoms   charge   prim   cont     basis
  ----------------------------------------------------------------------
  N           1    7.0000    31    18      [11s5p1d|4s3p1d]                                   
  H           4    1.0000     8     6      [5s1p|3s1p]                                        
  O           4    8.0000    31    18      [11s5p1d|4s3p1d]                                   
  H           8    1.0000     8     6      [5s1p|3s1p]                                        
  ----------------------------------------------------------------------
  total:     17   51.0000   251   162
  ----------------------------------------------------------------------
  Spherical harmonic basis used.

  Threshold for neglecting AO integrals:  1.00D-12


  Cartesian Coordinates (a.u.)
  ----------------------------

  Total number of coordinates:   51
  N       :     1  x   0.0000000000    2  y   0.0000000000    3  z   0.0000000000
  H       :     4  x   0.6430473442    5  y   1.6176339089    6  z  -0.8693647244
  H       :     7  x   1.4880534988    8  y  -1.2593682918    9  z  -0.4688316030
  H       :    10  x  -1.5826569680   11  y  -0.8212163924   12  z  -0.8082849965
  H       :    13  x  -0.1927520647   14  y   0.3715277151   15  z   2.0633031388
  O       :    16  x   1.0859386766   17  y   4.1448024504   18  z  -3.7350814806
  O       :    19  x  -4.1408963865   20  y  -2.6972968051   21  z  -2.1782003769
  O       :    22  x  -1.0581086800   23  y   0.1879616090   24  z   5.4871334985
  O       :    25  x   4.1705405202   26  y  -3.9359253526   27  z  -1.3972105845
  H       :    28  x   1.0381191570   29  y   2.6940294686   30  z  -4.9600170726
  H       :    31  x   2.8662421001   32  y   4.6919783190   33  z  -3.4762513624
  H       :    34  x  -4.6481461216   35  y  -4.2491569064   36  z  -1.2062329726
  H       :    37  x  -5.4478838868   38  y  -1.4420311087   39  z  -1.7248324028
  H       :    40  x  -0.0474472435   41  y  -1.3574148420   42  z   5.7916099512
  H       :    43  x  -0.3965420198   44  y   1.5845825990   45  z   6.4964645677
  H       :    46  x   3.5442644954   47  y  -5.5284636985   48  z  -0.5971610144
  H       :    49  x   5.7411013513   50  y  -3.6207813959   51  z  -0.4602711436

  Max    interatomic separation is    6.2962 Angstrom (   11.8980 Bohr)
  between atoms   12 and   11, "H     " and "H     ".

  Min HX interatomic separation is    0.9768 Angstrom (    1.8458 Bohr)

  Min YX interatomic separation is    2.8579 Angstrom (    5.4006 Bohr)


  Bond distances (Angstrom):
  --------------------------

                  atom 1     atom 2       distance
                  ------     ------       --------
  bond distance:  H          N            1.029660
  bond distance:  H          N            1.061012
  bond distance:  H          N            1.035961
  bond distance:  H          N            1.114092
  bond distance:  H          O            1.005088
  bond distance:  H          O            0.995061
  bond distance:  H          O            1.005477
  bond distance:  H          O            0.988507
  bond distance:  H          O            0.990330
  bond distance:  H          O            0.976754
  bond distance:  H          O            0.999638
  bond distance:  H          O            0.982024


  Bond angles (degrees):
  ----------------------

                  atom 1     atom 2     atom 3         angle
                  ------     ------     ------         -----
  bond angle:     H          N          H             99.929
  bond angle:     H          N          H            115.559
  bond angle:     H          N          H            108.749
  bond angle:     H          N          H            103.885
  bond angle:     H          N          H            114.076
  bond angle:     H          N          H            113.869
  bond angle:     H          O          H            109.565
  bond angle:     H          O          H            103.762
  bond angle:     H          O          H            110.016
  bond angle:     H          O          H            102.117




 Principal moments of inertia (u*A**2) and principal axes
 --------------------------------------------------------

   IA     380.207409         -0.346040   -0.247841    0.904893
   IB     454.982238         -0.525140    0.850410    0.032100
   IC     480.384375          0.777486    0.464088    0.424427


 Rotational constants
 --------------------

               A                   B                   C

           1329.2192           1110.7665           1052.0305 MHz
            0.044338            0.037051            0.035092 cm-1


@  Nuclear repulsion energy :  193.205475770183 Hartree


                     .---------------------------------------.
                     | Starting in Integral Section (HERMIT) |
                     `---------------------------------------'



 ***************************************************************************************
 ****************** Output from **INTEGRALS input processing (HERMIT) ******************
 ***************************************************************************************



    *************************************************************************
    ****************** Output from HERMIT input processing ******************
    *************************************************************************


 Default print level:        1

 * Nuclear model: Point charge

 Calculation of one- and two-electron Hamiltonian integrals.

 The following one-electron property integrals are calculated as requested:
          - overlap integrals
          - dipole length integrals

 Center of mass  (bohr):      0.043831685854     -0.490377793689     -0.326234009033
 Operator center (bohr):      0.000000000000      0.000000000000      0.000000000000
 Gauge origin    (bohr):      0.000000000000      0.000000000000      0.000000000000
 Dipole origin   (bohr):      0.000000000000      0.000000000000      0.000000000000
 
  *********************************** 
  QMMM electrostatic potential: 
  Multipole order                                    0
  Isotropic polarization  
  *********************************** 
 
  ---------------- 
  QMMM information 
  ---------------- 
 
  MM coordinates in au 
  -------------------- 
     1     10.540896      9.177589     -6.672253
     2      8.886807      9.953329     -6.836621
     3      9.945175      7.372619     -6.893317
     4      6.233747      6.100850     -3.938813
     5      6.989264      6.566953     -2.169073
     6      7.533607      4.753119     -4.415228
     7      8.676171      6.845059      0.437961
     8      9.217623      6.104371      2.194998
     9     10.199695      7.595539     -0.310418
    10     10.532572     -7.861013     -6.370890
    11     11.201091     -8.933026     -7.795041
    12     11.363881     -6.104363     -6.595864
    13      4.448018      2.538565      2.107640
    14      4.571178      4.443810      2.453904
    15      5.930905      2.125109      0.955162
    16    -10.623640      9.352411     -1.985348
    17    -11.573134      9.078704     -3.604728
    18     -9.902080     10.951796     -1.993742
    19     -1.183775     -9.407780      2.501995
    20     -1.026924    -11.153666      1.591219
    21     -2.226262     -9.951935      3.958252
    22      6.277009      0.721433     -9.739805
    23      5.011457     -0.110759     -8.700363
    24      7.498036     -0.623931    -10.275454
    25      6.709756     11.253631      5.939020
    26      7.712694     12.640764      5.065774
    27      7.917454     10.337739      6.958119
    28     -1.527044      5.954969     -9.045484
    29     -2.533010      6.038214    -10.707226
    30     -1.527915      4.168399     -8.583856
    31     -8.049836      0.449477      0.183328
    32     -8.917255     -0.166249      1.747025
    33     -7.637812      2.286790      0.564348
    34      6.159776    -10.993911     -5.297883
    35      7.278894     -9.554525     -5.571001
    36      6.653569    -11.615854     -3.558095
    37      3.044549     -1.301271     -6.118618
    38      1.625089     -2.273288     -6.695774
    39      3.680364     -2.268762     -4.710647
    40     11.524395     -0.720490     -2.913878
    41     12.123290     -1.436857     -4.488069
    42     13.003364     -0.111182     -1.949171
    43     10.971533     -7.766306      0.772741
    44      9.888328     -9.027037      0.099462
    45      9.880594     -6.283337      1.148426
    46     10.539430      5.430636      4.946995
    47     11.912221      6.769042      4.964945
    48      9.691600      5.659866      6.494448
    49      4.791446    -10.982707    -10.841279
    50      3.566909    -10.978251    -12.312828
    51      3.996867    -12.050689     -9.386869
    52     -2.766472      7.644163     -2.289432
    53     -1.903610      6.049297     -2.633462
    54     -4.169641      7.511079     -0.919318
    55    -11.074744     -0.008381      4.322187
    56    -11.416450     -0.532825      6.082027
    57    -11.932118      1.693106      4.345765
    58      1.222428     -9.761299     -4.950939
    59      2.915596    -10.400181     -5.175253
    60      0.237871    -10.951870     -6.000742
    61     -6.713611      2.013524     11.677793
    62     -5.535664      1.244097     12.822427
    63     -7.018407      0.761323     10.374443
    64     -5.554345     -2.038459      8.306490
    65     -4.075234     -1.190758      7.705392
    66     -4.870334     -3.387419      9.716698
    67     -8.506523     -9.331452     -2.587844
    68     -7.661505     -9.020305     -4.255869
    69    -10.023003     -8.318467     -2.566707
    70     -3.702404     10.389795     -6.904611
    71     -3.747712      9.408506     -5.339398
    72     -2.901004      9.223428     -7.967093
    73      9.886117     -4.043250    -11.730229
    74     10.922632     -3.181118    -13.071349
    75      9.982663     -5.868853    -12.198689
    76     -2.923234     -5.867180     10.899063
    77     -3.550956     -7.587396     10.576155
    78     -2.237251     -5.981057     12.614627
    79      3.293426      7.268641      4.043252
    80      4.463860      8.381194      4.906816
    81      2.168139      8.226573      2.781437
    82     -5.241233     -3.064446     -7.111548
    83     -4.912135     -4.824089     -7.630604
    84     -4.714581     -3.088340     -5.288410
    85      5.246318      0.414999      6.704355
    86      5.063835      1.105531      4.880006
    87      3.614857      1.037450      7.493904
    88      4.404661     -5.391120    -11.126860
    89      4.641447     -7.156826    -11.168850
    90      6.135636     -4.731995    -11.062343
    91      1.361848     -0.532612     10.793588
    92      1.404792     -2.023269      9.666233
    93      2.959802     -0.475240     11.632417
    94      4.697213      5.217885     11.109373
    95      4.101180      6.247656     12.618055
    96      5.319532      3.621312     11.733557
    97     -6.900482     10.171050      9.435593
    98     -7.959804     10.466594     10.951728
    99     -5.776488      8.627626      9.664135
   100     -7.128238     -6.259319      5.612179
   101     -6.422452     -6.091765      3.789269
   102     -6.917380     -4.731343      6.663516
   103     -6.055202     -8.404105     -7.338319
   104     -7.475583     -8.822003     -8.317871
   105     -5.189815    -10.141414     -7.207946
   106      9.323531     -9.228982     10.496077
   107      7.679397    -10.135064     11.069003
   108      9.816260     -9.657653      8.760657
   109    -10.126271    -11.486991    -10.042394
   110    -11.080934    -12.593927     -8.736217
   111    -11.326425    -11.139059    -11.401406
   112     -5.716463     -6.754522      0.589426
   113     -4.145129     -7.779865      0.781455
   114     -6.801907     -7.811081     -0.652392
   115     10.164414      0.212373      9.031338
   116     10.541590      1.622016     10.162807
   117      8.709687      0.760654      8.045122
   118      6.040810     -4.815302      6.553461
   119      7.547853     -5.306226      7.439168
   120      5.937540     -2.975980      6.796230
   121      2.111994    -10.804309      8.126780
   122      0.426657    -10.804445      7.401422
   123      3.288390    -11.401415      6.820670
   124      8.778674     -2.886353      1.243529
   125      9.345864     -2.095474      2.891421
   126      9.746661     -2.205826     -0.197025
   127     -4.066933      5.929891      9.592418
   128     -2.403709      5.369309      8.783177
   129     -4.904603      4.397070     10.192705
   130    -11.314463      4.486903    -10.902329
   131    -12.076932      3.907438     -9.220635
   132     -9.553337      3.850113    -10.999544
   133      9.666431      2.869300     -6.323118
   134      8.572916      1.593891     -7.236840
   135     10.560716      1.741500     -5.076025
   136      0.579509      4.802522      7.534283
   137      1.505598      5.881846      6.227362
   138      1.818429      4.728733      9.039533
   139     -2.267520      0.718326     -8.695265
   140     -1.019626      0.108572    -10.045945
   141     -2.872423     -0.673478     -7.716455
   142      0.937943     -4.190717      7.426301
   143      2.579552     -5.137181      7.836849
   144     -0.461891     -5.022081      8.275349
   145      0.264700     -5.004615     -8.046214
   146      0.408540     -6.667317     -7.437119
   147      1.652405     -4.720844     -9.306491
   148    -10.525487     -3.057025     -7.079647
   149    -11.137294     -2.616146     -8.786011
   150     -8.638477     -2.889130     -7.031990
   151      2.903073      8.490303     -8.595765
   152      1.225385      7.621288     -8.510459
   153      3.873211      8.023157     -7.038156
   154      9.151732      7.430637      9.527211
   155      7.401318      7.136568     10.176117
   156     10.309847      6.449373     10.621106
   157      6.189858     11.648079     -0.060018
   158      5.338505     13.021865      0.913322
   159      6.723991     10.033970      0.886000
   160      3.784222     -8.002718      2.532940
   161      4.513942     -6.930225      3.928818
   162      1.986726     -8.337141      2.871174
   163    -11.213731     -9.136172      5.425200
   164    -11.751560     -8.532185      3.672329
   165     -9.733703     -8.016785      5.861704
   166     -7.014673      6.249237      0.757880
   167     -7.970513      7.332402     -0.643677
   168     -7.690082      7.198195      2.242222
   169     -3.788323    -10.017631      7.415060
   170     -4.831701    -11.349676      8.302910
   171     -4.972196     -8.642918      6.953663
   172     -9.552380      9.301124      4.875355
   173    -10.291755     11.014076      4.700006
   174     -8.560146      9.571450      6.367740
   175      1.102653     10.000051      0.589965
   176     -0.112939      9.142414     -0.490091
   177      2.428504     10.558501     -0.659369
 
  MM charges 
  ---------- 
     1     -0.674440
     2      0.337220
     3      0.337220
     4     -0.674440
     5      0.337220
     6      0.337220
     7     -0.674440
     8      0.337220
     9      0.337220
    10     -0.674440
    11      0.337220
    12      0.337220
    13     -0.674440
    14      0.337220
    15      0.337220
    16     -0.674440
    17      0.337220
    18      0.337220
    19     -0.674440
    20      0.337220
    21      0.337220
    22     -0.674440
    23      0.337220
    24      0.337220
    25     -0.674440
    26      0.337220
    27      0.337220
    28     -0.674440
    29      0.337220
    30      0.337220
    31     -0.674440
    32      0.337220
    33      0.337220
    34     -0.674440
    35      0.337220
    36      0.337220
    37     -0.674440
    38      0.337220
    39      0.337220
    40     -0.674440
    41      0.337220
    42      0.337220
    43     -0.674440
    44      0.337220
    45      0.337220
    46     -0.674440
    47      0.337220
    48      0.337220
    49     -0.674440
    50      0.337220
    51      0.337220
    52     -0.674440
    53      0.337220
    54      0.337220
    55     -0.674440
    56      0.337220
    57      0.337220
    58     -0.674440
    59      0.337220
    60      0.337220
    61     -0.674440
    62      0.337220
    63      0.337220
    64     -0.674440
    65      0.337220
    66      0.337220
    67     -0.674440
    68      0.337220
    69      0.337220
    70     -0.674440
    71      0.337220
    72      0.337220
    73     -0.674440
    74      0.337220
    75      0.337220
    76     -0.674440
    77      0.337220
    78      0.337220
    79     -0.674440
    80      0.337220
    81      0.337220
    82     -0.674440
    83      0.337220
    84      0.337220
    85     -0.674440
    86      0.337220
    87      0.337220
    88     -0.674440
    89      0.337220
    90      0.337220
    91     -0.674440
    92      0.337220
    93      0.337220
    94     -0.674440
    95      0.337220
    96      0.337220
    97     -0.674440
    98      0.337220
    99      0.337220
   100     -0.674440
   101      0.337220
   102      0.337220
   103     -0.674440
   104      0.337220
   105      0.337220
   106     -0.674440
   107      0.337220
   108      0.337220
   109     -0.674440
   110      0.337220
   111      0.337220
   112     -0.674440
   113      0.337220
   114      0.337220
   115     -0.674440
   116      0.337220
   117      0.337220
   118     -0.674440
   119      0.337220
   120      0.337220
   121     -0.674440
   122      0.337220
   123      0.337220
   124     -0.674440
   125      0.337220
   126      0.337220
   127     -0.674440
   128      0.337220
   129      0.337220
   130     -0.674440
   131      0.337220
   132      0.337220
   133     -0.674440
   134      0.337220
   135      0.337220
   136     -0.674440
   137      0.337220
   138      0.337220
   139     -0.674440
   140      0.337220
   141      0.337220
   142     -0.674440
   143      0.337220
   144      0.337220
   145     -0.674440
   146      0.337220
   147      0.337220
   148     -0.674440
   149      0.337220
   150      0.337220
   151     -0.674440
   152      0.337220
   153      0.337220
   154     -0.674440
   155      0.337220
   156      0.337220
   157     -0.674440
   158      0.337220
   159      0.337220
   160     -0.674440
   161      0.337220
   162      0.337220
   163     -0.674440
   164      0.337220
   165      0.337220
   166     -0.674440
   167      0.337220
   168      0.337220
   169     -0.674440
   170      0.337220
   171      0.337220
   172     -0.674440
   173      0.337220
   174      0.337220
   175     -0.674440
   176      0.337220
   177      0.337220
 
  MM isotropic polarizabilities in au 
  ----------------------------------- 
     1      5.739350
     2      2.308390
     3      2.308390
     4      5.739350
     5      2.308390
     6      2.308390
     7      5.739350
     8      2.308390
     9      2.308390
    10      5.739350
    11      2.308390
    12      2.308390
    13      5.739350
    14      2.308390
    15      2.308390
    16      5.739350
    17      2.308390
    18      2.308390
    19      5.739350
    20      2.308390
    21      2.308390
    22      5.739350
    23      2.308390
    24      2.308390
    25      5.739350
    26      2.308390
    27      2.308390
    28      5.739350
    29      2.308390
    30      2.308390
    31      5.739350
    32      2.308390
    33      2.308390
    34      5.739350
    35      2.308390
    36      2.308390
    37      5.739350
    38      2.308390
    39      2.308390
    40      5.739350
    41      2.308390
    42      2.308390
    43      5.739350
    44      2.308390
    45      2.308390
    46      5.739350
    47      2.308390
    48      2.308390
    49      5.739350
    50      2.308390
    51      2.308390
    52      5.739350
    53      2.308390
    54      2.308390
    55      5.739350
    56      2.308390
    57      2.308390
    58      5.739350
    59      2.308390
    60      2.308390
    61      5.739350
    62      2.308390
    63      2.308390
    64      5.739350
    65      2.308390
    66      2.308390
    67      5.739350
    68      2.308390
    69      2.308390
    70      5.739350
    71      2.308390
    72      2.308390
    73      5.739350
    74      2.308390
    75      2.308390
    76      5.739350
    77      2.308390
    78      2.308390
    79      5.739350
    80      2.308390
    81      2.308390
    82      5.739350
    83      2.308390
    84      2.308390
    85      5.739350
    86      2.308390
    87      2.308390
    88      5.739350
    89      2.308390
    90      2.308390
    91      5.739350
    92      2.308390
    93      2.308390
    94      5.739350
    95      2.308390
    96      2.308390
    97      5.739350
    98      2.308390
    99      2.308390
   100      5.739350
   101      2.308390
   102      2.308390
   103      5.739350
   104      2.308390
   105      2.308390
   106      5.739350
   107      2.308390
   108      2.308390
   109      5.739350
   110      2.308390
   111      2.308390
   112      5.739350
   113      2.308390
   114      2.308390
   115      5.739350
   116      2.308390
   117      2.308390
   118      5.739350
   119      2.308390
   120      2.308390
   121      5.739350
   122      2.308390
   123      2.308390
   124      5.739350
   125      2.308390
   126      2.308390
   127      5.739350
   128      2.308390
   129      2.308390
   130      5.739350
   131      2.308390
   132      2.308390
   133      5.739350
   134      2.308390
   135      2.308390
   136      5.739350
   137      2.308390
   138      2.308390
   139      5.739350
   140      2.308390
   141      2.308390
   142      5.739350
   143      2.308390
   144      2.308390
   145      5.739350
   146      2.308390
   147      2.308390
   148      5.739350
   149      2.308390
   150      2.308390
   151      5.739350
   152      2.308390
   153      2.308390
   154      5.739350
   155      2.308390
   156      2.308390
   157      5.739350
   158      2.308390
   159      2.308390
   160      5.739350
   161      2.308390
   162      2.308390
   163      5.739350
   164      2.308390
   165      2.308390
   166      5.739350
   167      2.308390
   168      2.308390
   169      5.739350
   170      2.308390
   171      2.308390
   172      5.739350
   173      2.308390
   174      2.308390
   175      5.739350
   176      2.308390
   177      2.308390


     ************************************************************************
     ************************** Output from HERINT **************************
     ************************************************************************



                      Nuclear contribution to dipole moments
                      --------------------------------------

                 au               Debye          C m (/(10**-30)

      x      3.46519269         8.80764071        29.37912705
      y    -25.72234541       -65.37967647      -218.08312628
      z    -14.80674118       -37.63497973      -125.53677961


  Time used in POPOVLP    is       0.30 seconds
  Time used in DIPLEN     is       0.23 seconds
  Time used in QUADRUP    is       0.57 seconds
  Time used in KINENE     is       0.17 seconds

 Threshold for neglecting two-electron integrals:  1.00D-12
 HERMIT - Number of two-electron integrals written:    34275574 ( 39.3% )
 HERMIT - Megabytes written:                            392.471

  Time used in TWOINT     is      17.74 seconds
  Total CPU  time used in HERMIT:  19.12 seconds
  Total wall time used in HERMIT:   8.15 seconds


                        .----------------------------------.
                        | End of Integral Section (HERMIT) |
                        `----------------------------------'



                   .--------------------------------------------.
                   | Starting in Wave Function Section (SIRIUS) |
                   `--------------------------------------------'

NCCEXCI for singlet:   15
 CCSD_INPUT: core-val requested
 Requested number of core orbs per sym
                     1
 Indices of requested core orbs
                     1
* Read MO coefficients from SIRIUS.RST with label "NEWORB  " and header info: 13Dec18  FOCKDIIS

 **********************************************************************
 *SIRIUS* a direct, restricted step, second order MCSCF program       *
 **********************************************************************

 
     Date and time (Linux)  : Sun Dec 16 04:17:11 2018
     Host name              : n-62-23-23                              

 Title lines from ".mol" input file:
                                                                             
                                                                             

 Print level on unit LUPRI =   2 is   0
 Print level on unit LUW4  =   2 is  11

@    (Integral direct) CC calculation.

@    This is a combination run starting with
@              a restricted, closed shell Hartree-Fock calculation


 Initial molecular orbitals are obtained according to
 ".MOSTART NEWORB" input option

@    QM part is embedded in an environment :

@         Model: QMMM

     Wave function specification
     ============================

     For the specification of the Coupled Cluster: see later.

@    Wave function type        --- CC ---
@    Number of closed shell electrons          50
@    Number of electrons in active shells       0
@    Total charge of the molecule               1

@    Spin multiplicity and 2 M_S                1         0
@    Total number of symmetries                 1 (point group: C1 )
@    Reference state symmetry                   1 (irrep name : A  )

     Orbital specifications
     ======================
@    Abelian symmetry species          All |    1
@                                          |  A  
                                       --- |  ---
@    Occupied SCF orbitals              25 |   25
@    Secondary orbitals                137 |  137
@    Total number of orbitals          162 |  162
@    Number of basis functions         162 |  162

     Optimization information
     ========================
@    Number of configurations                 1
@    Number of orbital rotations           3425
     ------------------------------------------
@    Total number of variables             3426

     Maximum number of Fock   iterations      0
     Maximum number of DIIS   iterations     60
     Maximum number of QC-SCF iterations     60
     Threshold for SCF convergence     1.00D-07


 Changes of defaults for CC:
 ---------------------------


 -Implicit frozen core calculation
 -Excitation energies calculated
 -One-photon absorption strengths will be calculated
 -Oscillator strengths calculated
  
* Read MO coefficients from SIRIUS.RST with label "NEWORB  " and header info: 16Dec18  REORTHO 


 ***********************************************
 ***** DIIS acceleration of SCF iterations *****
 ***********************************************

 C1-DIIS algorithm; max error vectors =    8
 -----------------------------------------------------------------------------

 *** DIIS iteration number    1
 RDSUPM called. NFMAT, ISYMDM(1:NFMAT)                     1
                     1

Calculating AOSUPINT
     (Precalculated two-electron integrals are transformed to P-supermatrix elements.
      Threshold for discarding integrals :  1.00D-12 )
  CPU  time used in FORMSUP    is   8.18 seconds
  WALL time used in FORMSUP    is   9.05 seconds

 ITDIIS, energy, error norm, change in energy, scr.thr., difden:
@ DIIS iter.   1    -361.210647462        6.85093D-08   -3.61D+02  -20    F

@ *** DIIS converged in   1 iterations !
@     Converged SCF energy, gradient:   -361.210647462198    6.85D-08
    - total time used in SIRFCK :              0.00 seconds


 *** SCF orbital energy analysis ***
    (incl. solvent contribution)

 Number of electrons :   50
 Orbital occupations :   25

 Sym       Hartree-Fock orbital energies

1 A     -20.63913740   -20.63322763   -20.63273372   -20.61277099   -15.71782897
         -1.41414686    -1.41302662    -1.40809511    -1.38100414    -1.31389574
         -0.80351528    -0.78914917    -0.77510942    -0.76837341    -0.76440681
         -0.75515842    -0.74808287    -0.66739945    -0.65723305    -0.64529638
         -0.62613274    -0.59239439    -0.58544273    -0.58329378    -0.55641260
          0.06616441     0.11451661     0.12067599     0.13172204     0.17808960
          0.19389725     0.19951893     0.20636513     0.22769623     0.26881622
          0.28783266     0.30165324     0.35217151     0.36865298     0.38416650
          0.47843903     0.50595575     0.50957417     0.52572513     0.54359115
          0.55196775     0.55900561     0.57497605     0.60218616     0.83619225
          0.85014658     0.86032720     0.91090095     0.91256588     0.92841973
          0.95237351     1.01218516     1.01778186     1.02597309     1.04596277
          1.05645436     1.06259373     1.08804051     1.09690014     1.14460728
          1.16259834     1.21549783     1.29827060     1.31467880     1.34381227
          1.39009982     1.41608237     1.43244125     1.44807645     1.45146043
          1.45553849     1.49654429     1.51169377     1.55100553     1.61657034
          1.63131702     1.64209638     1.66414023     1.67606686     1.70620792
          1.78109687     1.81227334     1.82853189     1.84852827     1.86264554
          2.03744006     2.07831911     2.11469867     2.13130628     2.15531226
          2.18517406     2.19640311     2.20968080     2.25859126     2.27085352
          2.29008742     2.29749249     2.30647652     2.37122400     2.46993705
          2.56624915     2.60218610     2.64552122     2.66376101     2.67033774
          2.70216398     2.71222786     2.74249449     2.75393473     2.76784215
          2.79621134     2.86912805     2.90651106     3.15263710     3.20735266
          3.28535207     3.31981370     3.36542455     3.38742510     3.39424028
          3.41257777     3.42329730     3.45929965     3.46523128     3.46793808
          3.58183362     3.58584743     3.59090144     3.59441523     3.89482512
          3.91135053     3.96550104     3.99484007     4.12506053     4.13229575
          4.15055930     4.15512571     4.91582297     5.00916499     5.14519836
          5.31999405     5.32299584     5.32792001     5.38869190     5.70007447
          5.74310384     5.77069630     5.77249269     5.99401031     5.99709747
          6.04575712     6.07579927    36.86124862    51.43550724    51.44797811
         51.45410641    51.45537454

    E(LUMO) :     0.06616441 au (symmetry 1)
  - E(HOMO) :    -0.55641260 au (symmetry 1)
  ------------------------------------------
    gap     :     0.62257700 au

 Deviation from canonical Hartree-Fock orbitals :
 Largest off-diagonal Fock matrix element is  5.89D-09

 --- Writing SIRIFC interface file

 CPU and wall time for SCF :     116.089      25.425


                       .-----------------------------------.
                       | --- Final results from SIRIUS --- |
                       `-----------------------------------'


@    Spin multiplicity:           1
@    Spatial symmetry:            1 ( irrep  A   in C1  )
@    Total charge of molecule:    1

     QM/MM "QMMM" calculation converged :

     Charge contribution:         -0.173212422227
     Dipole contribution:          0.000000000000
     Quadrupole contribution:      0.000000000000
     Electronic Pol. energy:       0.585241314007
     Nuclear pol. energy:         -0.625750274905
     Multipole Pol. energy:       -0.215789626124
     Total QM/MM energy:          -0.429511009249

@    Final HF energy:            -361.210647462198                 
@    Nuclear repulsion:           193.205475770183
@    Electronic energy:          -553.986612223133

@    Final gradient norm:           0.000000068509

 
     Date and time (Linux)  : Sun Dec 16 04:17:36 2018
     Host name              : n-62-23-23                              

File label for MO orbitals:  16Dec18   FOCKDIIS

 Molecular orbitals for symmetry species 1  (A  )
 ------------------------------------------------

    Orbital         1        2        3        4        5        6        7
   1 N   :1s     0.0000   0.0000  -0.0000  -0.0000  -0.5576  -0.0047   0.0051
   2 N   :1s    -0.0000  -0.0000   0.0000   0.0000  -0.4682  -0.0078   0.0084
   3 N   :1s     0.0001   0.0001  -0.0000  -0.0000  -0.0053   0.0203  -0.0221
   4 N   :1s    -0.0003  -0.0004   0.0003   0.0002   0.0014   0.0161  -0.0168
   5 N   :2px   -0.0000   0.0000  -0.0000   0.0000  -0.0002   0.0011   0.0004
   6 N   :2py    0.0000   0.0000   0.0000   0.0000   0.0000  -0.0010  -0.0003
   7 N   :2pz    0.0000   0.0000   0.0000  -0.0000   0.0001  -0.0004  -0.0017
   8 N   :2px    0.0000  -0.0001   0.0000  -0.0000   0.0001   0.0008   0.0004
   9 N   :2py   -0.0000  -0.0000  -0.0000  -0.0000  -0.0000  -0.0008  -0.0003
  10 N   :2pz   -0.0000  -0.0000  -0.0001   0.0000   0.0000  -0.0005  -0.0022
  11 N   :2px   -0.0002   0.0002   0.0000   0.0001   0.0000   0.0023   0.0012
  12 N   :2py    0.0001   0.0001   0.0000   0.0001  -0.0000  -0.0024  -0.0004
  13 N   :2pz    0.0001   0.0001   0.0002  -0.0001  -0.0000  -0.0003  -0.0044
  14 N   :3d2-  -0.0000  -0.0000   0.0000  -0.0000  -0.0001  -0.0000  -0.0001
  15 N   :3d1-  -0.0000   0.0000  -0.0000  -0.0000   0.0000   0.0002  -0.0001
  16 N   :3d0   -0.0000  -0.0000  -0.0000   0.0000   0.0000  -0.0000  -0.0007
  17 N   :3d1+   0.0000   0.0000  -0.0000  -0.0000  -0.0000  -0.0001   0.0002
  19 H   :1s    -0.0000  -0.0000   0.0000   0.0000  -0.0002   0.0032  -0.0032
  20 H   :1s     0.0001   0.0001  -0.0001  -0.0001  -0.0003   0.0013  -0.0022
  21 H   :1s    -0.0001  -0.0001   0.0001  -0.0002  -0.0001   0.0012  -0.0016
  22 H   :2px   -0.0000  -0.0000   0.0000   0.0000   0.0000  -0.0003   0.0003
  23 H   :2py   -0.0000  -0.0000   0.0000  -0.0000   0.0001  -0.0005   0.0009
  24 H   :2pz    0.0000   0.0000  -0.0000   0.0000  -0.0000   0.0003  -0.0002
  25 H   :1s    -0.0000   0.0000   0.0000   0.0000  -0.0002   0.0070  -0.0025
  26 H   :1s     0.0001   0.0001  -0.0001  -0.0001  -0.0004   0.0062  -0.0014
  27 H   :1s     0.0003  -0.0000   0.0001   0.0001  -0.0001  -0.0006  -0.0016
  28 H   :2px    0.0000  -0.0000   0.0000   0.0000   0.0001  -0.0006   0.0007
  29 H   :2py   -0.0000   0.0000  -0.0000  -0.0000  -0.0001   0.0005  -0.0006
  30 H   :2pz   -0.0000  -0.0000  -0.0000  -0.0000  -0.0000   0.0002  -0.0000
  31 H   :1s    -0.0000  -0.0000  -0.0000   0.0000  -0.0002   0.0034  -0.0035
  32 H   :1s     0.0001   0.0002  -0.0000  -0.0000  -0.0002   0.0016  -0.0028
  33 H   :1s    -0.0001   0.0004   0.0000   0.0000  -0.0003   0.0011  -0.0002
  34 H   :2px    0.0000  -0.0000  -0.0000  -0.0000  -0.0000   0.0004  -0.0008
  35 H   :2py    0.0000  -0.0000  -0.0000  -0.0000  -0.0000   0.0004  -0.0004
  36 H   :2pz    0.0000  -0.0000  -0.0000   0.0000  -0.0000   0.0003  -0.0002
  37 H   :1s    -0.0000  -0.0000   0.0000   0.0000  -0.0002   0.0034  -0.0089
  38 H   :1s     0.0001   0.0001  -0.0002  -0.0001  -0.0003   0.0022  -0.0090
  39 H   :1s    -0.0001  -0.0001  -0.0003   0.0001  -0.0001   0.0004   0.0033
  41 H   :2py   -0.0000  -0.0000   0.0000  -0.0000   0.0000   0.0000   0.0002
  42 H   :2pz   -0.0000  -0.0000  -0.0001   0.0000   0.0001  -0.0005  -0.0001
  43 O   :1s    -0.0000  -0.0000   0.0000  -0.5515  -0.0000  -0.0007   0.0007
  44 O   :1s    -0.0000  -0.0000   0.0000  -0.4717  -0.0000  -0.0012   0.0011
  45 O   :1s    -0.0000  -0.0000   0.0000  -0.0055  -0.0000   0.0035  -0.0031
  46 O   :1s    -0.0000   0.0000  -0.0000   0.0005   0.0001   0.0022  -0.0021
  47 O   :2px   -0.0000   0.0000   0.0000  -0.0012  -0.0000   0.0001  -0.0001
  48 O   :2py    0.0000  -0.0000   0.0000   0.0008  -0.0000  -0.0001   0.0001
  49 O   :2pz    0.0000  -0.0000  -0.0000   0.0005   0.0000  -0.0000   0.0000
  50 O   :2px    0.0000  -0.0000  -0.0000   0.0004   0.0000   0.0002  -0.0002
  51 O   :2py   -0.0000   0.0000  -0.0000  -0.0003   0.0000  -0.0002   0.0002
  52 O   :2pz   -0.0000   0.0000   0.0000  -0.0002  -0.0000  -0.0000  -0.0000
  53 O   :2px   -0.0000   0.0000   0.0000  -0.0000   0.0000   0.0003  -0.0000
  55 O   :2pz    0.0000   0.0000  -0.0000   0.0001   0.0000  -0.0001   0.0002
  57 O   :3d1-  -0.0000   0.0000  -0.0000   0.0001  -0.0000   0.0000  -0.0000
  61 O   :1s    -0.0000   0.5515  -0.0000  -0.0000  -0.0000  -0.0052   0.0062
  62 O   :1s    -0.0000   0.4717  -0.0000  -0.0000   0.0000  -0.0088   0.0103
  63 O   :1s     0.0000   0.0055  -0.0000  -0.0000  -0.0000   0.0249  -0.0293
  64 O   :1s     0.0000  -0.0006   0.0000   0.0000   0.0001   0.0191  -0.0228
  65 O   :2px   -0.0000  -0.0011   0.0000   0.0000   0.0000  -0.0009   0.0011
  66 O   :2py    0.0000  -0.0002   0.0000   0.0000   0.0000  -0.0000   0.0000
  67 O   :2pz    0.0000   0.0009   0.0000  -0.0000   0.0000   0.0008  -0.0010
  68 O   :2px    0.0000   0.0005  -0.0000  -0.0000  -0.0000  -0.0017   0.0021
  69 O   :2py   -0.0000   0.0001  -0.0000  -0.0000  -0.0000  -0.0001   0.0001
  70 O   :2pz   -0.0000  -0.0003  -0.0000   0.0000   0.0000   0.0015  -0.0018
  71 O   :2px   -0.0000  -0.0001  -0.0000  -0.0000   0.0001  -0.0006   0.0009
  72 O   :2py    0.0000  -0.0001   0.0000   0.0000   0.0000  -0.0000  -0.0002
  73 O   :2pz    0.0000  -0.0001   0.0000  -0.0000   0.0000   0.0005  -0.0007
  74 O   :3d2-  -0.0000   0.0000  -0.0000  -0.0000   0.0000  -0.0001   0.0001
  75 O   :3d1-   0.0000   0.0001  -0.0000   0.0000   0.0000  -0.0001   0.0001
  76 O   :3d0   -0.0000   0.0001  -0.0000  -0.0000  -0.0000  -0.0001   0.0002
  77 O   :3d1+  -0.0000   0.0001  -0.0000   0.0000   0.0000  -0.0002   0.0002
  78 O   :3d2+   0.0000   0.0001  -0.0000   0.0000   0.0000  -0.0001   0.0001
  79 O   :1s    -0.0000  -0.0000  -0.5515  -0.0000  -0.0000  -0.0169   0.1129
  80 O   :1s    -0.0000  -0.0000  -0.4717  -0.0000   0.0000  -0.0283   0.1886
  81 O   :1s    -0.0000  -0.0000  -0.0055   0.0000  -0.0000   0.0802  -0.5345
  82 O   :1s     0.0000   0.0000   0.0006  -0.0000   0.0001   0.0610  -0.4087
  83 O   :2px   -0.0000   0.0000  -0.0013  -0.0000  -0.0000   0.0036  -0.0243
  84 O   :2py   -0.0000   0.0000   0.0001  -0.0000   0.0000  -0.0002   0.0013
  85 O   :2pz   -0.0000  -0.0000  -0.0009   0.0000  -0.0000   0.0025  -0.0172
  86 O   :2px    0.0000  -0.0000   0.0005   0.0000   0.0000   0.0064  -0.0425
  87 O   :2py    0.0000  -0.0000  -0.0001   0.0000  -0.0000  -0.0004   0.0025
  88 O   :2pz    0.0000   0.0000   0.0004  -0.0000   0.0000   0.0044  -0.0301
  89 O   :2px   -0.0000   0.0000   0.0000   0.0000   0.0000   0.0032  -0.0212
  90 O   :2py   -0.0000   0.0000   0.0000  -0.0000   0.0000  -0.0006   0.0047
  91 O   :2pz   -0.0000  -0.0000  -0.0002   0.0000  -0.0001   0.0013  -0.0078
  92 O   :3d2-   0.0000   0.0000  -0.0000  -0.0000  -0.0000  -0.0003   0.0019
  93 O   :3d1-   0.0000   0.0000   0.0000   0.0000   0.0000   0.0005  -0.0032
  94 O   :3d0   -0.0000  -0.0000  -0.0000   0.0000   0.0000  -0.0004   0.0028
  95 O   :3d1+   0.0000   0.0000   0.0001  -0.0000  -0.0000   0.0006  -0.0038
  96 O   :3d2+  -0.0000  -0.0000  -0.0001  -0.0000  -0.0000  -0.0006   0.0040
  97 O   :1s     0.5515   0.0000  -0.0000  -0.0000  -0.0000  -0.1129  -0.0175
  98 O   :1s     0.4717   0.0000  -0.0000  -0.0000   0.0000  -0.1887  -0.0292
  99 O   :1s     0.0055   0.0000   0.0000   0.0000  -0.0000   0.5371   0.0831
 100 O   :1s    -0.0005   0.0000   0.0000  -0.0000   0.0001   0.3992   0.0621
 101 O   :2px    0.0006   0.0000   0.0000   0.0000  -0.0000   0.0133   0.0021
 102 O   :2py   -0.0007  -0.0000  -0.0000  -0.0000   0.0000  -0.0148  -0.0023
 103 O   :2pz    0.0012   0.0000   0.0000  -0.0000  -0.0000   0.0236   0.0036
 104 O   :2px   -0.0002  -0.0000  -0.0000  -0.0000   0.0000   0.0228   0.0037
 105 O   :2py    0.0003   0.0000   0.0000   0.0000  -0.0000  -0.0265  -0.0042
 106 O   :2pz   -0.0004  -0.0000  -0.0000   0.0000   0.0000   0.0412   0.0064
 107 O   :2px    0.0001   0.0000   0.0000   0.0000  -0.0000   0.0040   0.0005
 108 O   :2py   -0.0001   0.0000  -0.0000  -0.0000   0.0000  -0.0028  -0.0003
 109 O   :2pz   -0.0000   0.0000   0.0000  -0.0000   0.0000   0.0126   0.0019
 110 O   :3d2-  -0.0001   0.0000   0.0000  -0.0000   0.0000   0.0038   0.0006
 111 O   :3d1-   0.0001   0.0000  -0.0000   0.0000  -0.0000  -0.0040  -0.0006
 112 O   :3d0    0.0001   0.0000  -0.0000   0.0000  -0.0000  -0.0016  -0.0003
 113 O   :3d1+  -0.0001   0.0000   0.0000  -0.0000  -0.0000   0.0041   0.0006
 114 O   :3d2+  -0.0000   0.0000  -0.0000   0.0000   0.0000   0.0006   0.0001
 115 H   :1s    -0.0000  -0.0000  -0.0000  -0.0002   0.0000   0.0006  -0.0004
 116 H   :1s     0.0000   0.0000   0.0000  -0.0002  -0.0000   0.0000  -0.0006
 117 H   :1s    -0.0000  -0.0000  -0.0000  -0.0000   0.0000   0.0005   0.0004
 119 H   :2py    0.0000   0.0000   0.0000  -0.0001  -0.0000   0.0001  -0.0001
 120 H   :2pz    0.0000  -0.0000  -0.0000  -0.0001  -0.0000   0.0001  -0.0001
 121 H   :1s    -0.0000   0.0000  -0.0000  -0.0002   0.0000   0.0005  -0.0004
 122 H   :1s     0.0000  -0.0000   0.0000  -0.0002  -0.0000   0.0002  -0.0006
 123 H   :1s    -0.0000   0.0000  -0.0000  -0.0000   0.0000  -0.0000   0.0003
 124 H   :2px   -0.0000   0.0000   0.0000   0.0001   0.0000  -0.0001   0.0002
 127 H   :1s    -0.0000   0.0002   0.0000  -0.0000   0.0000   0.0038  -0.0044
 128 H   :1s     0.0000   0.0002  -0.0000   0.0000  -0.0000   0.0023  -0.0029
 129 H   :1s    -0.0000   0.0000   0.0000  -0.0000   0.0000   0.0005  -0.0000
 130 H   :2px    0.0000   0.0000  -0.0000   0.0000  -0.0000   0.0003  -0.0004
 131 H   :2py    0.0000   0.0001  -0.0000  -0.0000  -0.0000   0.0010  -0.0011
 132 H   :2pz   -0.0000  -0.0000  -0.0000  -0.0000  -0.0000  -0.0006   0.0007
 133 H   :1s     0.0000   0.0002   0.0000   0.0000  -0.0000   0.0039  -0.0047
 134 H   :1s    -0.0000   0.0002  -0.0000  -0.0000  -0.0000   0.0029  -0.0026
 135 H   :1s     0.0000  -0.0000   0.0000   0.0000   0.0001  -0.0006  -0.0002
 136 H   :2px    0.0000   0.0001  -0.0000  -0.0000  -0.0000   0.0008  -0.0009
 137 H   :2py    0.0000  -0.0001   0.0000   0.0000   0.0000  -0.0008   0.0009
 138 H   :2pz    0.0000  -0.0000  -0.0000   0.0000   0.0000  -0.0003   0.0003
 139 H   :1s    -0.0000  -0.0000  -0.0002  -0.0000  -0.0000   0.0127  -0.0838
 140 H   :1s     0.0000   0.0000  -0.0002   0.0000  -0.0000   0.0085  -0.0595
 141 H   :1s    -0.0000  -0.0000  -0.0000  -0.0000   0.0000   0.0006   0.0011
 142 H   :2px    0.0000  -0.0000   0.0000   0.0000   0.0000  -0.0018   0.0121
 143 H   :2py   -0.0000  -0.0000  -0.0001  -0.0000  -0.0000   0.0033  -0.0221
 144 H   :2pz    0.0000  -0.0000   0.0000   0.0000   0.0000  -0.0006   0.0038
 145 H   :1s     0.0000   0.0000  -0.0002   0.0000   0.0000   0.0128  -0.0858
 146 H   :1s    -0.0000  -0.0000  -0.0002  -0.0000  -0.0000   0.0093  -0.0621
 147 H   :1s     0.0000   0.0000  -0.0000   0.0000   0.0000  -0.0008   0.0019
 148 H   :2px    0.0000   0.0000  -0.0000  -0.0000  -0.0000  -0.0011   0.0076
 149 H   :2py   -0.0000   0.0000   0.0001  -0.0000   0.0000  -0.0032   0.0212
 150 H   :2pz   -0.0000   0.0000   0.0000   0.0000   0.0000  -0.0019   0.0130
 151 H   :1s     0.0002  -0.0000   0.0000  -0.0000   0.0000   0.0826   0.0128
 152 H   :1s     0.0002   0.0000  -0.0000   0.0000  -0.0000   0.0691   0.0109
 153 H   :1s     0.0000  -0.0000   0.0000  -0.0000   0.0000  -0.0026  -0.0005
 154 H   :2px    0.0000  -0.0000  -0.0000   0.0000   0.0000   0.0102   0.0016
 155 H   :2py    0.0001   0.0000  -0.0000   0.0000  -0.0000   0.0223   0.0034
 156 H   :2pz   -0.0000  -0.0000   0.0000  -0.0000   0.0000  -0.0102  -0.0016
 157 H   :1s     0.0002   0.0000   0.0000   0.0000   0.0000   0.0867   0.0134
 158 H   :1s     0.0002  -0.0000  -0.0000   0.0000  -0.0000   0.0693   0.0108
 159 H   :1s     0.0000   0.0000  -0.0000  -0.0000   0.0000  -0.0030  -0.0004
 160 H   :2px   -0.0001   0.0000   0.0000  -0.0000   0.0000  -0.0232  -0.0036
 161 H   :2py   -0.0000   0.0000   0.0000  -0.0000  -0.0000  -0.0066  -0.0011
 162 H   :2pz   -0.0000   0.0000  -0.0000   0.0000  -0.0000  -0.0128  -0.0020

    Orbital         8        9       10       11       12       13       14
   1 N   :1s     0.0071  -0.0077   0.1093   0.0008   0.0027   0.0054  -0.0011
   2 N   :1s     0.0118  -0.0128   0.1813   0.0013   0.0046   0.0092  -0.0018
   3 N   :1s    -0.0310   0.0340  -0.4919  -0.0044  -0.0129  -0.0273   0.0053
   4 N   :1s    -0.0234   0.0238  -0.3273  -0.0062  -0.0254  -0.0351   0.0074
   5 N   :2px    0.0021   0.0009  -0.0039   0.1516   0.0336   0.0837   0.0096
   6 N   :2py    0.0013   0.0017   0.0007   0.1417  -0.0261  -0.0698  -0.0172
   7 N   :2pz    0.0018  -0.0018   0.0102   0.0171  -0.1211  -0.1162   0.0498
   8 N   :2px    0.0030   0.0013  -0.0064   0.2428   0.0539   0.1340   0.0150
   9 N   :2py    0.0020   0.0019   0.0013   0.2264  -0.0425  -0.1126  -0.0269
  10 N   :2pz    0.0025  -0.0025   0.0136   0.0283  -0.1953  -0.1883   0.0803
  11 N   :2px    0.0051   0.0008   0.0011   0.1623   0.0381   0.0944   0.0103
  12 N   :2py    0.0027   0.0027   0.0026   0.1526  -0.0240  -0.0822  -0.0228
  13 N   :2pz    0.0029  -0.0032   0.0034   0.0187  -0.1455  -0.1375   0.0603
  14 N   :3d2-  -0.0008   0.0002  -0.0018  -0.0038  -0.0009  -0.0081  -0.0032
  15 N   :3d1-  -0.0004  -0.0004  -0.0007  -0.0128  -0.0029  -0.0003   0.0027
  16 N   :3d0    0.0003  -0.0000   0.0006   0.0017  -0.0120  -0.0134   0.0034
  17 N   :3d1+  -0.0006  -0.0002   0.0007  -0.0137  -0.0002  -0.0028  -0.0008
  18 N   :3d2+  -0.0004  -0.0003   0.0000  -0.0116   0.0002   0.0015   0.0008
  19 H   :1s    -0.0044   0.0106  -0.0793   0.1194   0.0305   0.0090  -0.0261
  20 H   :1s    -0.0039   0.0096  -0.0858   0.1602   0.0355   0.0142  -0.0311
  21 H   :1s    -0.0003  -0.0003   0.0067   0.0227   0.0100  -0.0045  -0.0108
  22 H   :2px    0.0002  -0.0003   0.0080  -0.0001   0.0005   0.0048   0.0022
  23 H   :2py    0.0011  -0.0013   0.0217  -0.0182  -0.0079  -0.0068   0.0042
  24 H   :2pz   -0.0008   0.0005  -0.0111   0.0140  -0.0039  -0.0059   0.0007
  25 H   :1s    -0.0042   0.0051  -0.0753   0.0134   0.0483   0.0978   0.0083
  26 H   :1s    -0.0037   0.0034  -0.0845   0.0191   0.0719   0.1334   0.0127
  27 H   :1s    -0.0015   0.0026   0.0060   0.0047   0.0088   0.0357   0.0038
  28 H   :2px    0.0010  -0.0011   0.0187   0.0066  -0.0083  -0.0137  -0.0017
  29 H   :2py   -0.0010   0.0010  -0.0163   0.0114   0.0069   0.0120  -0.0010
  30 H   :2pz   -0.0004   0.0004  -0.0056   0.0016  -0.0038  -0.0015   0.0031
  31 H   :1s    -0.0119   0.0049  -0.0762  -0.1450   0.0222  -0.0004  -0.0164
  32 H   :1s    -0.0108   0.0038  -0.0796  -0.1918   0.0306  -0.0063  -0.0255
  33 H   :1s     0.0053  -0.0000   0.0115  -0.0311   0.0043   0.0019   0.0006
  34 H   :2px    0.0001   0.0012  -0.0203  -0.0199   0.0066   0.0047  -0.0020
  35 H   :2py    0.0002   0.0006  -0.0110  -0.0070   0.0001  -0.0046  -0.0029
  36 H   :2pz   -0.0001   0.0007  -0.0097  -0.0129  -0.0040  -0.0067   0.0011
  37 H   :1s    -0.0031   0.0038  -0.0607   0.0170  -0.0981  -0.1005   0.0339
  38 H   :1s    -0.0020   0.0039  -0.0697   0.0250  -0.1333  -0.1382   0.0467
  39 H   :1s    -0.0026  -0.0001   0.0069   0.0006  -0.0268  -0.0268   0.0094
  40 H   :2px   -0.0004   0.0001  -0.0028   0.0078  -0.0013   0.0014   0.0016
  41 H   :2py    0.0001  -0.0004   0.0041   0.0061   0.0051   0.0003  -0.0018
  42 H   :2pz    0.0012  -0.0013   0.0225  -0.0044   0.0169   0.0211  -0.0064
  43 O   :1s     0.0012  -0.1144  -0.0096   0.0023   0.0011   0.0008  -0.0006
  44 O   :1s     0.0021  -0.1911  -0.0160   0.0039   0.0018   0.0014  -0.0011
  45 O   :1s    -0.0060   0.5443   0.0453  -0.0117  -0.0053  -0.0041   0.0030
  46 O   :1s    -0.0039   0.4089   0.0375  -0.0083  -0.0057  -0.0041   0.0035
  47 O   :2px   -0.0002   0.0230   0.0026  -0.0084  -0.0088  -0.0077   0.0127
  48 O   :2py    0.0002  -0.0129   0.0005  -0.0140  -0.0127  -0.0124   0.0148
  49 O   :2pz    0.0000  -0.0102  -0.0026   0.0147   0.0001  -0.0045   0.0027
  50 O   :2px   -0.0004   0.0405   0.0046  -0.0133  -0.0138  -0.0120   0.0195
  51 O   :2py    0.0004  -0.0229   0.0005  -0.0218  -0.0197  -0.0190   0.0230
  52 O   :2pz    0.0001  -0.0187  -0.0042   0.0231   0.0006  -0.0068   0.0038
  53 O   :2px    0.0000   0.0121   0.0023  -0.0084  -0.0089  -0.0073   0.0140
  54 O   :2py    0.0001  -0.0135  -0.0004  -0.0179  -0.0143  -0.0145   0.0168
  55 O   :2pz   -0.0002   0.0014  -0.0026   0.0204   0.0016  -0.0035   0.0014
  56 O   :3d2-  -0.0000   0.0023   0.0003  -0.0006  -0.0005  -0.0006   0.0006
  57 O   :3d1-  -0.0001   0.0060   0.0008  -0.0010   0.0002   0.0006  -0.0005
  58 O   :3d0    0.0000  -0.0027  -0.0003   0.0004   0.0004   0.0004  -0.0007
  59 O   :3d1+  -0.0000   0.0009   0.0001   0.0004  -0.0001  -0.0001   0.0002
  60 O   :3d2+   0.0000   0.0017   0.0003  -0.0013  -0.0015  -0.0014   0.0018
  61 O   :1s     0.1141   0.0021  -0.0093  -0.0018  -0.0002  -0.0006  -0.0001
  62 O   :1s     0.1906   0.0034  -0.0156  -0.0030  -0.0004  -0.0011  -0.0002
  63 O   :1s    -0.5402  -0.0097   0.0444   0.0080   0.0012   0.0033   0.0008
  64 O   :1s    -0.4223  -0.0077   0.0350   0.0029   0.0036   0.0049  -0.0020
  65 O   :2px    0.0227   0.0006  -0.0052  -0.0372   0.0079   0.0089   0.0059
  66 O   :2py    0.0013   0.0001  -0.0021  -0.0477   0.0095  -0.0165  -0.0443
  67 O   :2pz   -0.0178  -0.0003   0.0004  -0.0055  -0.0022  -0.0004   0.0068
  68 O   :2px    0.0406   0.0010  -0.0076  -0.0579   0.0121   0.0138   0.0091
  69 O   :2py    0.0027   0.0002  -0.0029  -0.0735   0.0147  -0.0251  -0.0679
  70 O   :2pz   -0.0320  -0.0005   0.0011  -0.0082  -0.0033  -0.0003   0.0106
  71 O   :2px    0.0133   0.0003  -0.0059  -0.0510   0.0113   0.0105   0.0050
  72 O   :2py   -0.0022   0.0002  -0.0023  -0.0576   0.0110  -0.0193  -0.0528
  73 O   :2pz   -0.0102  -0.0002  -0.0005  -0.0127  -0.0028  -0.0018   0.0070
  74 O   :3d2-   0.0025   0.0000  -0.0002   0.0018  -0.0003   0.0014   0.0034
  75 O   :3d1-   0.0020   0.0001  -0.0003  -0.0036   0.0006  -0.0012  -0.0031
  76 O   :3d0    0.0029   0.0000  -0.0003  -0.0008  -0.0000   0.0003   0.0008
  77 O   :3d1+   0.0038   0.0001  -0.0005  -0.0021   0.0005   0.0003  -0.0001
  78 O   :3d2+   0.0024   0.0001  -0.0002  -0.0006   0.0002  -0.0005  -0.0014
  79 O   :1s    -0.0074   0.0012  -0.0065   0.0003  -0.0008  -0.0002   0.0002
  80 O   :1s    -0.0124   0.0020  -0.0110   0.0006  -0.0013  -0.0003   0.0002
  81 O   :1s     0.0351  -0.0056   0.0312  -0.0018   0.0045  -0.0001  -0.0004
  82 O   :1s     0.0274  -0.0043   0.0244  -0.0007  -0.0066  -0.0058   0.0016
  83 O   :2px    0.0016  -0.0002   0.0011   0.0015  -0.0144   0.0162  -0.0037
  84 O   :2py   -0.0001   0.0000  -0.0001   0.0085   0.1607  -0.1428   0.0360
  85 O   :2pz    0.0013  -0.0003   0.0040  -0.0005   0.0795   0.0030  -0.0048
  86 O   :2px    0.0028  -0.0004   0.0022   0.0022  -0.0222   0.0250  -0.0058
  87 O   :2py   -0.0002   0.0000   0.0001   0.0130   0.2460  -0.2185   0.0551
  88 O   :2pz    0.0023  -0.0005   0.0056  -0.0003   0.1215   0.0051  -0.0076
  89 O   :2px    0.0016  -0.0002   0.0009   0.0039  -0.0168   0.0137  -0.0023
  90 O   :2py   -0.0001  -0.0000  -0.0009   0.0098   0.1699  -0.1570   0.0404
  91 O   :2pz    0.0004  -0.0003   0.0042  -0.0014   0.0981   0.0123  -0.0085
  92 O   :3d2-  -0.0001   0.0000  -0.0001   0.0007   0.0148  -0.0128   0.0032
  93 O   :3d1-   0.0002  -0.0000   0.0002   0.0004   0.0110  -0.0086   0.0022
  94 O   :3d0   -0.0002   0.0000  -0.0002   0.0000   0.0043  -0.0040   0.0010
  95 O   :3d1+   0.0003  -0.0000   0.0004  -0.0000   0.0050   0.0001  -0.0003
  96 O   :3d2+  -0.0003   0.0000  -0.0003   0.0001  -0.0011  -0.0001   0.0001
  97 O   :1s    -0.0046   0.0009  -0.0046   0.0000  -0.0003  -0.0009  -0.0010
  98 O   :1s    -0.0077   0.0015  -0.0077   0.0000  -0.0006  -0.0016  -0.0017
  99 O   :1s     0.0219  -0.0042   0.0218  -0.0000   0.0018   0.0053   0.0053
 100 O   :1s     0.0170  -0.0039   0.0175   0.0004   0.0059   0.0127   0.0080
 101 O   :2px    0.0006  -0.0002   0.0021   0.0046  -0.0137  -0.0510  -0.1667
 102 O   :2py   -0.0007   0.0002  -0.0022   0.0073   0.0064  -0.0030  -0.1356
 103 O   :2pz    0.0010  -0.0002   0.0008   0.0003  -0.0031  -0.0072  -0.0134
 104 O   :2px    0.0011  -0.0004   0.0033   0.0069  -0.0211  -0.0788  -0.2553
 105 O   :2py   -0.0012   0.0005  -0.0034   0.0112   0.0100  -0.0040  -0.2084
 106 O   :2pz    0.0017  -0.0003   0.0014   0.0005  -0.0043  -0.0104  -0.0202
 107 O   :2px    0.0003   0.0002   0.0023   0.0061  -0.0178  -0.0611  -0.1880
 108 O   :2py   -0.0000  -0.0001  -0.0026   0.0091   0.0103   0.0022  -0.1514
 109 O   :2pz    0.0007  -0.0004   0.0008   0.0005  -0.0041  -0.0083  -0.0133
 110 O   :3d2-   0.0002  -0.0000   0.0003  -0.0002  -0.0001   0.0002   0.0031
 111 O   :3d1-  -0.0002   0.0001  -0.0003   0.0006   0.0003  -0.0007  -0.0112
 112 O   :3d0   -0.0001   0.0000  -0.0001   0.0001  -0.0000  -0.0001  -0.0016
 113 O   :3d1+   0.0002  -0.0000   0.0003   0.0005  -0.0010  -0.0041  -0.0149
 114 O   :3d2+   0.0000   0.0000   0.0000   0.0005  -0.0004  -0.0028  -0.0156
 115 H   :1s    -0.0010   0.0827   0.0068  -0.0005   0.0069   0.0092  -0.0100
 116 H   :1s    -0.0003   0.0695   0.0047   0.0011   0.0108   0.0135  -0.0136
 117 H   :1s    -0.0012  -0.0024  -0.0029  -0.0009   0.0028   0.0037  -0.0046
 118 H   :2px   -0.0000   0.0023   0.0003  -0.0007  -0.0006  -0.0005   0.0008
 119 H   :2py   -0.0002   0.0198   0.0018  -0.0017   0.0003   0.0009  -0.0010
 120 H   :2pz   -0.0002   0.0169   0.0005   0.0018   0.0023   0.0022  -0.0024
 121 H   :1s    -0.0008   0.0837   0.0077  -0.0090  -0.0098  -0.0093   0.0129
 122 H   :1s    -0.0011   0.0671   0.0057  -0.0117  -0.0120  -0.0125   0.0162
 123 H   :1s     0.0006  -0.0028  -0.0010   0.0009  -0.0026  -0.0014   0.0036
 124 H   :2px    0.0003  -0.0249  -0.0019   0.0021   0.0023   0.0024  -0.0030
 125 H   :2py    0.0001  -0.0096  -0.0004  -0.0005   0.0001   0.0002  -0.0004
 126 H   :2pz    0.0000  -0.0042  -0.0006   0.0020   0.0005   0.0001  -0.0004
 127 H   :1s    -0.0807  -0.0016   0.0078   0.0343  -0.0077   0.0090   0.0287
 128 H   :1s    -0.0590  -0.0009   0.0062   0.0410  -0.0092   0.0108   0.0353
 129 H   :1s     0.0018  -0.0002  -0.0014   0.0062  -0.0020   0.0034   0.0092
 130 H   :2px   -0.0063  -0.0001   0.0003  -0.0001  -0.0002   0.0014   0.0029
 131 H   :2py   -0.0210  -0.0004   0.0018   0.0061  -0.0015   0.0013   0.0050
 132 H   :2pz    0.0129   0.0002  -0.0013  -0.0066   0.0013  -0.0015  -0.0045
 133 H   :1s    -0.0849  -0.0015   0.0073  -0.0052   0.0006  -0.0125  -0.0246
 134 H   :1s    -0.0570  -0.0015   0.0057  -0.0098   0.0019  -0.0155  -0.0298
 135 H   :1s     0.0023   0.0006  -0.0029  -0.0009  -0.0004  -0.0043  -0.0079
 136 H   :2px   -0.0176  -0.0003   0.0013  -0.0049   0.0008  -0.0026  -0.0054
 137 H   :2py    0.0173   0.0003  -0.0018  -0.0028   0.0005   0.0016   0.0021
 138 H   :2pz    0.0051   0.0001  -0.0007  -0.0004  -0.0002   0.0008   0.0023
 139 H   :1s     0.0055  -0.0009   0.0050  -0.0050  -0.0970   0.0966  -0.0247
 140 H   :1s     0.0040  -0.0006   0.0042  -0.0075  -0.1318   0.1299  -0.0330
 141 H   :1s    -0.0000  -0.0001  -0.0025  -0.0011  -0.0237   0.0237  -0.0058
 142 H   :2px   -0.0008   0.0001  -0.0008   0.0010   0.0149  -0.0151   0.0039
 143 H   :2py    0.0014  -0.0002   0.0014  -0.0010  -0.0167   0.0182  -0.0047
 144 H   :2pz   -0.0003   0.0000   0.0003   0.0003   0.0132  -0.0051   0.0007
 145 H   :1s     0.0057  -0.0009   0.0060   0.0048   0.1211  -0.0772   0.0179
 146 H   :1s     0.0037  -0.0007   0.0053   0.0047   0.1522  -0.0982   0.0226
 147 H   :1s     0.0003   0.0001  -0.0011   0.0023   0.0254  -0.0176   0.0041
 148 H   :2px   -0.0005   0.0001  -0.0006  -0.0003  -0.0122   0.0083  -0.0019
 149 H   :2py   -0.0014   0.0002  -0.0016  -0.0005  -0.0215   0.0102  -0.0020
 150 H   :2pz   -0.0008   0.0001  -0.0007  -0.0008  -0.0148   0.0136  -0.0035
 151 H   :1s     0.0033  -0.0008   0.0038  -0.0059  -0.0010   0.0146   0.1291
 152 H   :1s     0.0033  -0.0001   0.0031  -0.0060  -0.0003   0.0212   0.1725
 153 H   :1s    -0.0010  -0.0005  -0.0017  -0.0041   0.0005   0.0055   0.0428
 154 H   :2px    0.0004  -0.0001   0.0006  -0.0003  -0.0012  -0.0026   0.0018
 155 H   :2py    0.0009  -0.0001   0.0006  -0.0010   0.0004   0.0043   0.0257
 156 H   :2pz   -0.0004   0.0001  -0.0005   0.0006  -0.0000  -0.0023  -0.0177
 157 H   :1s     0.0036  -0.0007   0.0042   0.0043  -0.0086  -0.0353  -0.1332
 158 H   :1s     0.0023  -0.0005   0.0034   0.0038  -0.0103  -0.0448  -0.1730
 159 H   :1s     0.0006   0.0001  -0.0013   0.0033  -0.0018  -0.0098  -0.0418
 160 H   :2px   -0.0009   0.0001  -0.0007  -0.0008   0.0013   0.0059   0.0249
 161 H   :2py   -0.0003   0.0001  -0.0005   0.0003   0.0011   0.0024  -0.0019
 162 H   :2pz   -0.0005   0.0001  -0.0006  -0.0004   0.0012   0.0053   0.0201

    Orbital        15       16       17       18       19       20       21
   1 N   :1s     0.0013   0.0006   0.0008  -0.0030  -0.0038   0.0040  -0.0016
   2 N   :1s     0.0022   0.0010   0.0013  -0.0048  -0.0062   0.0067  -0.0026
   3 N   :1s    -0.0056  -0.0028  -0.0057   0.0096   0.0154  -0.0168   0.0052
   4 N   :1s    -0.0112  -0.0048   0.0103   0.0475   0.0413  -0.0480   0.0295
   5 N   :2px   -0.0389   0.0847   0.0617   0.0271  -0.0336   0.0082  -0.0021
   6 N   :2py    0.0927  -0.0679  -0.0782  -0.0302  -0.0098  -0.0066   0.0166
   7 N   :2pz   -0.0503   0.0494   0.0776  -0.0046  -0.0161  -0.0413  -0.0082
   8 N   :2px   -0.0631   0.1362   0.0983   0.0419  -0.0507   0.0122  -0.0028
   9 N   :2py    0.1474  -0.1077  -0.1263  -0.0466  -0.0150  -0.0103   0.0243
  10 N   :2pz   -0.0808   0.0786   0.1258  -0.0073  -0.0251  -0.0637  -0.0120
  11 N   :2px   -0.0443   0.0960   0.0743   0.0469  -0.0581   0.0024   0.0033
  12 N   :2py    0.1103  -0.0790  -0.0880  -0.0488  -0.0147  -0.0151   0.0350
  13 N   :2pz   -0.0633   0.0671   0.0872  -0.0044  -0.0181  -0.0666  -0.0208
  14 N   :3d2-   0.0105  -0.0120  -0.0115  -0.0034   0.0016   0.0002   0.0008
  15 N   :3d1-  -0.0072   0.0045   0.0064   0.0013   0.0005  -0.0003  -0.0011
  16 N   :3d0   -0.0008   0.0004   0.0027  -0.0013  -0.0002  -0.0020  -0.0002
  17 N   :3d1+   0.0016  -0.0048  -0.0033  -0.0012   0.0016   0.0001  -0.0005
  18 N   :3d2+  -0.0038   0.0015   0.0027   0.0007   0.0008   0.0004  -0.0008
  19 H   :1s     0.0692  -0.0442  -0.0648  -0.0106  -0.0059   0.0090   0.0088
  20 H   :1s     0.0917  -0.0634  -0.0916  -0.0142  -0.0054   0.0227   0.0055
  21 H   :1s     0.0182  -0.0050  -0.0288  -0.0017   0.0020  -0.0052  -0.0551
  22 H   :2px   -0.0075   0.0092   0.0082   0.0022  -0.0011   0.0006   0.0013
  23 H   :2py   -0.0085   0.0045   0.0088   0.0003   0.0002  -0.0036  -0.0035
  24 H   :2pz    0.0040  -0.0010  -0.0042  -0.0020  -0.0021  -0.0009   0.0016
  25 H   :1s    -0.0630   0.0758   0.0640   0.0231  -0.0090   0.0106  -0.0064
  26 H   :1s    -0.0872   0.1141   0.0893   0.0292  -0.0065   0.0251  -0.0225
  27 H   :1s    -0.0273   0.0230   0.0240  -0.0552  -0.0040  -0.0126   0.0289
  28 H   :2px    0.0096  -0.0099  -0.0077  -0.0051   0.0003  -0.0019   0.0016
  29 H   :2py   -0.0048   0.0088   0.0049   0.0039  -0.0016   0.0032  -0.0005
  30 H   :2pz   -0.0059   0.0067   0.0084   0.0035  -0.0019  -0.0014  -0.0013
  31 H   :1s     0.0156  -0.0482  -0.0400  -0.0064   0.0208   0.0066  -0.0007
  32 H   :1s     0.0214  -0.0602  -0.0616  -0.0082   0.0177  -0.0018   0.0055
  33 H   :1s     0.0169  -0.0196  -0.0028  -0.0051  -0.0434   0.0095  -0.0126
  34 H   :2px   -0.0024  -0.0050  -0.0055   0.0009   0.0062   0.0015  -0.0003
  35 H   :2py    0.0075  -0.0081  -0.0088  -0.0016   0.0060   0.0002   0.0010
  36 H   :2pz   -0.0020  -0.0027   0.0002  -0.0007   0.0059  -0.0013   0.0005
  37 H   :1s    -0.0235   0.0214   0.0428  -0.0078  -0.0095  -0.0216  -0.0030
  38 H   :1s    -0.0306   0.0259   0.0612  -0.0220  -0.0254  -0.0210  -0.0028
  39 H   :1s    -0.0076   0.0056   0.0151   0.0105   0.0056   0.0451   0.0072
  40 H   :2px   -0.0025   0.0049   0.0043   0.0010  -0.0014  -0.0041  -0.0011
  41 H   :2py    0.0052  -0.0044  -0.0064  -0.0009  -0.0000   0.0012   0.0008
  42 H   :2pz    0.0033  -0.0025  -0.0065   0.0022   0.0019   0.0098   0.0002
  43 O   :1s     0.0013  -0.0009  -0.0008   0.0002  -0.0001  -0.0003   0.0314
  44 O   :1s     0.0021  -0.0015  -0.0013   0.0004  -0.0002  -0.0005   0.0534
  45 O   :1s    -0.0063   0.0046   0.0039  -0.0014   0.0006   0.0012  -0.1618
  46 O   :1s    -0.0041   0.0031  -0.0007  -0.0021   0.0005   0.0058  -0.2521
  47 O   :2px   -0.0325   0.0873  -0.1003   0.0027  -0.0001  -0.0033   0.2058
  48 O   :2py   -0.0358   0.0920  -0.1049   0.0006   0.0015  -0.0014  -0.1057
  49 O   :2pz   -0.0058   0.0527  -0.0985  -0.0075  -0.0022   0.0100  -0.1116
  50 O   :2px   -0.0500   0.1336  -0.1535   0.0041   0.0001  -0.0049   0.3058
[...]

 Principal values of diagonalized transition strength matrix:

             a.u.               
 1      -0.00000000
 2      -0.00000000
 3       0.00035268

 Principal axis of diagonalized transition strength matrix:


               Column   1     Column   2     Column   3
       1       0.55854404    -0.30226262     0.77244150
       2      -0.54072019     0.57349831     0.61540342
       3       0.62900734     0.76140462    -0.15688456
    ==== End of matrix output ====


 CCSD   oscillator strength matrix for state nr. 13 of symmetry 1
 CCSD  excitation energy:15.20603309


               Column   1     Column   2     Column   3
       1       0.00213323     0.00169955    -0.00043327
       2       0.00169955     0.00135402    -0.00034518
       3      -0.00043327    -0.00034518     0.00008800
    ==== End of matrix output ====

 Principal values of diagonalized oscillator strength matrix:

             a.u.               
 1      -0.00000000
 2       0.00000000
 3       0.00357526

 Principal axis of diagonalized oscillator strength matrix:


               Column   1     Column   2     Column   3
       1       0.55854404    -0.30226262     0.77244150
       2      -0.54072019     0.57349831     0.61540342
       3       0.62900734     0.76140462    -0.15688456
    ==== End of matrix output ====


 CCSD  Transition strength matrix for state nr. 14 of symmetry 1
 CCSD  excitation energy:15.21532035

 Gauge: length

               Column   1     Column   2     Column   3
       1     1.379282D-05  -1.143919D-05  -1.457713D-05
       2    -1.143919D-05   9.480856D-06   1.208585D-05
       3    -1.457713D-05   1.208585D-05   1.540373D-05
    ==== End of matrix output ====

 Principal values of diagonalized transition strength matrix:

             a.u.               
 1      -0.00000000
 2      -0.00000000
 3       0.00003868

 Principal axis of diagonalized transition strength matrix:


               Column   1     Column   2     Column   3
       1       0.67678518     0.43051143    -0.59717813
       2       0.73329625    -0.46596304     0.49513135
       3       0.06510323     0.77300605     0.63104930
    ==== End of matrix output ====


 CCSD   oscillator strength matrix for state nr. 14 of symmetry 1
 CCSD  excitation energy:15.21532035


               Column   1     Column   2     Column   3
       1     1.399081D-04  -1.160340D-04  -1.478638D-04
       2    -1.160340D-04   9.616950D-05   1.225933D-04
       3    -1.478638D-04   1.225933D-04   1.562485D-04
    ==== End of matrix output ====

 Principal values of diagonalized oscillator strength matrix:

             a.u.               
 1      -0.00000004
 2       0.00000000
 3       0.00039236

 Principal axis of diagonalized oscillator strength matrix:


               Column   1     Column   2     Column   3
       1       0.67678518     0.43051143    -0.59717813
       2       0.73329625    -0.46596304     0.49513135
       3       0.06510323     0.77300605     0.63104930
    ==== End of matrix output ====


 CCSD  Transition strength matrix for state nr. 15 of symmetry 1
 CCSD  excitation energy:15.22341498

 Gauge: length

               Column   1     Column   2     Column   3
       1     3.675832D-05  -5.741418D-05   9.749940D-05
       2    -5.741418D-05   8.967687D-05  -1.522874D-04
       3     9.749940D-05  -1.522874D-04   2.586111D-04
    ==== End of matrix output ====

 Principal values of diagonalized transition strength matrix:

             a.u.               
 1      -0.00000000
 2      -0.00000000
 3       0.00038505

 Principal axis of diagonalized transition strength matrix:


               Column   1     Column   2     Column   3
       1       0.82191009    -0.47853833     0.30897391
       2       0.56905824     0.66578808    -0.48259605
       3       0.02522956     0.57247471     0.81953412
    ==== End of matrix output ====


 CCSD   oscillator strength matrix for state nr. 15 of symmetry 1
 CCSD  excitation energy:15.22341498


               Column   1     Column   2     Column   3
       1       0.00037306    -0.00058269     0.00098952
       2      -0.00058269     0.00091013    -0.00154556
       3       0.00098952    -0.00154556     0.00262463
    ==== End of matrix output ====

 Principal values of diagonalized oscillator strength matrix:

             a.u.               
 1      -0.00000000
 2       0.00000000
 3       0.00390781

 Principal axis of diagonalized oscillator strength matrix:


               Column   1     Column   2     Column   3
       1       0.82191009    -0.47853833     0.30897391
       2       0.56905824     0.66578808    -0.48259605
       3       0.02522956     0.57247471     0.81953412
    ==== End of matrix output ====

  Total time for    135 linear response residues:     112.29 seconds.
  

 *******************************************************************************
 *******************************************************************************
 *                                                                             *
 *                                                                             *
 *                   SUMMARY OF COUPLED CLUSTER CALCULATION                    *
 *                                                                             *
 *                                                                             *
 *******************************************************************************
 *******************************************************************************

                                                                                
                                                                                
            Total SCF   energy:                  -361.2106474622                
            Total RSTAR energy:                  -362.3597339882                
            Total CCSD  energy:                  -362.3596899642                
                                                                                
                                                                                
            Total SCF   energy:                  -361.2106474622                
            Total RSTAR energy:                  -362.3596899642                
            Total CCSD  energy:                  -362.3597327449                
                                                                                
                                                                                
            Total SCF   energy:                  -361.2106474622                
            Total RSTAR energy:                  -362.3597327449                
            Total CCSD  energy:                  -362.3597339361                
                                                                                
                                                                                
            Total SCF   energy:                  -361.2106474622                
            Total RSTAR energy:                  -362.3597339361                
            Total CCSD  energy:                  -362.3597339855                
                                                                                
                                                                                
            Total SCF   energy:                  -361.2106474622                
            Total RSTAR energy:                  -362.3597339855                
            Total CCSD  energy:                  -362.3597339881                
                                                                                
                                                                                
            Total SCF   energy:                  -361.2106474622                
            Total RSTAR energy:                  -362.3597339881                
            Total CCSD  energy:                  -362.3597339882                
            CCSD Total  energy:                  -362.7862422946                
            CCSD E(QM/MM)     :                    -0.4221565914                
                                                                                
                                                                                
                                                                                
 +=============================================================================+
 |  sym. | Exci.  |        CCSD       Excitation energies            | ||T1||  |
 |(spin, |        +------------------------------------------------------------+
 | spat) |        |     Hartree    |       eV.      |     cm-1       |    %    |
 +=============================================================================+
 | ^1A   |    1   |    14.9226022  |     406.06466  |   3275132.583  |  88.38  |
 | ^1A   |    2   |    14.9856365  |     407.77991  |   3288967.009  |  88.76  |
 | ^1A   |    3   |    14.9927883  |     407.97452  |   3290536.658  |  88.69  |
 | ^1A   |    4   |    15.0228389  |     408.79224  |   3297131.999  |  88.93  |
 | ^1A   |    5   |    15.0682340  |     410.02750  |   3307095.068  |  87.73  |
 | ^1A   |    6   |    15.0921406  |     410.67804  |   3312341.955  |  87.82  |
 | ^1A   |    7   |    15.1093785  |     411.14710  |   3316125.256  |  87.71  |
 | ^1A   |    8   |    15.1204765  |     411.44910  |   3318560.982  |  87.85  |
 | ^1A   |    9   |    15.1354651  |     411.85696  |   3321850.588  |  87.97  |
 | ^1A   |   10   |    15.1504480  |     412.26466  |   3325138.948  |  87.88  |
 | ^1A   |   11   |    15.1713232  |     412.83271  |   3329720.541  |  87.67  |
 | ^1A   |   12   |    15.1774557  |     412.99958  |   3331066.468  |  87.81  |
 | ^1A   |   13   |    15.2060331  |     413.77721  |   3337338.477  |  87.86  |
 | ^1A   |   14   |    15.2153204  |     414.02993  |   3339376.794  |  87.67  |
 | ^1A   |   15   |    15.2234150  |     414.25019  |   3341153.360  |  87.92  |
 +=============================================================================+
                                                                                
                                                                                
     Total energies in Hartree:                                                 
             1 ^1A       -347.4414835192                                        
             2 ^1A       -347.3784492349                                        
             3 ^1A       -347.3712973887                                        
             4 ^1A       -347.3412468023                                        
             5 ^1A       -347.2958517197                                        
             6 ^1A       -347.2719451432                                        
             7 ^1A       -347.2547071575                                        
             8 ^1A       -347.2436091705                                        
             9 ^1A       -347.2286206258                                        
            10 ^1A       -347.2136377529                                        
            11 ^1A       -347.1927624787                                        
            12 ^1A       -347.1866299874                                        
            13 ^1A       -347.1580526094                                        
            14 ^1A       -347.1487653521                                        
            15 ^1A       -347.1406707216                                        
                                                                                
                                                                                
 +=============================================================================+
 |  sym. | Exci.  |        CCSD       Length   Gauge Oscillator Strength       |
 |(spin, |        +------------------------------------------------------------+
 | spat) |        | Dipole Strength(a.u.) | Oscillator strength  | Direction   |
 +=============================================================================+
 | ^1A   |    1   |        0.0003114      |      0.0030981       |  (Y,Z)      |
 | ^1A   |    2   |        0.0042709      |      0.0426677       |  (Y,Z)      |
 | ^1A   |    3   |        0.0040038      |      0.0400185       |  (Y,Z)      |
 | ^1A   |    4   |        0.0037241      |      0.0372974       |  (Y,Z)      |
 | ^1A   |    5   |        0.0000261      |      0.0002625       |  (Y,Z)      |
 | ^1A   |    6   |        0.0000268      |      0.0002696       |  (Y,Z)      |
 | ^1A   |    7   |        0.0005306      |      0.0053446       |  (Y,Z)      |
 | ^1A   |    8   |        0.0007627      |      0.0076886       |  (Y,Z)      |
 | ^1A   |    9   |        0.0003384      |      0.0034148       |  (Y,Z)      |
 | ^1A   |   10   |        0.0004522      |      0.0045670       |  (Y,Z)      |
 | ^1A   |   11   |        0.0001376      |      0.0013920       |  (Y,Z)      |
 | ^1A   |   12   |        0.0004448      |      0.0045011       |  (Y,Z)      |
 | ^1A   |   13   |        0.0003527      |      0.0035753       |  (Y,Z)      |
 | ^1A   |   14   |        0.0000387      |      0.0003923       |  (Y,Z)      |
 | ^1A   |   15   |        0.0003850      |      0.0039078       |  (Y,Z)      |
 +=============================================================================+

  1 a.u. =        27.21138 eV.  
  1 a.u. =    219474.62934 cm-1.
  

 *******************************************************************************
 *******************************************************************************
 *                                                                             *
 *                                                                             *
 *                      END OF COUPLED CLUSTER CALCULATION                     *
 *                                                                             *
 *                                                                             *
 *******************************************************************************
 *******************************************************************************


 CPU and wall time for CC :  103502.449   10912.901

 
     Date and time (Linux)  : Sun Dec 16 07:19:29 2018
     Host name              : n-62-23-23                              


                      .-------------------------------------.
                      | End of Coupled Cluster Section (CC) |
                      `-------------------------------------'

  Total CPU  time used in DALTON:  28 hours 47 minutes 18 seconds
  Total wall time used in DALTON:   3 hours  2 minutes 27 seconds

 
     Date and time (Linux)  : Sun Dec 16 07:19:29 2018
     Host name              : n-62-23-23                              
  

 +---------------------------------------------------------+ 
 | List of selected calculated molecular properties (a.u.) | 
 +---------------------------------------------------------+ 

  Properties are read from unit number                      4

 CCSD       properties :
 #  1 1 CCSD/MM  Ground state Energy =    -362.7862422946
 #  2 1 E_QM/MM  Ground state Energy =      -0.4221565914
 #  3 1 Sy: 1 Sp: 1 Exc:  1 E_tot:   -347.4414835192 w:     14.9226021839 E_grs:   -362.3640857031
 #  4 1 Exctot   Excited state Energy =    -347.4414835192
 #  5 1 Sy: 1 Sp: 1 Exc:  2 E_tot:   -347.3784492349 w:     14.9856364683 E_grs:   -362.3640857031
 #  6 1 Exctot   Excited state Energy =    -347.3784492349
 #  7 1 Sy: 1 Sp: 1 Exc:  3 E_tot:   -347.3712973887 w:     14.9927883145 E_grs:   -362.3640857031
 #  8 1 Exctot   Excited state Energy =    -347.3712973887
 #  9 1 Sy: 1 Sp: 1 Exc:  4 E_tot:   -347.3412468023 w:     15.0228389008 E_grs:   -362.3640857031
 # 10 1 Exctot   Excited state Energy =    -347.3412468023
 # 11 1 Sy: 1 Sp: 1 Exc:  5 E_tot:   -347.2958517197 w:     15.0682339835 E_grs:   -362.3640857031
 # 12 1 Exctot   Excited state Energy =    -347.2958517197
 # 13 1 Sy: 1 Sp: 1 Exc:  6 E_tot:   -347.2719451432 w:     15.0921405600 E_grs:   -362.3640857031
 # 14 1 Exctot   Excited state Energy =    -347.2719451432
 # 15 1 Sy: 1 Sp: 1 Exc:  7 E_tot:   -347.2547071575 w:     15.1093785456 E_grs:   -362.3640857031
 # 16 1 Exctot   Excited state Energy =    -347.2547071575
 # 17 1 Sy: 1 Sp: 1 Exc:  8 E_tot:   -347.2436091705 w:     15.1204765327 E_grs:   -362.3640857031
 # 18 1 Exctot   Excited state Energy =    -347.2436091705
 # 19 1 Sy: 1 Sp: 1 Exc:  9 E_tot:   -347.2286206258 w:     15.1354650773 E_grs:   -362.3640857031
 # 20 1 Exctot   Excited state Energy =    -347.2286206258
 # 21 1 Sy: 1 Sp: 1 Exc: 10 E_tot:   -347.2136377529 w:     15.1504479503 E_grs:   -362.3640857031
 # 22 1 Exctot   Excited state Energy =    -347.2136377529
 # 23 1 Sy: 1 Sp: 1 Exc: 11 E_tot:   -347.1927624787 w:     15.1713232244 E_grs:   -362.3640857031
 # 24 1 Exctot   Excited state Energy =    -347.1927624787
 # 25 1 Sy: 1 Sp: 1 Exc: 12 E_tot:   -347.1866299874 w:     15.1774557157 E_grs:   -362.3640857031
 # 26 1 Exctot   Excited state Energy =    -347.1866299874
 # 27 1 Sy: 1 Sp: 1 Exc: 13 E_tot:   -347.1580526094 w:     15.2060330937 E_grs:   -362.3640857031
 # 28 1 Exctot   Excited state Energy =    -347.1580526094
 # 29 1 Sy: 1 Sp: 1 Exc: 14 E_tot:   -347.1487653521 w:     15.2153203510 E_grs:   -362.3640857031
 # 30 1 Exctot   Excited state Energy =    -347.1487653521
 # 31 1 Sy: 1 Sp: 1 Exc: 15 E_tot:   -347.1406707216 w:     15.2234149815 E_grs:   -362.3640857031
 # 32 1 Exctot   Excited state Energy =    -347.1406707216
 # 33 1 |<O|XDIPLEN |i(14.922602)>| =     0.01428368
 # 35 1 |<O|XDIPLEN |i(14.985636)>| =     0.03928649
 # 37 1 |<O|XDIPLEN |i(14.992788)>| =     0.00149616
 # 39 1 |<O|XDIPLEN |i(15.022839)>| =     0.04810177
 # 41 1 |<O|XDIPLEN |i(15.068234)>| =     0.00139389
 # 43 1 |<O|XDIPLEN |i(15.092141)>| =     0.00406499
 # 45 1 |<O|XDIPLEN |i(15.109379)>| =     0.01668422
 # 47 1 |<O|XDIPLEN |i(15.120477)>| =     0.01659741
 # 49 1 |<O|XDIPLEN |i(15.135465)>| =     0.00023511
 # 51 1 |<O|XDIPLEN |i(15.150448)>| =     0.01545261
 # 53 1 |<O|XDIPLEN |i(15.171323)>| =     0.00436915
 # 55 1 |<O|XDIPLEN |i(15.177456)>| =     0.00972981
 # 57 1 |<O|XDIPLEN |i(15.206033)>| =     0.01450630
 # 59 1 |<O|XDIPLEN |i(15.215320)>| =     0.00371387
 # 61 1 |<O|XDIPLEN |i(15.223415)>| =     0.00606286
 # 63 1 |<O|YDIPLEN |i(14.922602)>| =     0.00676158
 # 65 1 |<O|YDIPLEN |i(14.985636)>| =     0.04480626
 # 67 1 |<O|YDIPLEN |i(14.992788)>| =     0.02826485
 # 69 1 |<O|YDIPLEN |i(15.022839)>| =     0.03439868
 # 71 1 |<O|YDIPLEN |i(15.068234)>| =     0.00402750
 # 73 1 |<O|YDIPLEN |i(15.092141)>| =     0.00152656
 # 75 1 |<O|YDIPLEN |i(15.109379)>| =     0.00784067
 # 77 1 |<O|YDIPLEN |i(15.120477)>| =     0.01559745
 # 79 1 |<O|YDIPLEN |i(15.135465)>| =     0.01779623
 # 81 1 |<O|YDIPLEN |i(15.150448)>| =     0.00590074
 # 83 1 |<O|YDIPLEN |i(15.171323)>| =     0.01084738
 # 85 1 |<O|YDIPLEN |i(15.177456)>| =     0.00874542
 # 87 1 |<O|YDIPLEN |i(15.206033)>| =     0.01155715
 # 89 1 |<O|YDIPLEN |i(15.215320)>| =     0.00307910
 # 91 1 |<O|YDIPLEN |i(15.223415)>| =     0.00946979
 # 93 1 |<O|ZDIPLEN |i(14.922602)>| =     0.00785358
 # 95 1 |<O|ZDIPLEN |i(14.985636)>| =     0.02682961
 # 97 1 |<O|ZDIPLEN |i(14.992788)>| =     0.05659180
 # 99 1 |<O|ZDIPLEN |i(15.022839)>| =     0.01506728
 #101 1 |<O|ZDIPLEN |i(15.068234)>| =     0.00282318
 #103 1 |<O|ZDIPLEN |i(15.092141)>| =     0.00281793
 #105 1 |<O|ZDIPLEN |i(15.109379)>| =     0.01381142
 #107 1 |<O|ZDIPLEN |i(15.120477)>| =     0.01561974
 #109 1 |<O|ZDIPLEN |i(15.135465)>| =     0.00465401
 #111 1 |<O|ZDIPLEN |i(15.150448)>| =     0.01336278
 #113 1 |<O|ZDIPLEN |i(15.171323)>| =     0.00093296
 #115 1 |<O|ZDIPLEN |i(15.177456)>| =     0.01654370
 #117 1 |<O|ZDIPLEN |i(15.206033)>| =     0.00294623
 #119 1 |<O|ZDIPLEN |i(15.215320)>| =     0.00392476
 #121 1 |<O|ZDIPLEN |i(15.223415)>| =     0.01608139

 THE_END   
