

     ************************************************************************
     *************** Dalton - An Electronic Structure Program ***************
     ************************************************************************

    This is output from DALTON release Dalton2017.alpha (2016)
         ( Web site: http://daltonprogram.org )

   ----------------------------------------------------------------------------

    NOTE:
     
    Dalton is an experimental code for the evaluation of molecular
    properties using (MC)SCF, DFT, CI, and CC wave functions.
    The authors accept no responsibility for the performance of
    the code or for the correctness of the results.
     
    The code (in whole or part) is provided under a licence and
    is not to be reproduced for further distribution without
    the written permission of the authors or their representatives.
     
    See the home page "http://daltonprogram.org" for further information.
     
    If results obtained with this code are published,
    the appropriate citations would be both of:
     
       K. Aidas, C. Angeli, K. L. Bak, V. Bakken, R. Bast,
       L. Boman, O. Christiansen, R. Cimiraglia, S. Coriani,
       P. Dahle, E. K. Dalskov, U. Ekstroem,
       T. Enevoldsen, J. J. Eriksen, P. Ettenhuber, B. Fernandez,
       L. Ferrighi, H. Fliegl, L. Frediani, K. Hald, A. Halkier,
       C. Haettig, H. Heiberg, T. Helgaker, A. C. Hennum,
       H. Hettema, E. Hjertenaes, S. Hoest, I.-M. Hoeyvik,
       M. F. Iozzi, B. Jansik, H. J. Aa. Jensen, D. Jonsson,
       P. Joergensen, J. Kauczor, S. Kirpekar,
       T. Kjaergaard, W. Klopper, S. Knecht, R. Kobayashi, H. Koch,
       J. Kongsted, A. Krapp, K. Kristensen, A. Ligabue,
       O. B. Lutnaes, J. I. Melo, K. V. Mikkelsen, R. H. Myhre,
       C. Neiss, C. B. Nielsen, P. Norman, J. Olsen,
       J. M. H. Olsen, A. Osted, M. J. Packer, F. Pawlowski,
       T. B. Pedersen, P. F. Provasi, S. Reine, Z. Rinkevicius,
       T. A. Ruden, K. Ruud, V. Rybkin, P. Salek, C. C. M. Samson,
       A. Sanchez de Meras, T. Saue, S. P. A. Sauer,
       B. Schimmelpfennig, K. Sneskov, A. H. Steindal,
       K. O. Sylvester-Hvid, P. R. Taylor, A. M. Teale,
       E. I. Tellgren, D. P. Tew, A. J. Thorvaldsen, L. Thoegersen,
       O. Vahtras, M. A. Watson, D. J. D. Wilson, M. Ziolkowski
       and H. Agren,
       "The Dalton quantum chemistry program system",
       WIREs Comput. Mol. Sci. 2014, 4:269–284 (doi: 10.1002/wcms.1172)
     
    and
     
       Dalton, a Molecular Electronic Structure Program,
       Release Dalton2017.alpha (2016), see http://daltonprogram.org
   ----------------------------------------------------------------------------

    Authors in alphabetical order (major contribution(s) in parenthesis):

  Kestutis Aidas,           Vilnius University,           Lithuania   (QM/MM)
  Celestino Angeli,         University of Ferrara,        Italy       (NEVPT2)
  Keld L. Bak,              UNI-C,                        Denmark     (AOSOPPA, non-adiabatic coupling, magnetic properties)
  Vebjoern Bakken,          University of Oslo,           Norway      (DALTON; geometry optimizer, symmetry detection)
  Radovan Bast,             UiT The Arctic U. of Norway,  Norway      (DALTON installation and execution frameworks)
  Pablo Baudin,             University of Valencia,       Spain       (Cholesky excitation energies)
  Linus Boman,              NTNU,                         Norway      (Cholesky decomposition and subsystems)
  Ove Christiansen,         Aarhus University,            Denmark     (CC module)
  Renzo Cimiraglia,         University of Ferrara,        Italy       (NEVPT2)
  Sonia Coriani,            University of Trieste,        Italy       (CC module, MCD in RESPONS)
  Janusz Cukras,            University of Trieste,        Italy       (MChD in RESPONS)
  Paal Dahle,               University of Oslo,           Norway      (Parallelization)
  Erik K. Dalskov,          UNI-C,                        Denmark     (SOPPA)
  Thomas Enevoldsen,        Univ. of Southern Denmark,    Denmark     (SOPPA)
  Janus J. Eriksen,         Aarhus University,            Denmark     (Polarizable embedding model, TDA)
  Rasmus Faber,             University of Copenhagen,     Denmark     (Vib.avg. NMR with SOPPA, parallel AO-SOPPA)
  Berta Fernandez,          U. of Santiago de Compostela, Spain       (doublet spin, ESR in RESPONS)
  Lara Ferrighi,            Aarhus University,            Denmark     (PCM Cubic response)
  Heike Fliegl,             University of Oslo,           Norway      (CCSD(R12))
  Luca Frediani,            UiT The Arctic U. of Norway,  Norway      (PCM)
  Bin Gao,                  UiT The Arctic U. of Norway,  Norway      (Gen1Int library)
  Christof Haettig,         Ruhr-University Bochum,       Germany     (CC module)
  Kasper Hald,              Aarhus University,            Denmark     (CC module)
  Asger Halkier,            Aarhus University,            Denmark     (CC module)
  Frederik Beyer Hansen,    University of Copenhagen,     Denmark     (Parallel AO-SOPPA)
  Erik D. Hedegaard,        Univ. of Southern Denmark,    Denmark     (Polarizable embedding model, QM/MM)
  Hanne Heiberg,            University of Oslo,           Norway      (geometry analysis, selected one-electron integrals)
  Trygve Helgaker,          University of Oslo,           Norway      (DALTON; ABACUS, ERI, DFT modules, London, and much more)
  Alf Christian Hennum,     University of Oslo,           Norway      (Parity violation)
  Hinne Hettema,            University of Auckland,       New Zealand (quadratic response in RESPONS; SIRIUS supersymmetry)
  Eirik Hjertenaes,         NTNU,                         Norway      (Cholesky decomposition)
  Pi A. B. Haase,           University of Copenhagen,     Denmark     (Triplet AO-SOPPA)
  Maria Francesca Iozzi,    University of Oslo,           Norway      (RPA)
  Brano Jansik              Technical Univ. of Ostrava    Czech Rep.  (DFT cubic response)
  Hans Joergen Aa. Jensen,  Univ. of Southern Denmark,    Denmark     (DALTON; SIRIUS, RESPONS, ABACUS modules, London, and much more)
  Dan Jonsson,              UiT The Arctic U. of Norway,  Norway      (cubic response in RESPONS module)
  Poul Joergensen,          Aarhus University,            Denmark     (RESPONS, ABACUS, and CC modules)
  Maciej Kaminski,          University of Warsaw,         Poland      (CPPh in RESPONS)
  Joanna Kauczor,           Linkoeping University,        Sweden      (Complex polarization propagator (CPP) module)
  Sheela Kirpekar,          Univ. of Southern Denmark,    Denmark     (Mass-velocity & Darwin integrals)
  Wim Klopper,              KIT Karlsruhe,                Germany     (R12 code in CC, SIRIUS, and ABACUS modules)
  Stefan Knecht,            ETH Zurich,                   Switzerland (Parallel CI and MCSCF)
  Rika Kobayashi,           Australian National Univ.,    Australia   (DIIS in CC, London in MCSCF)
  Henrik Koch,              NTNU,                         Norway      (CC module, Cholesky decomposition)
  Jacob Kongsted,           Univ. of Southern Denmark,    Denmark     (Polarizable embedding model, QM/MM)
  Andrea Ligabue,           University of Modena,         Italy       (CTOCD, AOSOPPA)
  Nanna H. List             Univ. of Southern Denmark,    Denmark     (Polarizable embedding model)
  Ola B. Lutnaes,           University of Oslo,           Norway      (DFT Hessian)
  Juan I. Melo,             University of Buenos Aires,   Argentina   (LRESC, Relativistic Effects on NMR Shieldings)
  Kurt V. Mikkelsen,        University of Copenhagen,     Denmark     (MC-SCRF and QM/MM)
  Rolf H. Myhre,            NTNU,                         Norway      (Cholesky, subsystems and ECC2)
  Christian Neiss,          Univ. Erlangen-Nuernberg,     Germany     (CCSD(R12))
  Christian B. Nielsen,     University of Copenhagen,     Denmark     (QM/MM)
  Patrick Norman,           Linkoeping University,        Sweden      (Cubic response and complex frequency response in RESPONS)
  Jeppe Olsen,              Aarhus University,            Denmark     (SIRIUS CI/density modules)
  Jogvan Magnus H. Olsen,   Univ. of Southern Denmark,    Denmark     (Polarizable embedding model, QM/MM)
  Anders Osted,             Copenhagen University,        Denmark     (QM/MM)
  Martin J. Packer,         University of Sheffield,      UK          (SOPPA)
  Filip Pawlowski,          Kazimierz Wielki University,  Poland      (CC3)
  Morten N. Pedersen,       Univ. of Southern Denmark,    Denmark     (Polarizable embedding model)
  Thomas B. Pedersen,       University of Oslo,           Norway      (Cholesky decomposition)
  Patricio F. Provasi,      University of Northeastern,   Argentina   (Analysis of coupling constants in localized orbitals)
  Zilvinas Rinkevicius,     KTH Stockholm,                Sweden      (open-shell DFT, ESR)
  Elias Rudberg,            KTH Stockholm,                Sweden      (DFT grid and basis info)
  Torgeir A. Ruden,         University of Oslo,           Norway      (Numerical derivatives in ABACUS)
  Kenneth Ruud,             UiT The Arctic U. of Norway,  Norway      (DALTON; ABACUS magnetic properties and much more)
  Pawel Salek,              KTH Stockholm,                Sweden      (DALTON; DFT code)
  Claire C. M. Samson       University of Karlsruhe       Germany     (Boys localization, r12 integrals in ERI)
  Alfredo Sanchez de Meras, University of Valencia,       Spain       (CC module, Cholesky decomposition)
  Trond Saue,               Paul Sabatier University,     France      (direct Fock matrix construction)
  Stephan P. A. Sauer,      University of Copenhagen,     Denmark     (SOPPA(CCSD), SOPPA prop., AOSOPPA, vibrational g-factors)
  Bernd Schimmelpfennig,    Forschungszentrum Karlsruhe,  Germany     (AMFI module)
  Kristian Sneskov,         Aarhus University,            Denmark     (Polarizable embedding model, QM/MM)
  Arnfinn H. Steindal,      UiT The Arctic U. of Norway,  Norway      (parallel QM/MM, Polarizable embedding model)
  Casper Steinmann,         Univ. of Southern Denmark,    Denmark     (QFIT, Polarizable embedding model)
  K. O. Sylvester-Hvid,     University of Copenhagen,     Denmark     (MC-SCRF)
  Peter R. Taylor,          VLSCI/Univ. of Melbourne,     Australia   (Symmetry handling ABACUS, integral transformation)
  Andrew M. Teale,          University of Nottingham,     England     (DFT-AC, DFT-D)
  David P. Tew,             University of Bristol,        England     (CCSD(R12))
  Olav Vahtras,             KTH Stockholm,                Sweden      (triplet response, spin-orbit, ESR, TDDFT, open-shell DFT)
  David J. Wilson,          La Trobe University,          Australia   (DFT Hessian and DFT magnetizabilities)
  Hans Agren,               KTH Stockholm,                Sweden      (SIRIUS module, RESPONS, MC-SCRF solvation model)
 --------------------------------------------------------------------------------

     Date and time (Linux)  : Thu Dec 13 09:31:59 2018
     Host name              : n-62-23-17                              

 * Work memory size             :  1280000000 =  9.537 gigabytes.

 * Directories for basis set searches:
   1) /zhome/37/3/129401/NH3NH4/CCSD/AIMD_SAMPLING/nh4_4h2o_nd
   2) /zhome/9a/4/124800/source/dalton/build-mlcc/basis


Compilation information
-----------------------

 Who compiled             | rfaber
 Host                     | hpclogin1
 System                   | Linux-2.6.32-696.1.1.el6.x86_64
 CMake generator          | Unix Makefiles
 Processor                | x86_64
 64-bit integers          | ON
 MPI                      | OFF
 Fortran compiler         | /opt/intel/2016update2/compilers_and_libraries_201
                          | 6.2.181/linux/bin/intel64/ifort
 Fortran compiler version | ifort (IFORT) 16.0.2 20160204
 C compiler               | /opt/intel/2016update2/compilers_and_libraries_201
                          | 6.2.181/linux/bin/intel64/icc
 C compiler version       | icc (ICC) 16.0.2 20160204
 C++ compiler             | /opt/intel/2016update2/compilers_and_libraries_201
                          | 6.2.181/linux/bin/intel64/icpc
 C++ compiler version     | icpc (ICC) 16.0.2 20160204
 Static linking           | OFF
 Last Git revision        | bb4d1599ca5680a9f3980451fc8bbefdba436d59
 Git branch               | mlcc
 Configuration time       | 2017-06-13 16:11:03.928841


   Content of the .dal input file
 ----------------------------------

**DALTON
.RUN WAVE FUNCTIONS
*QMMM
.QMMM
**INTEGRALS
.DIPLEN
**WAVE FUNCTIONS
.CC
*PRINT
!To check the origin of excit
.PRINTL
   0 11
*SCF INP
.THRESH
1.0D-7
*ORBITAL INPUT
.MOSTART
 NEWORB
*CC INP
.RESTART
.CCSD
.THRLEQ
 1.0D-9
.THRENR
 1.0D-10
.FROIMP
4
0
.PRINT
 1
.MAX IT
 1200
.MAXRED
 1200
.MXLRV
1199
*CCSLV
.CCMM
.MXSLIT
200
.MXINIT
4 5
*CCEXCI
.NCCEXC
 30
.CVSEPARA
1
1
*CCLRSD
.DIPOLE
**END OF DALTON INPUT


   Content of the .mol file
 ----------------------------

ATOMBASIS


Atomtypes=4 Charge=1 Nosymm Angstrom
   7.00000    1    Basis=6-311G**
N          0.000000        0.000000        0.000000
   1.00000    4    Basis=6-311G**
H          0.324932        0.996290       -0.132193
H          0.724453       -0.678748       -0.431389
H         -0.901583       -0.124518       -0.481145
H         -0.123481       -0.191559        1.013876
   8.00000    4    Basis=6-311G**
O          0.634684        2.391035       -1.482966
O         -2.792350       -0.901044       -1.079535
O         -0.566211       -0.071323        2.839671
O          2.188368       -1.406339       -1.368614
   1.00000    8    Basis=6-311G**
H          0.294725        1.909457       -2.274933
H          1.554720        2.704999       -1.620410
H         -2.894708       -1.607774       -0.393249
H         -3.497009       -0.295808       -0.873620
H          0.129701       -0.510991        3.399358
H         -0.514427        0.865081        3.055230
H          2.349779       -2.363496       -1.265550
H          3.104991       -0.961816       -1.192458


       *******************************************************************
       *********** Output from DALTON general input processing ***********
       *******************************************************************

 --------------------------------------------------------------------------------
   Overall default print level:    0
   Print level for DALTON.STAT:    1

    HERMIT 1- and 2-electron integral sections will be executed
    "Old" integral transformation used (limited to max 255 basis functions)
    Wave function sections will be executed (SIRIUS module)
 --------------------------------------------------------------------------------


 Changes of defaults for *QMMM  :
 --------------------------------

 +------------------+
 |  WORD: | CHANGE: |
 +------------------+
 |   QMMM |       T |
 +------------------+
 


   ****************************************************************************
   *************** Output of molecule and basis set information ***************
   ****************************************************************************


    The two title cards from your ".mol" input:
    ------------------------------------------------------------------------
 1:                                                                         
 2:                                                                         
    ------------------------------------------------------------------------

  Coordinates are entered in Angstrom and converted to atomic units.
          - Conversion factor : 1 bohr = 0.52917721 A

  Atomic type no.    1
  --------------------
  Nuclear charge:   7.00000
  Number of symmetry independent centers:    1
  Number of basis sets to read;    1
  The basis set is "6-311G**" from the basis set library.
  Basis set file used for this atomic type with Z =   7 :
     "/zhome/9a/4/124800/source/dalton/build-mlcc/basis/6-311G**"

  Info about the basis set file: your basis has no documentation.
  Basis set: 6-311G**                                                                        

  Atomic type no.    2
  --------------------
  Nuclear charge:   1.00000
  Number of symmetry independent centers:    4
  Number of basis sets to read;    1
  The basis set is "6-311G**" from the basis set library.
  Basis set file used for this atomic type with Z =   1 :
     "/zhome/9a/4/124800/source/dalton/build-mlcc/basis/6-311G**"

  Info about the basis set file: your basis has no documentation.
  Basis set: 6-311G**                                                                        

  Atomic type no.    3
  --------------------
  Nuclear charge:   8.00000
  Number of symmetry independent centers:    4
  Number of basis sets to read;    1
  The basis set is "6-311G**" from the basis set library.
  Basis set file used for this atomic type with Z =   8 :
     "/zhome/9a/4/124800/source/dalton/build-mlcc/basis/6-311G**"

  Info about the basis set file: your basis has no documentation.
  Basis set: 6-311G**                                                                        

  Atomic type no.    4
  --------------------
  Nuclear charge:   1.00000
  Number of symmetry independent centers:    8
  Number of basis sets to read;    1
  The basis set is "6-311G**" from the basis set library.
  Basis set file used for this atomic type with Z =   1 :
     "/zhome/9a/4/124800/source/dalton/build-mlcc/basis/6-311G**"

  Info about the basis set file: your basis has no documentation.
  Basis set: 6-311G**                                                                        


                         SYMGRP: Point group information
                         -------------------------------

@    Point group: C1 


                                 Isotopic Masses
                                 ---------------

                           N          14.003074
                           H           1.007825
                           H           1.007825
                           H           1.007825
                           H           1.007825
                           O          15.994915
                           O          15.994915
                           O          15.994915
                           O          15.994915
                           H           1.007825
                           H           1.007825
                           H           1.007825
                           H           1.007825
                           H           1.007825
                           H           1.007825
                           H           1.007825
                           H           1.007825

                       Total mass:    90.076634 amu
                       Natural abundance:  98.500 %

 Center-of-mass coordinates (a.u.):   -0.168022   -0.001337   -0.391541


  Atoms and basis sets
  --------------------

  Number of atom types :    4
  Total number of atoms:   17

  label    atoms   charge   prim   cont     basis
  ----------------------------------------------------------------------
  N           1    7.0000    31    18      [11s5p1d|4s3p1d]                                   
  H           4    1.0000     8     6      [5s1p|3s1p]                                        
  O           4    8.0000    31    18      [11s5p1d|4s3p1d]                                   
  H           8    1.0000     8     6      [5s1p|3s1p]                                        
  ----------------------------------------------------------------------
  total:     17   51.0000   251   162
  ----------------------------------------------------------------------
  Spherical harmonic basis used.

  Threshold for neglecting AO integrals:  1.00D-12


  Cartesian Coordinates (a.u.)
  ----------------------------

  Total number of coordinates:   51
  N       :     1  x   0.0000000000    2  y   0.0000000000    3  z   0.0000000000
  H       :     4  x   0.6140324892    5  y   1.8827152411    6  z  -0.2498085656
  H       :     7  x   1.3690177604    8  y  -1.2826478279    9  z  -0.8152070633
  H       :    10  x  -1.7037449490   11  y  -0.2353049176   12  z  -0.9092322764
  H       :    13  x  -0.2333452716   14  y  -0.3619940468   15  z   1.9159479647
  O       :    16  x   1.1993789359   17  y   4.5184013053   18  z  -2.8023995927
  O       :    19  x  -5.2767767451   20  y  -1.7027263866   21  z  -2.0400254923
  O       :    22  x  -1.0699837190   23  y  -0.1347809364   24  z   5.3662004751
  O       :    25  x   4.1354161807   26  y  -2.6575955489   27  z  -2.5863056308
  H       :    28  x   0.5569495322   29  y   3.6083507775   30  z  -4.2990003227
  H       :    31  x   2.9379950011   32  y   5.1117072784   33  z  -3.0621311102
  H       :    34  x  -5.4702053318   35  y  -3.0382525309   36  z  -0.7431329089
  H       :    37  x  -6.6083892666   38  y  -0.5589961056   39  z  -1.6509025373
  H       :    40  x   0.2450993681   41  y  -0.9656330423   42  z   6.4238556208
  H       :    43  x  -0.9721261413   44  y   1.6347661659   45  z   5.7735479489
  H       :    46  x   4.4404387643   47  y  -4.4663601375   48  z  -2.3915428975
  H       :    49  x   5.8675826106   50  y  -1.8175688226   51  z  -2.2534190356

  Max    interatomic separation is    6.6432 Angstrom (   12.5538 Bohr)
  between atoms   17 and   13, "H     " and "H     ".

  Min HX interatomic separation is    0.9514 Angstrom (    1.7980 Bohr)

  Min YX interatomic separation is    2.8843 Angstrom (    5.4505 Bohr)


  Bond distances (Angstrom):
  --------------------------

                  atom 1     atom 2       distance
                  ------     ------       --------
  bond distance:  H          N            1.056243
  bond distance:  H          N            1.082417
  bond distance:  H          N            1.029494
  bond distance:  H          N            1.039176
  bond distance:  H          O            0.987270
  bond distance:  H          O            0.981800
  bond distance:  H          O            0.990421
  bond distance:  H          O            0.951449
  bond distance:  H          O            0.995415
  bond distance:  H          O            0.962289
  bond distance:  H          O            0.976128
  bond distance:  H          O            1.033842


  Bond angles (degrees):
  ----------------------

                  atom 1     atom 2     atom 3         angle
                  ------     ------     ------         -----
  bond angle:     H          N          H            109.615
  bond angle:     H          N          H            108.966
  bond angle:     H          N          H            109.423
  bond angle:     H          N          H            108.907
  bond angle:     H          N          H            110.657
  bond angle:     H          N          H            109.246
  bond angle:     H          O          H            111.492
  bond angle:     H          O          H            103.145
  bond angle:     H          O          H            105.441
  bond angle:     H          O          H            104.893




 Principal moments of inertia (u*A**2) and principal axes
 --------------------------------------------------------

   IA     353.615230          0.728849    0.165496   -0.664372
   IB     456.098278          0.674939   -0.010617    0.737797
   IC     499.759763         -0.115049    0.986153    0.119438


 Rotational constants
 --------------------

               A                   B                   C

           1429.1777           1108.0485           1011.2439 MHz
            0.047672            0.036961            0.033731 cm-1


@  Nuclear repulsion energy :  194.059158173126 Hartree


                     .---------------------------------------.
                     | Starting in Integral Section (HERMIT) |
                     `---------------------------------------'



 ***************************************************************************************
 ****************** Output from **INTEGRALS input processing (HERMIT) ******************
 ***************************************************************************************



    *************************************************************************
    ****************** Output from HERMIT input processing ******************
    *************************************************************************


 Default print level:        1

 * Nuclear model: Point charge

 Calculation of one- and two-electron Hamiltonian integrals.

 The following one-electron property integrals are calculated as requested:
          - overlap integrals
          - dipole length integrals

 Center of mass  (bohr):     -0.168021723502     -0.001336524600     -0.391541202475
 Operator center (bohr):      0.000000000000      0.000000000000      0.000000000000
 Gauge origin    (bohr):      0.000000000000      0.000000000000      0.000000000000
 Dipole origin   (bohr):      0.000000000000      0.000000000000      0.000000000000
 
  *********************************** 
  QMMM electrostatic potential: 
  Multipole order                                    0
  Isotropic polarization  
  *********************************** 
 
  ---------------- 
  QMMM information 
  ---------------- 
 
  MM coordinates in au 
  -------------------- 
     1     10.115513      9.310511     -8.066455
     2      8.860924     10.662379     -8.271804
     3      9.330585      7.661866     -8.404351
     4      6.122968      6.131438     -4.411037
     5      6.500512      7.411627     -3.195926
     6      7.537968      5.023956     -4.070992
     7      8.931978      9.481021     -1.047551
     8      9.567443      8.223087      0.300068
     9     10.478979     10.002020     -1.909682
    10      8.770763     -5.512102     -9.335568
    11      8.171002     -6.495762    -10.962598
    12     10.517135     -5.984192     -9.155969
    13      5.163956      2.384506      1.287491
    14      4.854642      4.214813      1.481404
    15      6.298555      2.272723      0.026910
    16    -10.136030     10.106754     -3.789757
    17    -10.931436      9.815113     -5.406858
    18     -9.494547     11.903052     -3.796883
    19     -0.235800     -7.517538      2.742699
    20     -0.232735     -9.400420      2.570657
    21      0.604264     -7.207124      4.448449
    22      6.531048     -0.701614    -10.245162
    23      5.075918     -1.001872     -9.046304
    24      7.608850     -2.158075    -10.050070
    25      7.277245     11.566662      4.562649
    26      8.505604     12.209339      3.327275
    27      5.874365     12.778045      4.521916
    28     -0.564675      6.230412     -8.620199
    29     -1.819793      6.594823     -9.977956
    30     -0.909846      4.418423     -8.243360
    31     -8.762184      1.617146     -0.957330
    32    -10.041232      1.476135      0.436245
    33     -8.455564      3.586328     -1.056559
    34      6.198339    -10.830863     -7.550926
    35      6.858030     -9.030914     -7.577471
    36      5.403596    -11.256745     -5.906972
    37      2.176742     -1.629649     -7.020283
    38      1.310894     -3.134343     -7.851158
    39      2.991017     -2.157837     -5.260484
    40    -10.684918      0.387793     -5.713579
    41    -10.230711     -1.066055     -6.743550
    42     -9.551706      0.429463     -4.200880
    43     10.608097     -6.371877     -3.376262
    44      9.740357     -6.067569     -4.922315
    45      9.887140     -5.293735     -1.971657
    46      9.936720      5.978264      2.735261
    47     11.671370      6.773920      2.720223
    48      9.337252      6.455100      4.488812
    49      6.654894     10.823629      9.989929
    50      6.765233      9.364797      8.849393
    51      6.304765     10.039890     11.607427
    52     -2.715888      7.965031     -2.318513
    53     -1.317065      6.741643     -2.508315
    54     -4.031668      6.851606     -1.553963
    55     11.005667      0.990997      2.464299
    56     10.984188      0.111534      4.173018
    57     10.247490      2.631525      2.644762
    58     -0.980267     -7.379569     -3.616620
    59     -0.100872     -7.679756     -2.016461
    60     -1.512064     -9.050815     -4.080642
    61     -5.969376      0.651283     11.590127
    62     -5.709333     -0.393908     13.128113
    63     -5.746670     -0.739639     10.291082
    64     -5.937943     -2.698289      7.383307
    65     -4.480261     -1.967384      6.495777
    66     -5.053969     -4.271949      8.010368
    67     -8.100863     -8.581399     -4.071897
    68     -7.188059     -8.674901     -5.750329
    69     -9.249899     -7.227318     -4.475368
    70     -2.492796     11.630008     -6.143027
    71     -2.955891     10.137844     -5.224237
    72     -1.272589     11.302936     -7.507141
    73    -10.675936     -5.702553      8.985521
    74    -12.392934     -6.304860      8.908199
    75    -10.931998     -3.926084      8.332513
    76     -3.694821     -7.161826      9.531741
    77     -4.583756     -8.304931      8.275056
    78     -4.437893     -7.633983     11.140973
    79      3.495438      7.170547      2.804306
    80      4.864367      8.274474      3.491859
    81      2.209394      8.317102      2.010194
    82     -4.633525     -2.730700     -7.166852
    83     -3.252750     -3.902540     -7.301516
    84     -5.121689     -2.674733     -5.325324
    85      5.935883     -0.819175      5.218573
    86      5.486500      0.464088      3.952508
    87      4.551687     -0.773661      6.481985
    88      0.537106    -10.948746    -10.443685
    89      0.828490    -11.515366    -12.206896
    90      2.237256    -11.123727     -9.825769
    91      2.514609     -2.297871      9.261474
    92      2.557238     -4.156018      8.784165
    93      3.434158     -2.209955     10.816624
    94      4.949760      3.365923     10.219142
    95      4.326144      4.454309     11.678413
    96      5.420579      1.732463     10.966583
    97     -7.950087      8.788313      7.840449
    98     -8.790246      9.612432      9.214144
    99     -6.724220      7.451113      8.533038
   100     -9.775636     -6.496576      4.075240
   101     -8.196275     -5.947896      3.207908
   102     -9.510273     -6.395754      5.948894
   103     -5.831801     -9.308196     -9.377044
   104     -7.239671    -10.265068    -10.180060
   105     -4.674202    -10.493972     -8.458465
   106      8.243579     -7.950316      9.184564
   107      7.903082     -9.709628      8.857065
   108      7.656715     -6.902999      7.675083
   109    -10.412567    -11.727703     11.319635
   110    -11.288617    -12.942897     12.493529
   111    -11.756975    -11.303147     10.143090
   112     -5.167450     -6.882126      0.741188
   113     -3.393767     -7.273040      0.874492
   114     -5.706928     -7.110140     -1.115428
   115     10.867297     -0.862012      7.179200
   116     11.392068      0.419563      8.458773
   117      8.994197     -0.913184      7.175596
   118      7.952912     -5.633121      4.355798
   119      9.635876     -4.956823      4.536641
   120      6.829328     -3.976173      4.373714
   121      0.372202     11.304351      8.010706
   122     -1.198060     11.929603      7.278074
   123      0.593945      9.637458      7.388504
   124      8.781387      0.066770     -1.973777
   125      9.728837      0.092147     -0.425583
   126     10.000661     -0.024788     -3.355623
   127     -3.735905      5.535293     10.342173
   128     -2.183065      5.252717      9.523364
   129     -4.294367      3.897473     10.975556
   130    -10.750261      2.925589     10.342084
   131    -11.641543      2.615209     11.981763
   132     -8.920620      2.723900     10.791376
   133      9.618464      3.854438     -8.209845
   134      8.413240      2.530931     -8.685971
   135     10.880746      2.807046     -7.248691
   136      0.979126      5.398674      7.088754
   137      1.785462      6.013105      5.481018
   138      2.278059      4.557343      8.126297
   139     -1.100586      1.822907     -6.489233
   140      0.379786      0.565928     -6.869546
   141     -2.758804      0.936561     -6.737133
   142      1.258337     -7.033691      7.420072
   143      1.795128     -8.801074      7.728585
   144     -0.361658     -6.809592      8.359944
   145     -0.089133     -5.659662     -8.647511
   146     -0.140667     -6.678305     -6.931124
   147      0.107136     -7.167013     -9.744926
   148     -9.524244     -4.266028     -9.229642
   149     -9.644334     -4.979220    -10.988272
   150     -8.016904     -5.192457     -8.603328
   151      4.470017      6.805106     -9.448143
   152      2.771911      7.050623     -9.001470
   153      5.317425      6.469542     -7.815452
   154      8.867702      5.948166      7.876239
   155      7.584777      4.699036      8.726515
   156     10.408848      4.972712      8.227512
   157      4.708311    -11.737922     -2.618144
   158      4.950708    -10.006200     -1.720688
   159      6.347758    -12.602113     -2.145032
   160      4.234067     -7.060716     -0.059876
   161      5.663262     -6.718736      1.248121
   162      2.728434     -7.303223      0.992771
   163     11.255256     -9.848115      1.803339
   164     11.219903     -9.236732      0.039766
   165     12.050971     -8.482763      2.836362
   166     -7.512999      6.603510     -1.080190
   167     -8.278336      7.759856     -2.470310
   168     -7.817608      7.569553      0.424077
   169     -4.478454    -10.684045      5.567224
   170     -5.531087    -12.124330      6.160738
   171     -5.363876    -10.092192      4.091193
   172     -8.938310      9.483555      2.724350
   173    -10.044410     11.013549      2.741720
   174     -8.730100      8.982186      4.506868
   175      0.679838     10.829548      0.583935
   176     -0.818953     10.130642     -0.317999
   177      1.871212     11.004945     -0.804810
 
  MM charges 
  ---------- 
     1     -0.674440
     2      0.337220
     3      0.337220
     4     -0.674440
     5      0.337220
     6      0.337220
     7     -0.674440
     8      0.337220
     9      0.337220
    10     -0.674440
    11      0.337220
    12      0.337220
    13     -0.674440
    14      0.337220
    15      0.337220
    16     -0.674440
    17      0.337220
    18      0.337220
    19     -0.674440
    20      0.337220
    21      0.337220
    22     -0.674440
    23      0.337220
    24      0.337220
    25     -0.674440
    26      0.337220
    27      0.337220
    28     -0.674440
    29      0.337220
    30      0.337220
    31     -0.674440
    32      0.337220
    33      0.337220
    34     -0.674440
    35      0.337220
    36      0.337220
    37     -0.674440
    38      0.337220
    39      0.337220
    40     -0.674440
    41      0.337220
    42      0.337220
    43     -0.674440
    44      0.337220
    45      0.337220
    46     -0.674440
    47      0.337220
    48      0.337220
    49     -0.674440
    50      0.337220
    51      0.337220
    52     -0.674440
    53      0.337220
    54      0.337220
    55     -0.674440
    56      0.337220
    57      0.337220
    58     -0.674440
    59      0.337220
    60      0.337220
    61     -0.674440
    62      0.337220
    63      0.337220
    64     -0.674440
    65      0.337220
    66      0.337220
    67     -0.674440
    68      0.337220
    69      0.337220
    70     -0.674440
    71      0.337220
    72      0.337220
    73     -0.674440
    74      0.337220
    75      0.337220
    76     -0.674440
    77      0.337220
    78      0.337220
    79     -0.674440
    80      0.337220
    81      0.337220
    82     -0.674440
    83      0.337220
    84      0.337220
    85     -0.674440
    86      0.337220
    87      0.337220
    88     -0.674440
    89      0.337220
    90      0.337220
    91     -0.674440
    92      0.337220
    93      0.337220
    94     -0.674440
    95      0.337220
    96      0.337220
    97     -0.674440
    98      0.337220
    99      0.337220
   100     -0.674440
   101      0.337220
   102      0.337220
   103     -0.674440
   104      0.337220
   105      0.337220
   106     -0.674440
   107      0.337220
   108      0.337220
   109     -0.674440
   110      0.337220
   111      0.337220
   112     -0.674440
   113      0.337220
   114      0.337220
   115     -0.674440
   116      0.337220
   117      0.337220
   118     -0.674440
   119      0.337220
   120      0.337220
   121     -0.674440
   122      0.337220
   123      0.337220
   124     -0.674440
   125      0.337220
   126      0.337220
   127     -0.674440
   128      0.337220
   129      0.337220
   130     -0.674440
   131      0.337220
   132      0.337220
   133     -0.674440
   134      0.337220
   135      0.337220
   136     -0.674440
   137      0.337220
   138      0.337220
   139     -0.674440
   140      0.337220
   141      0.337220
   142     -0.674440
   143      0.337220
   144      0.337220
   145     -0.674440
   146      0.337220
   147      0.337220
   148     -0.674440
   149      0.337220
   150      0.337220
   151     -0.674440
   152      0.337220
   153      0.337220
   154     -0.674440
   155      0.337220
   156      0.337220
   157     -0.674440
   158      0.337220
   159      0.337220
   160     -0.674440
   161      0.337220
   162      0.337220
   163     -0.674440
   164      0.337220
   165      0.337220
   166     -0.674440
   167      0.337220
   168      0.337220
   169     -0.674440
   170      0.337220
   171      0.337220
   172     -0.674440
   173      0.337220
   174      0.337220
   175     -0.674440
   176      0.337220
   177      0.337220
 
  MM isotropic polarizabilities in au 
  ----------------------------------- 
     1      5.739350
     2      2.308390
     3      2.308390
     4      5.739350
     5      2.308390
     6      2.308390
     7      5.739350
     8      2.308390
     9      2.308390
    10      5.739350
    11      2.308390
    12      2.308390
    13      5.739350
    14      2.308390
    15      2.308390
    16      5.739350
    17      2.308390
    18      2.308390
    19      5.739350
    20      2.308390
    21      2.308390
    22      5.739350
    23      2.308390
    24      2.308390
    25      5.739350
    26      2.308390
    27      2.308390
    28      5.739350
    29      2.308390
    30      2.308390
    31      5.739350
    32      2.308390
    33      2.308390
    34      5.739350
    35      2.308390
    36      2.308390
    37      5.739350
    38      2.308390
    39      2.308390
    40      5.739350
    41      2.308390
    42      2.308390
    43      5.739350
    44      2.308390
    45      2.308390
    46      5.739350
    47      2.308390
    48      2.308390
    49      5.739350
    50      2.308390
    51      2.308390
    52      5.739350
    53      2.308390
    54      2.308390
    55      5.739350
    56      2.308390
    57      2.308390
    58      5.739350
    59      2.308390
    60      2.308390
    61      5.739350
    62      2.308390
    63      2.308390
    64      5.739350
    65      2.308390
    66      2.308390
    67      5.739350
    68      2.308390
    69      2.308390
    70      5.739350
    71      2.308390
    72      2.308390
    73      5.739350
    74      2.308390
    75      2.308390
    76      5.739350
    77      2.308390
    78      2.308390
    79      5.739350
    80      2.308390
    81      2.308390
    82      5.739350
    83      2.308390
    84      2.308390
    85      5.739350
    86      2.308390
    87      2.308390
    88      5.739350
    89      2.308390
    90      2.308390
    91      5.739350
    92      2.308390
    93      2.308390
    94      5.739350
    95      2.308390
    96      2.308390
    97      5.739350
    98      2.308390
    99      2.308390
   100      5.739350
   101      2.308390
   102      2.308390
   103      5.739350
   104      2.308390
   105      2.308390
   106      5.739350
   107      2.308390
   108      2.308390
   109      5.739350
   110      2.308390
   111      2.308390
   112      5.739350
   113      2.308390
   114      2.308390
   115      5.739350
   116      2.308390
   117      2.308390
   118      5.739350
   119      2.308390
   120      2.308390
   121      5.739350
   122      2.308390
   123      2.308390
   124      5.739350
   125      2.308390
   126      2.308390
   127      5.739350
   128      2.308390
   129      2.308390
   130      5.739350
   131      2.308390
   132      2.308390
   133      5.739350
   134      2.308390
   135      2.308390
   136      5.739350
   137      2.308390
   138      2.308390
   139      5.739350
   140      2.308390
   141      2.308390
   142      5.739350
   143      2.308390
   144      2.308390
   145      5.739350
   146      2.308390
   147      2.308390
   148      5.739350
   149      2.308390
   150      2.308390
   151      5.739350
   152      2.308390
   153      2.308390
   154      5.739350
   155      2.308390
   156      2.308390
   157      5.739350
   158      2.308390
   159      2.308390
   160      5.739350
   161      2.308390
   162      2.308390
   163      5.739350
   164      2.308390
   165      2.308390
   166      5.739350
   167      2.308390
   168      2.308390
   169      5.739350
   170      2.308390
   171      2.308390
   172      5.739350
   173      2.308390
   174      2.308390
   175      5.739350
   176      2.308390
   177      2.308390


     ************************************************************************
     ************************** Output from HERINT **************************
     ************************************************************************



                      Nuclear contribution to dipole moments
                      --------------------------------------

                 au               Debye          C m (/(10**-30)

      x     -7.05241821       -17.92545796       -59.79289164
      y     -0.30283050        -0.76971831        -2.56750391
      z    -18.76126711       -47.68638140      -159.06464666


  Time used in OVERLAP    is       0.70 seconds
  Time used in POPOVLP    is       1.74 seconds
  Time used in DIPLEN     is       2.32 seconds
  Time used in QUADRUP    is       1.87 seconds
  Time used in KINENE     is       1.99 seconds

 Threshold for neglecting two-electron integrals:  1.00D-12
 HERMIT - Number of two-electron integrals written:    34053462 ( 39.1% )
 HERMIT - Megabytes written:                            389.929

  Time used in TWOINT     is      21.62 seconds
  Total CPU  time used in HERMIT:  30.31 seconds
  Total wall time used in HERMIT:  40.71 seconds


                        .----------------------------------.
                        | End of Integral Section (HERMIT) |
                        `----------------------------------'



                   .--------------------------------------------.
                   | Starting in Wave Function Section (SIRIUS) |
                   `--------------------------------------------'

NCCEXCI for singlet:   30
 CCSD_INPUT: core-val requested
 Requested number of core orbs per sym
                     1
 Indices of requested core orbs
                     1
* Read MO coefficients from SIRIUS.RST with label "NEWORB  " and header info: 11Dec18  FOCKDIIS

 **********************************************************************
 *SIRIUS* a direct, restricted step, second order MCSCF program       *
 **********************************************************************

 
     Date and time (Linux)  : Thu Dec 13 09:32:51 2018
     Host name              : n-62-23-17                              

 Title lines from ".mol" input file:
                                                                             
                                                                             

 Print level on unit LUPRI =   2 is   0
 Print level on unit LUW4  =   2 is  11

@    (Integral direct) CC calculation.

@    This is a combination run starting with
@              a restricted, closed shell Hartree-Fock calculation


 Initial molecular orbitals are obtained according to
 ".MOSTART NEWORB" input option

@    QM part is embedded in an environment :

@         Model: QMMM

     Wave function specification
     ============================

     For the specification of the Coupled Cluster: see later.

@    Wave function type        --- CC ---
@    Number of closed shell electrons          50
@    Number of electrons in active shells       0
@    Total charge of the molecule               1

@    Spin multiplicity and 2 M_S                1         0
@    Total number of symmetries                 1 (point group: C1 )
@    Reference state symmetry                   1 (irrep name : A  )

     Orbital specifications
     ======================
@    Abelian symmetry species          All |    1
@                                          |  A  
                                       --- |  ---
@    Occupied SCF orbitals              25 |   25
@    Secondary orbitals                137 |  137
@    Total number of orbitals          162 |  162
@    Number of basis functions         162 |  162

     Optimization information
     ========================
@    Number of configurations                 1
@    Number of orbital rotations           3425
     ------------------------------------------
@    Total number of variables             3426

     Maximum number of Fock   iterations      0
     Maximum number of DIIS   iterations     60
     Maximum number of QC-SCF iterations     60
     Threshold for SCF convergence     1.00D-07


 Changes of defaults for CC:
 ---------------------------


 -Implicit frozen core calculation
 -Excitation energies calculated
 -One-photon absorption strengths will be calculated
 -Oscillator strengths calculated
  
* Read MO coefficients from SIRIUS.RST with label "NEWORB  " and header info: 13Dec18  REORTHO 


 ***********************************************
 ***** DIIS acceleration of SCF iterations *****
 ***********************************************

 C1-DIIS algorithm; max error vectors =    8
 -----------------------------------------------------------------------------

 *** DIIS iteration number    1
 RDSUPM called. NFMAT, ISYMDM(1:NFMAT)                     1
                     1

Calculating AOSUPINT
     (Precalculated two-electron integrals are transformed to P-supermatrix elements.
      Threshold for discarding integrals :  1.00D-12 )
  CPU  time used in FORMSUP    is   6.98 seconds
  WALL time used in FORMSUP    is  5 minutes 22 seconds

 ITDIIS, energy, error norm, change in energy, scr.thr., difden:
@ DIIS iter.   1    -361.207919206        5.60945D-08   -3.61D+02  -20    F

@ *** DIIS converged in   1 iterations !
@     Converged SCF energy, gradient:   -361.207919205915    5.61D-08
    - total time used in SIRFCK :              0.00 seconds


 *** SCF orbital energy analysis ***
    (incl. solvent contribution)

 Number of electrons :   50
 Orbital occupations :   25

 Sym       Hartree-Fock orbital energies

1 A     -20.68109328   -20.67996896   -20.62605585   -20.61417539   -15.73804056
         -1.46333161    -1.45105743    -1.41339954    -1.39355815    -1.33769678
         -0.82553426    -0.81606469    -0.80752006    -0.80056402    -0.80002490
         -0.76841922    -0.76618805    -0.70464302    -0.69744405    -0.66031130
         -0.63670147    -0.63202905    -0.62869420    -0.58310105    -0.57046649
          0.03940835     0.06646826     0.09896948     0.11968167     0.13933416
          0.16427338     0.18365781     0.19202607     0.21877777     0.25151416
          0.26223758     0.27720231     0.33348201     0.34471362     0.37578041
          0.45077166     0.45681276     0.49463181     0.50266363     0.51922115
          0.53236046     0.56160139     0.58593984     0.59419305     0.79267523
          0.81771658     0.82620106     0.85859856     0.88004836     0.92180134
          0.93763732     0.97479902     0.98700823     0.99363142     1.02903457
          1.03403316     1.04989655     1.05781913     1.06697101     1.14481237
          1.16584513     1.17733237     1.27223378     1.29000092     1.35174576
          1.39229880     1.39619069     1.40387866     1.40984718     1.41609355
          1.43613426     1.45489196     1.46522834     1.54585665     1.58224078
          1.60349601     1.61956127     1.63123051     1.65588603     1.67394570
          1.79100143     1.79873239     1.81579830     1.84620973     1.88330501
          1.97125999     2.01812511     2.08199530     2.09588970     2.11586749
          2.17192112     2.22333627     2.24390182     2.25113225     2.25770938
          2.27442692     2.29249007     2.31082215     2.35383386     2.43417387
          2.55136409     2.59804235     2.60714962     2.61739180     2.64215249
          2.65558825     2.67700423     2.70154351     2.74105647     2.74817012
          2.77403063     2.87976031     2.90652742     3.15039276     3.20158703
          3.24657252     3.28833184     3.33981466     3.35631654     3.37933185
          3.39175389     3.40527072     3.41187540     3.46477161     3.48142799
          3.52993735     3.56419539     3.58735799     3.63004525     3.85622691
          3.88134462     3.92879818     3.99331515     4.09371452     4.11428422
          4.13595294     4.18666203     4.98275359     5.01762307     5.06445751
          5.22943585     5.26650841     5.31521901     5.33412832     5.68818574
          5.71168312     5.74044405     5.77417007     5.94571575     6.01144137
          6.07778037     6.10160061    36.84802576    51.39138664    51.41386670
         51.46521023    51.46872921

    E(LUMO) :     0.03940835 au (symmetry 1)
  - E(HOMO) :    -0.57046649 au (symmetry 1)
  ------------------------------------------
    gap     :     0.60987484 au

 Deviation from canonical Hartree-Fock orbitals :
 Largest off-diagonal Fock matrix element is  8.92D-09

 --- Writing SIRIFC interface file

 CPU and wall time for SCF :     134.287     420.661


                       .-----------------------------------.
                       | --- Final results from SIRIUS --- |
                       `-----------------------------------'


@    Spin multiplicity:           1
@    Spatial symmetry:            1 ( irrep  A   in C1  )
@    Total charge of molecule:    1

     QM/MM "QMMM" calculation converged :

     Charge contribution:         -0.147442620559
     Dipole contribution:          0.000000000000
     Quadrupole contribution:      0.000000000000
     Electronic Pol. energy:       0.670333828392
     Nuclear pol. energy:         -0.717859870331
     Multipole Pol. energy:       -0.216146712928
     Total QM/MM energy:          -0.411115375425

@    Final HF energy:            -361.207919205915                 
@    Nuclear repulsion:           194.059158173126
@    Electronic energy:          -554.855962003616

@    Final gradient norm:           0.000000056095

 
     Date and time (Linux)  : Thu Dec 13 09:39:54 2018
     Host name              : n-62-23-17                              

File label for MO orbitals:  13Dec18   FOCKDIIS

 Molecular orbitals for symmetry species 1  (A  )
 ------------------------------------------------

    Orbital         1        2        3        4        5        6        7
   1 N   :1s     0.0000   0.0000   0.0000   0.0000  -0.5576  -0.0048   0.0044
   2 N   :1s    -0.0000  -0.0000  -0.0000  -0.0000  -0.4682  -0.0078   0.0072
   3 N   :1s     0.0001   0.0001   0.0000   0.0000  -0.0053   0.0202  -0.0186
   4 N   :1s    -0.0003  -0.0004  -0.0003  -0.0002   0.0014   0.0169  -0.0165
   5 N   :2px   -0.0000   0.0000   0.0000  -0.0000   0.0001  -0.0004  -0.0013
   6 N   :2py    0.0000   0.0000  -0.0000  -0.0000   0.0001  -0.0002   0.0011
   7 N   :2pz    0.0000  -0.0000   0.0000  -0.0000  -0.0000   0.0022   0.0008
   8 N   :2px    0.0000  -0.0000  -0.0000   0.0000   0.0000  -0.0006  -0.0013
   9 N   :2py   -0.0000  -0.0000  -0.0000   0.0000  -0.0000  -0.0002   0.0013
  10 N   :2pz   -0.0000   0.0001  -0.0000   0.0000  -0.0000   0.0028   0.0009
  11 N   :2px   -0.0001   0.0000   0.0002  -0.0000   0.0000  -0.0011  -0.0042
  12 N   :2py    0.0001   0.0001   0.0000  -0.0001  -0.0000  -0.0010   0.0031
  13 N   :2pz    0.0001  -0.0002   0.0001  -0.0000   0.0000   0.0055   0.0023
  14 N   :3d2-  -0.0000   0.0000  -0.0000   0.0000  -0.0000   0.0000   0.0004
  15 N   :3d1-   0.0000  -0.0000  -0.0000   0.0000   0.0000  -0.0001  -0.0003
  16 N   :3d0   -0.0000   0.0000   0.0000  -0.0000  -0.0000   0.0007   0.0000
  17 N   :3d1+  -0.0000   0.0000   0.0000   0.0000  -0.0000  -0.0002   0.0004
  18 N   :3d2+  -0.0000  -0.0000   0.0000   0.0000  -0.0000   0.0000  -0.0001
  19 H   :1s     0.0000  -0.0000  -0.0000  -0.0000  -0.0002   0.0028  -0.0026
  20 H   :1s     0.0000   0.0001   0.0001   0.0001  -0.0003   0.0015  -0.0018
  21 H   :1s    -0.0000  -0.0001  -0.0001   0.0002  -0.0001   0.0029  -0.0002
  22 H   :2px    0.0000  -0.0000  -0.0000   0.0000   0.0000  -0.0003   0.0004
  23 H   :2py   -0.0000  -0.0000  -0.0000   0.0000   0.0001  -0.0008   0.0007
  24 H   :2pz   -0.0000   0.0000  -0.0000  -0.0000  -0.0000  -0.0000  -0.0002
  25 H   :1s    -0.0000  -0.0000  -0.0000   0.0000  -0.0002   0.0026  -0.0081
  26 H   :1s     0.0001   0.0001   0.0001   0.0000  -0.0003   0.0012  -0.0073
  27 H   :1s     0.0004  -0.0001  -0.0001  -0.0000  -0.0001   0.0021   0.0065
  28 H   :2px    0.0000  -0.0000  -0.0000   0.0000   0.0001  -0.0005  -0.0000
  29 H   :2py   -0.0000   0.0000   0.0000   0.0000  -0.0001   0.0005  -0.0000
  30 H   :2pz   -0.0000   0.0000  -0.0000   0.0000  -0.0000   0.0001  -0.0002
  31 H   :1s    -0.0000  -0.0000  -0.0000   0.0000  -0.0002   0.0029  -0.0027
  32 H   :1s     0.0001   0.0001   0.0001   0.0000  -0.0003   0.0017  -0.0015
  33 H   :1s    -0.0001  -0.0000   0.0003  -0.0000  -0.0002   0.0006  -0.0019
  34 H   :2px    0.0000   0.0000  -0.0000  -0.0000  -0.0001   0.0008  -0.0005
  35 H   :2py   -0.0000  -0.0000  -0.0000   0.0000  -0.0000   0.0002  -0.0003
  36 H   :2pz    0.0000   0.0000   0.0000   0.0000  -0.0000   0.0002  -0.0005
  37 H   :1s    -0.0000  -0.0000  -0.0000  -0.0000  -0.0002   0.0089  -0.0027
  38 H   :1s     0.0001   0.0002   0.0001   0.0001  -0.0003   0.0074  -0.0004
  39 H   :1s    -0.0001   0.0004  -0.0001  -0.0001  -0.0002  -0.0056  -0.0035
  40 H   :2px    0.0000  -0.0000  -0.0000   0.0000  -0.0000   0.0001   0.0001
  41 H   :2py   -0.0000   0.0000   0.0000   0.0000  -0.0000   0.0002  -0.0003
  42 H   :2pz   -0.0000   0.0001  -0.0000  -0.0000   0.0001  -0.0002   0.0005
  43 O   :1s    -0.0000  -0.0000  -0.0000   0.5514  -0.0000  -0.0003   0.0006
  44 O   :1s    -0.0000  -0.0000  -0.0000   0.4717  -0.0000  -0.0005   0.0009
  45 O   :1s     0.0000  -0.0000  -0.0000   0.0056  -0.0000   0.0016  -0.0027
  46 O   :1s    -0.0000   0.0000   0.0000  -0.0005   0.0000   0.0006  -0.0024
  47 O   :2px   -0.0000   0.0000   0.0000   0.0008  -0.0000   0.0000  -0.0001
  48 O   :2py    0.0000  -0.0000  -0.0000  -0.0002  -0.0000  -0.0001   0.0001
  49 O   :2pz   -0.0000   0.0000  -0.0000  -0.0011   0.0000  -0.0000   0.0000
  50 O   :2px    0.0000  -0.0000   0.0000  -0.0003   0.0000   0.0000  -0.0001
  51 O   :2py   -0.0000   0.0000   0.0000   0.0000  -0.0000  -0.0002   0.0000
  52 O   :2pz    0.0000  -0.0000   0.0000   0.0004  -0.0000   0.0001   0.0002
  53 O   :2px   -0.0000   0.0000   0.0000   0.0001   0.0000  -0.0000  -0.0006
  54 O   :2py    0.0000  -0.0000   0.0000   0.0001  -0.0000   0.0002   0.0005
  55 O   :2pz    0.0000   0.0000  -0.0000  -0.0001   0.0000  -0.0004   0.0003
  61 O   :1s    -0.0000  -0.0000   0.5514   0.0000  -0.0000  -0.0003   0.0003
  62 O   :1s     0.0000  -0.0000   0.4717   0.0000   0.0000  -0.0005   0.0006
  63 O   :1s    -0.0000   0.0000   0.0056  -0.0000  -0.0000   0.0016  -0.0016
  64 O   :1s     0.0000  -0.0000  -0.0005   0.0000   0.0001   0.0010  -0.0007
  65 O   :2px    0.0000  -0.0000  -0.0010   0.0000   0.0000  -0.0000   0.0000
  66 O   :2py    0.0000  -0.0000  -0.0002   0.0000   0.0000   0.0000  -0.0000
  67 O   :2pz    0.0000  -0.0000   0.0011   0.0000  -0.0000   0.0001  -0.0001
  68 O   :2px   -0.0000   0.0000   0.0003  -0.0000  -0.0000  -0.0000  -0.0001
  69 O   :2py   -0.0000   0.0000   0.0001  -0.0000  -0.0000  -0.0000  -0.0001
  70 O   :2pz   -0.0000   0.0000  -0.0004  -0.0000   0.0000   0.0001  -0.0002
  71 O   :2px    0.0000   0.0000  -0.0001   0.0000   0.0000  -0.0002   0.0001
  72 O   :2py    0.0000  -0.0000  -0.0001   0.0000   0.0000   0.0002   0.0002
  73 O   :2pz    0.0000  -0.0000   0.0000   0.0000   0.0000   0.0003   0.0002
  75 O   :3d1-   0.0000   0.0000   0.0001  -0.0000  -0.0000  -0.0000   0.0000
  79 O   :1s    -0.0000   0.5515   0.0000   0.0000  -0.0000  -0.1142  -0.0018
  80 O   :1s    -0.0000   0.4717   0.0000   0.0000   0.0000  -0.1907  -0.0030
  81 O   :1s    -0.0000   0.0055  -0.0000  -0.0000  -0.0000   0.5419   0.0085
  82 O   :1s     0.0000  -0.0006   0.0000   0.0000   0.0001   0.4034   0.0069
  83 O   :2px   -0.0000   0.0010   0.0000  -0.0000   0.0000   0.0198   0.0003
  84 O   :2py   -0.0000   0.0007   0.0000   0.0000  -0.0000   0.0167   0.0003
  85 O   :2pz   -0.0000   0.0010  -0.0000  -0.0000  -0.0000   0.0187   0.0004
  86 O   :2px    0.0000  -0.0004  -0.0000   0.0000   0.0000   0.0347   0.0005
  87 O   :2py    0.0000  -0.0002  -0.0000  -0.0000   0.0000   0.0282   0.0005
  88 O   :2pz    0.0000  -0.0004   0.0000   0.0000   0.0000   0.0330   0.0008
  89 O   :2px   -0.0000  -0.0000   0.0000  -0.0000   0.0000   0.0156   0.0003
  90 O   :2py   -0.0000   0.0000  -0.0000  -0.0000  -0.0000   0.0079  -0.0000
  91 O   :2pz   -0.0000   0.0002  -0.0000  -0.0000  -0.0001   0.0059  -0.0004
  92 O   :3d2-  -0.0000   0.0001  -0.0000   0.0000  -0.0000  -0.0018  -0.0000
  93 O   :3d1-  -0.0000   0.0000  -0.0000  -0.0000  -0.0000   0.0006   0.0000
  94 O   :3d0   -0.0000   0.0000  -0.0000  -0.0000   0.0000  -0.0027  -0.0000
  95 O   :3d1+  -0.0000  -0.0001   0.0000  -0.0000   0.0000   0.0051   0.0001
  96 O   :3d2+   0.0000   0.0001   0.0000   0.0000   0.0000  -0.0040  -0.0001
  97 O   :1s     0.5515   0.0000   0.0000   0.0000  -0.0000  -0.0016   0.1148
  98 O   :1s     0.4717   0.0000   0.0000   0.0000   0.0000  -0.0026   0.1918
  99 O   :1s     0.0055  -0.0000  -0.0000  -0.0000  -0.0000   0.0075  -0.5445
 100 O   :1s    -0.0005   0.0000   0.0000   0.0000   0.0001   0.0054  -0.4213
 101 O   :2px    0.0012  -0.0000  -0.0000   0.0000  -0.0000   0.0002  -0.0215
 102 O   :2py   -0.0007   0.0000   0.0000  -0.0000   0.0000  -0.0002   0.0175
 103 O   :2pz    0.0002   0.0000   0.0000   0.0000   0.0000   0.0001  -0.0052
 104 O   :2px   -0.0005   0.0000   0.0000  -0.0000   0.0000   0.0004  -0.0391
 105 O   :2py    0.0003  -0.0000  -0.0000   0.0000  -0.0000  -0.0003   0.0297
 106 O   :2pz   -0.0001  -0.0000  -0.0000  -0.0000  -0.0000   0.0002  -0.0090
 107 O   :2px    0.0002  -0.0000   0.0000   0.0000  -0.0001   0.0004  -0.0075
 108 O   :2py   -0.0001   0.0000   0.0000  -0.0000   0.0000  -0.0004   0.0113
 109 O   :2pz   -0.0001   0.0000   0.0000   0.0000   0.0000  -0.0001   0.0012
 110 O   :3d2-  -0.0001   0.0000   0.0000  -0.0000  -0.0000  -0.0000  -0.0003
 111 O   :3d1-  -0.0000  -0.0000  -0.0000  -0.0000   0.0000  -0.0000   0.0007
 112 O   :3d0    0.0001   0.0000  -0.0000  -0.0000  -0.0000  -0.0001   0.0058
 113 O   :3d1+  -0.0000   0.0000   0.0000   0.0000  -0.0000   0.0000  -0.0024
 114 O   :3d2+   0.0000  -0.0000   0.0000  -0.0000  -0.0000  -0.0000   0.0021
 115 H   :1s     0.0000   0.0000  -0.0000   0.0002   0.0000   0.0002  -0.0005
 116 H   :1s     0.0000   0.0000   0.0000   0.0001   0.0000   0.0003   0.0005
 117 H   :1s     0.0000   0.0000  -0.0000   0.0001   0.0000  -0.0004  -0.0007
 121 H   :1s    -0.0000   0.0000   0.0000   0.0002   0.0000   0.0002  -0.0005
 122 H   :1s     0.0000  -0.0000  -0.0000   0.0001  -0.0000   0.0004   0.0008
 123 H   :1s    -0.0000   0.0000   0.0000   0.0000   0.0000  -0.0003  -0.0008
 127 H   :1s    -0.0000  -0.0000   0.0002   0.0000   0.0000   0.0003  -0.0002
 128 H   :1s    -0.0000   0.0000   0.0002  -0.0000  -0.0000  -0.0005  -0.0004
 129 H   :1s     0.0000  -0.0000   0.0000   0.0000   0.0000   0.0010   0.0002
 131 H   :2py   -0.0000   0.0000   0.0001  -0.0000  -0.0000   0.0000  -0.0001
 133 H   :1s     0.0000  -0.0000   0.0002  -0.0000   0.0000   0.0003  -0.0002
 134 H   :1s    -0.0000   0.0000   0.0001  -0.0000  -0.0000  -0.0002  -0.0006
 135 H   :1s     0.0000  -0.0000   0.0001  -0.0000   0.0000  -0.0001   0.0004
 136 H   :2px   -0.0000   0.0000   0.0000  -0.0000  -0.0000   0.0000  -0.0001
 139 H   :1s    -0.0000   0.0002   0.0000   0.0000   0.0000   0.0839   0.0014
 140 H   :1s     0.0000   0.0002  -0.0000   0.0000  -0.0000   0.0661   0.0011
 141 H   :1s     0.0000   0.0000   0.0000   0.0000   0.0000  -0.0008   0.0001
 142 H   :2px   -0.0000  -0.0001   0.0000   0.0000   0.0000  -0.0174  -0.0003
 143 H   :2py    0.0000   0.0001  -0.0000   0.0000  -0.0000   0.0134   0.0002
 144 H   :2pz   -0.0000  -0.0001   0.0000  -0.0000   0.0000  -0.0141  -0.0002
 145 H   :1s     0.0000   0.0002  -0.0000  -0.0000   0.0000   0.0917   0.0015
 146 H   :1s     0.0000   0.0002  -0.0000   0.0000  -0.0000   0.0703   0.0010
 147 H   :1s     0.0000   0.0000   0.0000  -0.0000   0.0000  -0.0032   0.0005
 149 H   :2py   -0.0000  -0.0001   0.0000  -0.0000   0.0000  -0.0264  -0.0004
 150 H   :2pz   -0.0000  -0.0000  -0.0000   0.0000   0.0000  -0.0046  -0.0001
 151 H   :1s     0.0002  -0.0000  -0.0000   0.0000   0.0000   0.0012  -0.0897
 152 H   :1s     0.0001   0.0000   0.0000  -0.0000  -0.0000   0.0008  -0.0634
 153 H   :1s     0.0000   0.0000   0.0000   0.0000   0.0000  -0.0001   0.0012
 154 H   :2px   -0.0000   0.0000  -0.0000   0.0000   0.0000  -0.0000   0.0011
 155 H   :2py    0.0001   0.0000   0.0000  -0.0000  -0.0000   0.0003  -0.0260
 156 H   :2pz    0.0000   0.0000  -0.0000   0.0000  -0.0000  -0.0000   0.0030
 157 H   :1s     0.0001   0.0000   0.0000  -0.0000   0.0000   0.0010  -0.0745
 158 H   :1s     0.0001   0.0000  -0.0000   0.0000  -0.0000   0.0009  -0.0604
 159 H   :1s     0.0000   0.0000   0.0000  -0.0000   0.0000  -0.0003   0.0024
 160 H   :2px   -0.0001  -0.0000   0.0000  -0.0000   0.0000  -0.0003   0.0216
 161 H   :2py   -0.0000  -0.0000   0.0000   0.0000   0.0000  -0.0002   0.0137
 162 H   :2pz    0.0000   0.0000   0.0000  -0.0000  -0.0000  -0.0000   0.0033

    Orbital         8        9       10       11       12       13       14
   1 N   :1s     0.0046  -0.0106   0.1095  -0.0005  -0.0014  -0.0001   0.0015
   2 N   :1s     0.0076  -0.0176   0.1815  -0.0009  -0.0024  -0.0002   0.0027
   3 N   :1s    -0.0201   0.0471  -0.4928   0.0033   0.0066   0.0005  -0.0087
   4 N   :1s    -0.0136   0.0305  -0.3209  -0.0025   0.0158  -0.0039  -0.0092
   5 N   :2px    0.0015   0.0002   0.0049   0.0096   0.0192  -0.1316  -0.1472
   6 N   :2py    0.0002   0.0021  -0.0003  -0.0152   0.0210   0.0091  -0.0955
   7 N   :2pz    0.0006  -0.0007  -0.0018  -0.0250  -0.1958  -0.0452  -0.0107
   8 N   :2px    0.0014   0.0005   0.0061   0.0155   0.0318  -0.2108  -0.2358
   9 N   :2py    0.0003   0.0031  -0.0002  -0.0247   0.0334   0.0149  -0.1531
  10 N   :2pz    0.0003  -0.0012  -0.0024  -0.0390  -0.3142  -0.0717  -0.0163
  11 N   :2px    0.0030   0.0010   0.0036   0.0140   0.0211  -0.1518  -0.1653
  12 N   :2py    0.0010   0.0031   0.0029  -0.0203   0.0235   0.0095  -0.1119
  13 N   :2pz    0.0009  -0.0012  -0.0036  -0.0326  -0.2120  -0.0487  -0.0128
  14 N   :3d2-  -0.0001   0.0003  -0.0003  -0.0020  -0.0021   0.0055  -0.0007
  15 N   :3d1-  -0.0000  -0.0004   0.0001   0.0016   0.0078  -0.0003   0.0014
  16 N   :3d0    0.0000  -0.0001  -0.0005  -0.0021  -0.0198  -0.0019   0.0052
  17 N   :3d1+  -0.0002  -0.0001  -0.0004  -0.0002   0.0051   0.0114   0.0095
  18 N   :3d2+  -0.0002  -0.0005  -0.0002   0.0009   0.0017   0.0089   0.0154
  19 H   :1s    -0.0028   0.0122  -0.0712  -0.0062   0.0390  -0.0203  -0.1028
  20 H   :1s    -0.0024   0.0123  -0.0794  -0.0030   0.0504  -0.0235  -0.1378
  21 H   :1s    -0.0002  -0.0013   0.0073  -0.0093   0.0086  -0.0057  -0.0174
  22 H   :2px    0.0001  -0.0006   0.0081   0.0005  -0.0020  -0.0053   0.0009
  23 H   :2py    0.0008  -0.0020   0.0234   0.0003  -0.0079   0.0050   0.0192
  24 H   :2pz   -0.0002   0.0001  -0.0040  -0.0014  -0.0092  -0.0032  -0.0049
  25 H   :1s    -0.0026   0.0062  -0.0675   0.0202   0.0606  -0.0601  -0.0275
  26 H   :1s    -0.0021   0.0059  -0.0775   0.0239   0.0839  -0.0824  -0.0410
  27 H   :1s    -0.0003   0.0015   0.0060   0.0069   0.0176  -0.0155  -0.0067
  28 H   :2px    0.0004  -0.0016   0.0167  -0.0027  -0.0093   0.0023  -0.0021
  29 H   :2py   -0.0006   0.0014  -0.0148   0.0021   0.0104  -0.0087  -0.0087
  30 H   :2pz   -0.0004   0.0009  -0.0100   0.0009  -0.0043  -0.0083  -0.0039
  31 H   :1s    -0.0065   0.0071  -0.0784   0.0041   0.0570   0.1048   0.1115
  32 H   :1s    -0.0069   0.0078  -0.0837   0.0083   0.0736   0.1369   0.1485
  33 H   :1s     0.0005   0.0004   0.0091  -0.0020   0.0141   0.0217   0.0185
  34 H   :2px   -0.0006   0.0023  -0.0225   0.0017   0.0137   0.0154   0.0157
  35 H   :2py   -0.0000   0.0005  -0.0034  -0.0002   0.0028   0.0036  -0.0023
  36 H   :2pz   -0.0005   0.0011  -0.0118  -0.0004  -0.0047   0.0098   0.0130
  37 H   :1s    -0.0031   0.0066  -0.0769  -0.0171  -0.1543  -0.0242   0.0182
  38 H   :1s    -0.0014   0.0069  -0.0828  -0.0223  -0.2120  -0.0342   0.0233
  39 H   :1s    -0.0024  -0.0006   0.0070   0.0061  -0.0480  -0.0067   0.0072
  40 H   :2px   -0.0002   0.0002  -0.0035   0.0006  -0.0040  -0.0083  -0.0086
  41 H   :2py   -0.0002   0.0003  -0.0045  -0.0030  -0.0051  -0.0004  -0.0048
  42 H   :2pz    0.0007  -0.0021   0.0247   0.0023   0.0253   0.0033  -0.0045
  43 O   :1s     0.0013  -0.1142  -0.0124   0.0001   0.0012  -0.0003  -0.0008
  44 O   :1s     0.0021  -0.1909  -0.0208   0.0001   0.0020  -0.0005  -0.0013
  45 O   :1s    -0.0061   0.5409   0.0586  -0.0005  -0.0056   0.0013   0.0038
  46 O   :1s    -0.0042   0.4128   0.0476   0.0003  -0.0024   0.0004  -0.0033
  47 O   :2px   -0.0001   0.0148   0.0024   0.0000  -0.0182  -0.0057   0.0180
  48 O   :2py    0.0001  -0.0050   0.0015  -0.0002  -0.0198  -0.0003   0.0219
  49 O   :2pz    0.0002  -0.0224  -0.0043  -0.0010   0.0027  -0.0049  -0.0142
  50 O   :2px   -0.0002   0.0259   0.0041   0.0001  -0.0282  -0.0086   0.0277
  51 O   :2py    0.0002  -0.0087   0.0023  -0.0002  -0.0312  -0.0010   0.0343
  52 O   :2pz    0.0004  -0.0396  -0.0072  -0.0019   0.0049  -0.0074  -0.0222
  53 O   :2px   -0.0001   0.0022   0.0007  -0.0001  -0.0183  -0.0088   0.0185
  54 O   :2py    0.0000  -0.0072   0.0004  -0.0010  -0.0233   0.0014   0.0269
  55 O   :2pz    0.0000  -0.0092  -0.0040  -0.0002   0.0046  -0.0049  -0.0203
  56 O   :3d2-  -0.0000   0.0048   0.0007   0.0000  -0.0006   0.0001   0.0009
  57 O   :3d1-  -0.0000   0.0040   0.0006   0.0001   0.0006   0.0003  -0.0001
  58 O   :3d0   -0.0000   0.0001   0.0001   0.0000   0.0008   0.0005  -0.0004
  59 O   :3d1+  -0.0000   0.0008   0.0001   0.0000   0.0011   0.0002  -0.0012
  60 O   :3d2+  -0.0000   0.0039   0.0006  -0.0000  -0.0018  -0.0003   0.0018
  61 O   :1s     0.1142   0.0018  -0.0054  -0.0000  -0.0001   0.0005   0.0006
  62 O   :1s     0.1908   0.0031  -0.0091  -0.0000  -0.0002   0.0008   0.0010
  63 O   :1s    -0.5409  -0.0086   0.0257   0.0001   0.0007  -0.0021  -0.0026
  64 O   :1s    -0.4047  -0.0071   0.0208   0.0003   0.0022   0.0014   0.0021
  65 O   :2px    0.0234   0.0005  -0.0029   0.0010   0.0095   0.0230   0.0308
  66 O   :2py   -0.0002   0.0000  -0.0005  -0.0004   0.0013  -0.0025  -0.0101
  67 O   :2pz   -0.0236  -0.0004   0.0008  -0.0001  -0.0014   0.0031   0.0062
  68 O   :2px    0.0396   0.0009  -0.0047   0.0015   0.0150   0.0360   0.0477
  69 O   :2py    0.0009   0.0001  -0.0008  -0.0005   0.0023  -0.0034  -0.0151
  70 O   :2pz   -0.0409  -0.0006   0.0015  -0.0001  -0.0018   0.0050   0.0097
  71 O   :2px    0.0103   0.0001  -0.0031   0.0016   0.0126   0.0294   0.0399
  72 O   :2py    0.0010   0.0001  -0.0012  -0.0002   0.0016  -0.0003  -0.0079
  73 O   :2pz   -0.0127  -0.0004   0.0009  -0.0006  -0.0024   0.0047   0.0086
  74 O   :3d2-   0.0049   0.0001  -0.0004   0.0001   0.0004   0.0012   0.0018
  75 O   :3d1-   0.0036   0.0001  -0.0003  -0.0000   0.0001  -0.0002  -0.0009
  76 O   :3d0    0.0008   0.0000  -0.0000   0.0000   0.0000   0.0007   0.0012
  77 O   :3d1+   0.0040   0.0001  -0.0004   0.0001   0.0005   0.0013   0.0016
  78 O   :3d2+   0.0011   0.0000  -0.0001  -0.0000  -0.0000  -0.0004  -0.0008
  79 O   :1s    -0.0006   0.0009  -0.0060  -0.0017   0.0016  -0.0002  -0.0009
  80 O   :1s    -0.0010   0.0015  -0.0101  -0.0030   0.0028  -0.0003  -0.0016
  81 O   :1s     0.0027  -0.0043   0.0287   0.0086  -0.0089   0.0009   0.0050
  82 O   :1s     0.0027  -0.0034   0.0227   0.0144  -0.0278  -0.0013   0.0081
  83 O   :2px    0.0001  -0.0001   0.0007   0.0854  -0.0084  -0.0000  -0.0061
  84 O   :2py    0.0001  -0.0002   0.0013  -0.2046   0.0407  -0.0045  -0.0012
  85 O   :2pz    0.0002  -0.0004   0.0047   0.0493   0.0593   0.0099  -0.0101
  86 O   :2px    0.0002  -0.0003   0.0014   0.1319  -0.0132   0.0002  -0.0089
  87 O   :2py    0.0002  -0.0002   0.0020  -0.3137   0.0623  -0.0069  -0.0016
  88 O   :2pz    0.0005  -0.0006   0.0070   0.0761   0.0918   0.0152  -0.0156
  89 O   :2px    0.0003  -0.0000   0.0003   0.0891  -0.0142  -0.0026  -0.0089
  90 O   :2py    0.0001  -0.0002   0.0014  -0.2184   0.0457  -0.0054  -0.0030
  91 O   :2pz   -0.0002  -0.0004   0.0045   0.0558   0.0778   0.0127  -0.0133
  92 O   :3d2-  -0.0000   0.0000  -0.0001  -0.0105   0.0013  -0.0004   0.0000
  93 O   :3d1-   0.0000  -0.0000   0.0001  -0.0121   0.0031  -0.0001  -0.0000
  94 O   :3d0   -0.0000   0.0000  -0.0002   0.0062  -0.0010   0.0003   0.0001
  95 O   :3d1+   0.0000  -0.0001   0.0005   0.0101   0.0025   0.0008  -0.0007
  96 O   :3d2+  -0.0000   0.0000  -0.0003   0.0175  -0.0034   0.0003  -0.0002
  97 O   :1s    -0.0006   0.0012  -0.0055  -0.0004  -0.0023   0.0048  -0.0020
  98 O   :1s    -0.0010   0.0020  -0.0093  -0.0007  -0.0040   0.0083  -0.0033
  99 O   :1s     0.0029  -0.0054   0.0263   0.0021   0.0121  -0.0249   0.0099
 100 O   :1s     0.0023  -0.0054   0.0207   0.0045   0.0246  -0.0488   0.0161
 101 O   :2px    0.0002  -0.0005   0.0037  -0.0060  -0.0135  -0.0413   0.0668
 102 O   :2py   -0.0001   0.0004  -0.0024   0.0073   0.0485  -0.1707   0.1130
 103 O   :2pz   -0.0000   0.0000  -0.0011   0.0021   0.0056  -0.0142  -0.0004
 104 O   :2px    0.0003  -0.0007   0.0055  -0.0092  -0.0204  -0.0648   0.1036
 105 O   :2py   -0.0002   0.0005  -0.0037   0.0112   0.0743  -0.2619   0.1735
 106 O   :2pz   -0.0000   0.0001  -0.0014   0.0033   0.0090  -0.0216  -0.0009
 107 O   :2px    0.0001  -0.0003   0.0035  -0.0082  -0.0211  -0.0441   0.0812
 108 O   :2py   -0.0001   0.0011  -0.0018   0.0086   0.0564  -0.1945   0.1261
 109 O   :2pz    0.0000  -0.0002  -0.0015   0.0028   0.0074  -0.0221  -0.0003
 110 O   :3d2-   0.0000   0.0000   0.0000   0.0003   0.0025  -0.0105   0.0075
 111 O   :3d1-  -0.0000   0.0000  -0.0001   0.0001   0.0009  -0.0032   0.0021
 112 O   :3d0   -0.0000   0.0001  -0.0004   0.0004   0.0015  -0.0025   0.0001
 113 O   :3d1+   0.0000  -0.0000   0.0002  -0.0001  -0.0001  -0.0016   0.0018
 114 O   :3d2+  -0.0000   0.0001  -0.0001   0.0003   0.0031  -0.0147   0.0117
 115 H   :1s    -0.0010   0.0828   0.0092   0.0007   0.0095   0.0045  -0.0035
 116 H   :1s    -0.0003   0.0585   0.0049   0.0005   0.0129   0.0074  -0.0063
 117 H   :1s    -0.0009  -0.0041  -0.0027   0.0015   0.0018   0.0001   0.0005
 118 H   :2px   -0.0001   0.0115   0.0012   0.0001  -0.0000   0.0005   0.0007
 119 H   :2py   -0.0001   0.0126   0.0018   0.0001  -0.0006   0.0007   0.0013
 120 H   :2pz   -0.0003   0.0201   0.0013   0.0001   0.0035   0.0011  -0.0024
 121 H   :1s    -0.0009   0.0857   0.0105   0.0001  -0.0184  -0.0037   0.0198
 122 H   :1s    -0.0009   0.0692   0.0084  -0.0002  -0.0237  -0.0008   0.0246
 123 H   :1s     0.0004  -0.0017  -0.0006   0.0008  -0.0026  -0.0037   0.0034
 124 H   :2px    0.0003  -0.0249  -0.0028  -0.0000   0.0044   0.0003  -0.0048
 125 H   :2py    0.0001  -0.0095  -0.0007   0.0000   0.0005   0.0001  -0.0003
 126 H   :2pz   -0.0001   0.0033   0.0002  -0.0001  -0.0006  -0.0006  -0.0001
 127 H   :1s    -0.0859  -0.0014   0.0044   0.0001  -0.0020   0.0013   0.0069
 128 H   :1s    -0.0695  -0.0007   0.0028   0.0008  -0.0014   0.0031   0.0102
 129 H   :1s     0.0006  -0.0002  -0.0020  -0.0003  -0.0019   0.0016   0.0053
 130 H   :2px   -0.0012   0.0000  -0.0004   0.0001   0.0008   0.0025   0.0035
 131 H   :2py   -0.0199  -0.0002   0.0005   0.0001  -0.0002   0.0005   0.0013
 132 H   :2pz    0.0170   0.0002  -0.0008  -0.0001   0.0003   0.0000  -0.0008
 133 H   :1s    -0.0913  -0.0015   0.0050  -0.0007  -0.0046  -0.0134  -0.0209
 134 H   :1s    -0.0622  -0.0012   0.0033  -0.0004  -0.0038  -0.0145  -0.0231
 135 H   :1s     0.0050   0.0004  -0.0012  -0.0002  -0.0004  -0.0013  -0.0026
 136 H   :2px   -0.0201  -0.0003   0.0007  -0.0001  -0.0002  -0.0013  -0.0026
 137 H   :2py    0.0194   0.0003  -0.0010   0.0001   0.0011   0.0030   0.0042
 138 H   :2pz    0.0044   0.0001  -0.0003   0.0001   0.0002   0.0010   0.0016
 139 H   :1s     0.0005  -0.0008   0.0055   0.1404   0.0040   0.0059  -0.0062
 140 H   :1s     0.0001  -0.0006   0.0052   0.1918   0.0071   0.0093  -0.0076
 141 H   :1s     0.0004  -0.0001  -0.0012   0.0436  -0.0016   0.0004  -0.0019
 142 H   :2px   -0.0001   0.0002  -0.0013  -0.0241  -0.0024  -0.0015   0.0009
 143 H   :2py    0.0000  -0.0001   0.0009   0.0069   0.0046   0.0008  -0.0010
 144 H   :2pz   -0.0000   0.0001  -0.0005  -0.0233   0.0042  -0.0003   0.0004
 145 H   :1s     0.0005  -0.0007   0.0057  -0.1437   0.0386  -0.0018  -0.0019
 146 H   :1s     0.0003  -0.0008   0.0045  -0.1887   0.0498  -0.0019  -0.0008
 147 H   :1s     0.0001   0.0006  -0.0023  -0.0393   0.0096  -0.0004  -0.0025
 148 H   :2px   -0.0000   0.0000  -0.0001   0.0069  -0.0006   0.0001  -0.0005
 149 H   :2py   -0.0001   0.0002  -0.0015   0.0286  -0.0094  -0.0000   0.0005
 150 H   :2pz   -0.0000  -0.0000   0.0004   0.0134   0.0036   0.0011  -0.0006
 151 H   :1s     0.0005  -0.0011   0.0054  -0.0055  -0.0349   0.1180  -0.0764
 152 H   :1s     0.0004   0.0004   0.0052  -0.0071  -0.0457   0.1554  -0.1009
 153 H   :1s    -0.0000  -0.0008  -0.0015  -0.0014  -0.0080   0.0281  -0.0187
 154 H   :2px    0.0000  -0.0001   0.0001  -0.0003   0.0001  -0.0068   0.0077
 155 H   :2py    0.0001  -0.0001   0.0016  -0.0013  -0.0081   0.0259  -0.0160
 156 H   :2pz   -0.0000   0.0000  -0.0004   0.0005   0.0024  -0.0071   0.0038
 157 H   :1s     0.0004  -0.0006   0.0045  -0.0007   0.0102  -0.0872   0.0802
 158 H   :1s     0.0003  -0.0017   0.0037  -0.0008   0.0135  -0.1127   0.1048
 159 H   :1s     0.0001   0.0016  -0.0011   0.0000   0.0034  -0.0237   0.0193
 160 H   :2px   -0.0001   0.0002  -0.0009  -0.0002  -0.0038   0.0227  -0.0189
 161 H   :2py   -0.0001   0.0001  -0.0010   0.0007   0.0017   0.0035  -0.0067
 162 H   :2pz   -0.0000   0.0001  -0.0004   0.0002   0.0001   0.0036  -0.0045

    Orbital        15       16       17       18       19       20       21
   1 N   :1s    -0.0002  -0.0009   0.0020  -0.0064  -0.0002  -0.0024  -0.0083
   2 N   :1s    -0.0003  -0.0015   0.0034  -0.0107  -0.0004  -0.0040  -0.0139
   3 N   :1s     0.0011   0.0050  -0.0109   0.0286   0.0028   0.0083   0.0376
   4 N   :1s    -0.0005   0.0002  -0.0054   0.0545  -0.0085   0.0416   0.0743
   5 N   :2px   -0.0620  -0.0210  -0.0042   0.0307   0.0378  -0.0197   0.0293
   6 N   :2py    0.1784  -0.0110  -0.0413  -0.0402  -0.0168  -0.0044  -0.0059
   7 N   :2pz    0.0175  -0.0089   0.0176   0.0108  -0.0568  -0.0111   0.0100
   8 N   :2px   -0.1004  -0.0344  -0.0072   0.0483   0.0596  -0.0299   0.0453
   9 N   :2py    0.2872  -0.0177  -0.0674  -0.0631  -0.0268  -0.0070  -0.0104
  10 N   :2pz    0.0290  -0.0147   0.0287   0.0166  -0.0881  -0.0159   0.0152
  11 N   :2px   -0.0693  -0.0208  -0.0026   0.0466   0.0485  -0.0420   0.0445
  12 N   :2py    0.2115  -0.0089  -0.0428  -0.0608  -0.0240  -0.0031  -0.0063
  13 N   :2pz    0.0192  -0.0079   0.0108   0.0232  -0.0802  -0.0240   0.0096
  14 N   :3d2-   0.0151   0.0001  -0.0023  -0.0030  -0.0025   0.0006  -0.0008
  15 N   :3d1-  -0.0072   0.0004   0.0001   0.0008   0.0022   0.0000   0.0001
  16 N   :3d0   -0.0034  -0.0001   0.0030   0.0013  -0.0039  -0.0003  -0.0001
  17 N   :3d1+   0.0065   0.0016  -0.0008  -0.0021  -0.0007   0.0016  -0.0010
  18 N   :3d2+  -0.0071   0.0019   0.0020  -0.0003  -0.0002   0.0014  -0.0013
  19 H   :1s     0.1115  -0.0116  -0.0316  -0.0185   0.0022  -0.0052  -0.0004
  20 H   :1s     0.1436  -0.0192  -0.0457  -0.0222   0.0094  -0.0128   0.0023
  21 H   :1s     0.0265   0.0002  -0.0140  -0.0001  -0.0094   0.0034  -0.0409
  22 H   :2px   -0.0125  -0.0001   0.0017   0.0022   0.0021   0.0002   0.0017
  23 H   :2py   -0.0164   0.0023   0.0067   0.0017  -0.0021   0.0014  -0.0042
  24 H   :2pz    0.0055  -0.0010  -0.0016  -0.0006  -0.0033  -0.0009   0.0026
  25 H   :1s    -0.1242  -0.0028   0.0116   0.0220   0.0340  -0.0039   0.0048
  26 H   :1s    -0.1686   0.0010   0.0130   0.0303   0.0570  -0.0005   0.0086
  27 H   :1s    -0.0413  -0.0062   0.0044  -0.0237  -0.0301  -0.0053  -0.0252
  28 H   :2px    0.0181  -0.0015  -0.0017  -0.0064  -0.0073  -0.0004  -0.0037
  29 H   :2py   -0.0085  -0.0009  -0.0014   0.0038   0.0071  -0.0005   0.0040
  30 H   :2pz   -0.0119  -0.0005   0.0026   0.0065   0.0040  -0.0005   0.0026
  31 H   :1s     0.0191   0.0178  -0.0010  -0.0171  -0.0034   0.0118  -0.0168
  32 H   :1s     0.0269   0.0262  -0.0076  -0.0140  -0.0067   0.0062  -0.0275
  33 H   :1s     0.0056   0.0065   0.0108  -0.0079   0.0032  -0.0569   0.0103
  34 H   :2px    0.0008   0.0033  -0.0011  -0.0007   0.0019   0.0030  -0.0022
  35 H   :2py    0.0106   0.0011  -0.0021  -0.0022  -0.0011   0.0012  -0.0015
  36 H   :2pz    0.0036   0.0017   0.0009  -0.0015  -0.0039   0.0030  -0.0013
  37 H   :1s    -0.0071  -0.0031   0.0194   0.0069  -0.0342  -0.0047   0.0001
  38 H   :1s    -0.0077  -0.0016   0.0315   0.0008  -0.0460  -0.0120   0.0115
  39 H   :1s    -0.0017  -0.0055   0.0091  -0.0243   0.0436   0.0173  -0.0290
  40 H   :2px   -0.0040  -0.0015   0.0004   0.0041  -0.0012  -0.0011   0.0019
  41 H   :2py    0.0098  -0.0012  -0.0021  -0.0017  -0.0032  -0.0010  -0.0001
  42 H   :2pz    0.0025  -0.0004  -0.0036  -0.0052   0.0099   0.0008  -0.0046
  43 O   :1s     0.0006   0.0002  -0.0017   0.0003   0.0000   0.0005   0.0148
  44 O   :1s     0.0010   0.0003  -0.0028   0.0005   0.0001   0.0009   0.0251
  45 O   :1s    -0.0027  -0.0005   0.0057  -0.0017  -0.0007  -0.0027  -0.0745
  46 O   :1s     0.0048  -0.0049   0.0272  -0.0050   0.0026  -0.0061  -0.1267
  47 O   :2px   -0.0319   0.0240  -0.1753  -0.0025   0.0020   0.0020   0.0685
  48 O   :2py   -0.0289   0.0161  -0.1037   0.0023  -0.0017   0.0011  -0.0251
  49 O   :2pz    0.0123   0.0085  -0.0947  -0.0140   0.0040  -0.0063  -0.1143
  50 O   :2px   -0.0490   0.0366  -0.2675  -0.0036   0.0031   0.0032   0.1015
  51 O   :2py   -0.0452   0.0247  -0.1587   0.0034  -0.0025   0.0021  -0.0349
  52 O   :2pz    0.0195   0.0131  -0.1455  -0.0210   0.0060  -0.0095  -0.1719
  53 O   :2px   -0.0358   0.0274  -0.2003  -0.0041   0.0028   0.0012   0.1089
  54 O   :2py   -0.0345   0.0189  -0.1169   0.0048  -0.0036   0.0006  -0.0417
  55 O   :2pz    0.0182   0.0091  -0.1111  -0.0194   0.0067  -0.0090  -0.1644
  56 O   :3d2-  -0.0010   0.0005  -0.0029   0.0000  -0.0001   0.0001   0.0011
  57 O   :3d1-   0.0007  -0.0014   0.0115   0.0005  -0.0002   0.0002   0.0036
  58 O   :3d0    0.0013  -0.0017   0.0138   0.0008  -0.0003   0.0003   0.0034
  59 O   :3d1+   0.0019  -0.0014   0.0104   0.0001  -0.0001  -0.0001  -0.0041
  60 O   :3d2+  -0.0027   0.0017  -0.0116  -0.0001  -0.0000   0.0001   0.0029
[...]
 |  sym. | Exci.  |        CCSD       Excitation energies            | ||T1||  |
 |(spin, |        +------------------------------------------------------------+
 | spat) |        |     Hartree    |       eV.      |     cm-1       |    %    |
 +=============================================================================+
 | ^1A   |    1   |    14.9280010  |     406.21157  |   3276317.481  |  88.46  |
 | ^1A   |    2   |    14.9915403  |     407.94056  |   3290262.757  |  88.78  |
 | ^1A   |    3   |    15.0030586  |     408.25399  |   3292790.735  |  88.85  |
 | ^1A   |    4   |    15.0056501  |     408.32451  |   3293359.501  |  88.96  |
 | ^1A   |    5   |    15.0761160  |     410.24199  |   3308824.975  |  87.93  |
 | ^1A   |    6   |    15.0844310  |     410.46825  |   3310649.911  |  87.84  |
 | ^1A   |    7   |    15.0963313  |     410.79207  |   3313261.714  |  87.86  |
 | ^1A   |    8   |    15.1192258  |     411.41506  |   3318286.475  |  87.95  |
 | ^1A   |    9   |    15.1237724  |     411.53878  |   3319284.332  |  87.99  |
 | ^1A   |   10   |    15.1465913  |     412.15971  |   3324292.508  |  87.95  |
 | ^1A   |   11   |    15.1708460  |     412.81972  |   3329615.808  |  87.95  |
 | ^1A   |   12   |    15.1858266  |     413.22736  |   3332903.668  |  87.67  |
 | ^1A   |   13   |    15.2049035  |     413.74647  |   3337090.550  |  88.22  |
 | ^1A   |   14   |    15.2424488  |     414.76813  |   3345330.809  |  87.85  |
 | ^1A   |   15   |    15.2534506  |     415.06750  |   3347745.414  |  87.79  |
 | ^1A   |   16   |    15.3614702  |     418.00687  |   3371452.981  |  87.46  |
 | ^1A   |   17   |    15.3915065  |     418.82420  |   3378045.189  |  87.64  |
 | ^1A   |   18   |    15.4065712  |     419.23413  |   3381351.494  |  87.47  |
 | ^1A   |   19   |    15.4420609  |     420.19985  |   3389140.585  |  87.82  |
 | ^1A   |   20   |    15.4639757  |     420.79618  |   3393950.334  |  87.29  |
 | ^1A   |   21   |    15.4712051  |     420.99291  |   3395537.002  |  87.30  |
 | ^1A   |   22   |    15.4754611  |     421.10872  |   3396471.095  |  87.58  |
 | ^1A   |   23   |    15.5135471  |     422.14509  |   3404830.001  |  87.64  |
 | ^1A   |   24   |    15.5560315  |     423.30115  |   3414154.258  |  87.80  |
 | ^1A   |   25   |    15.5615547  |     423.45144  |   3415366.449  |  88.68  |
 | ^1A   |   26   |    15.5689661  |     423.65312  |   3416993.067  |  88.61  |
 | ^1A   |   27   |    15.5852400  |     424.09595  |   3420564.777  |  89.05  |
 | ^1A   |   28   |    15.7422122  |     428.36739  |   3455016.197  |   0.26  |
 | ^1A   |   29   |    15.7438173  |     428.41106  |   3455368.473  |   0.47  |
 | ^1A   |   30   |    15.7477846  |     428.51902  |   3456239.177  |   5.62  |
 +=============================================================================+
                                                                                
                                                                                
     Total energies in Hartree:                                                 
             1 ^1A       -347.4285024832                                        
             2 ^1A       -347.3649631329                                        
             3 ^1A       -347.3534448155                                        
             4 ^1A       -347.3508533267                                        
             5 ^1A       -347.2803874400                                        
             6 ^1A       -347.2720724230                                        
             7 ^1A       -347.2601721718                                        
             8 ^1A       -347.2372776770                                        
             9 ^1A       -347.2327311023                                        
            10 ^1A       -347.2099121762                                        
            11 ^1A       -347.1856574338                                        
            12 ^1A       -347.1706768407                                        
            13 ^1A       -347.1516000064                                        
            14 ^1A       -347.1140546194                                        
            15 ^1A       -347.1030528703                                        
            16 ^1A       -346.9950332471                                        
            17 ^1A       -346.9649969382                                        
            18 ^1A       -346.9499323027                                        
            19 ^1A       -346.9144425911                                        
            20 ^1A       -346.8925277641                                        
            21 ^1A       -346.8852983738                                        
            22 ^1A       -346.8810423298                                        
            23 ^1A       -346.8429563537                                        
            24 ^1A       -346.8004719120                                        
            25 ^1A       -346.7949487651                                        
            26 ^1A       -346.7875373451                                        
            27 ^1A       -346.7712634364                                        
            28 ^1A       -346.6142912181                                        
            29 ^1A       -346.6126861309                                        
            30 ^1A       -346.6087189082                                        
                                                                                
                                                                                
 +=============================================================================+
 |  sym. | Exci.  |        CCSD       Length   Gauge Oscillator Strength       |
 |(spin, |        +------------------------------------------------------------+
 | spat) |        | Dipole Strength(a.u.) | Oscillator strength  | Direction   |
 +=============================================================================+
 | ^1A   |    1   |        0.0000791      |      0.0007874       |  (Y,Z)      |
 | ^1A   |    2   |        0.0039066      |      0.0390440       |  (Y,Z)      |
 | ^1A   |    3   |        0.0037294      |      0.0373012       |  (Y,Z)      |
 | ^1A   |    4   |        0.0042043      |      0.0420590       |  (Y,Z)      |
 | ^1A   |    5   |        0.0005470      |      0.0054977       |  (Y,Z)      |
 | ^1A   |    6   |        0.0002905      |      0.0029214       |  (Y,Z)      |
 | ^1A   |    7   |        0.0002399      |      0.0024145       |  (Y,Z)      |
 | ^1A   |    8   |        0.0003941      |      0.0039722       |  (Y,Z)      |
 | ^1A   |    9   |        0.0003124      |      0.0031502       |  (Y,Z)      |
 | ^1A   |   10   |        0.0003558      |      0.0035930       |  (Y,Z)      |
 | ^1A   |   11   |        0.0002605      |      0.0026344       |  (Y,Z)      |
 | ^1A   |   12   |        0.0000876      |      0.0008871       |  (Y,Z)      |
 | ^1A   |   13   |        0.0007237      |      0.0073357       |  (Y,Z)      |
 | ^1A   |   14   |        0.0000920      |      0.0009351       |  (Y,Z)      |
 | ^1A   |   15   |        0.0000088      |      0.0000897       |  (Y,Z)      |
 | ^1A   |   16   |        0.0000556      |      0.0005696       |  (Y,Z)      |
 | ^1A   |   17   |        0.0004580      |      0.0046990       |  (Y,Z)      |
 | ^1A   |   18   |        0.0001369      |      0.0014057       |  (Y,Z)      |
 | ^1A   |   19   |        0.0008918      |      0.0091809       |  (Y,Z)      |
 | ^1A   |   20   |        0.0001561      |      0.0016090       |  (Y,Z)      |
 | ^1A   |   21   |        0.0002491      |      0.0025697       |  (Y,Z)      |
 | ^1A   |   22   |        0.0004204      |      0.0043376       |  (Y,Z)      |
 | ^1A   |   23   |        0.0008788      |      0.0090893       |  (Y,Z)      |
 | ^1A   |   24   |        0.0011034      |      0.0114425       |  (Y,Z)      |
 | ^1A   |   25   |        0.0031272      |      0.0324426       |  (Y,Z)      |
 | ^1A   |   26   |        0.0030016      |      0.0311550       |  (Y,Z)      |
 | ^1A   |   27   |        0.0041884      |      0.0435185       |  (Y,Z)      |
 | ^1A   |   28   |        0.0000007      |      0.0000070       |  (X,Y)      |
 | ^1A   |   29   |        0.0000002      |      0.0000022       |  (X,Y)      |
 | ^1A   |   30   |        0.0000013      |      0.0000139       |  (Y,Z)      |
 +=============================================================================+

  1 a.u. =        27.21138 eV.  
  1 a.u. =    219474.62934 cm-1.
  

 *******************************************************************************
 *******************************************************************************
 *                                                                             *
 *                                                                             *
 *                      END OF COUPLED CLUSTER CALCULATION                     *
 *                                                                             *
 *                                                                             *
 *******************************************************************************
 *******************************************************************************


 CPU and wall time for CC : 1431776.415  173346.884

 
     Date and time (Linux)  : Sat Dec 15 09:49:01 2018
     Host name              : n-62-23-17                              


                      .-------------------------------------.
                      | End of Coupled Cluster Section (CC) |
                      `-------------------------------------'

  Total CPU  time used in DALTON: 397 hours 45 minutes 45 seconds
  Total wall time used in DALTON:  48 hours 16 minutes 58 seconds

 
     Date and time (Linux)  : Sat Dec 15 09:49:01 2018
     Host name              : n-62-23-17                              
  

 +---------------------------------------------------------+ 
 | List of selected calculated molecular properties (a.u.) | 
 +---------------------------------------------------------+ 

  Properties are read from unit number                      4

 CCSD       properties :
 #  1 1 CCSD/MM  Ground state Energy =    -362.7606119717
 #  2 1 E_QM/MM  Ground state Energy =      -0.4041085119
 #  3 1 Sy: 1 Sp: 1 Exc:  1 E_tot:   -347.4285024832 w:     14.9280009766 E_grs:   -362.3565034598
 #  4 1 Exctot   Excited state Energy =    -347.4285024832
 #  5 1 Sy: 1 Sp: 1 Exc:  2 E_tot:   -347.3649631329 w:     14.9915403269 E_grs:   -362.3565034598
 #  6 1 Exctot   Excited state Energy =    -347.3649631329
 #  7 1 Sy: 1 Sp: 1 Exc:  3 E_tot:   -347.3534448155 w:     15.0030586443 E_grs:   -362.3565034598
 #  8 1 Exctot   Excited state Energy =    -347.3534448155
 #  9 1 Sy: 1 Sp: 1 Exc:  4 E_tot:   -347.3508533267 w:     15.0056501332 E_grs:   -362.3565034598
 # 10 1 Exctot   Excited state Energy =    -347.3508533267
 # 11 1 Sy: 1 Sp: 1 Exc:  5 E_tot:   -347.2803874400 w:     15.0761160199 E_grs:   -362.3565034598
 # 12 1 Exctot   Excited state Energy =    -347.2803874400
 # 13 1 Sy: 1 Sp: 1 Exc:  6 E_tot:   -347.2720724230 w:     15.0844310368 E_grs:   -362.3565034598
 # 14 1 Exctot   Excited state Energy =    -347.2720724230
 # 15 1 Sy: 1 Sp: 1 Exc:  7 E_tot:   -347.2601721718 w:     15.0963312880 E_grs:   -362.3565034598
 # 16 1 Exctot   Excited state Energy =    -347.2601721718
 # 17 1 Sy: 1 Sp: 1 Exc:  8 E_tot:   -347.2372776770 w:     15.1192257829 E_grs:   -362.3565034598
 # 18 1 Exctot   Excited state Energy =    -347.2372776770
 # 19 1 Sy: 1 Sp: 1 Exc:  9 E_tot:   -347.2327311023 w:     15.1237723575 E_grs:   -362.3565034598
 # 20 1 Exctot   Excited state Energy =    -347.2327311023
 # 21 1 Sy: 1 Sp: 1 Exc: 10 E_tot:   -347.2099121762 w:     15.1465912836 E_grs:   -362.3565034598
 # 22 1 Exctot   Excited state Energy =    -347.2099121762
 # 23 1 Sy: 1 Sp: 1 Exc: 11 E_tot:   -347.1856574338 w:     15.1708460260 E_grs:   -362.3565034598
 # 24 1 Exctot   Excited state Energy =    -347.1856574338
 # 25 1 Sy: 1 Sp: 1 Exc: 12 E_tot:   -347.1706768407 w:     15.1858266191 E_grs:   -362.3565034598
 # 26 1 Exctot   Excited state Energy =    -347.1706768407
 # 27 1 Sy: 1 Sp: 1 Exc: 13 E_tot:   -347.1516000064 w:     15.2049034534 E_grs:   -362.3565034598
 # 28 1 Exctot   Excited state Energy =    -347.1516000064
 # 29 1 Sy: 1 Sp: 1 Exc: 14 E_tot:   -347.1140546194 w:     15.2424488404 E_grs:   -362.3565034598
 # 30 1 Exctot   Excited state Energy =    -347.1140546194
 # 31 1 Sy: 1 Sp: 1 Exc: 15 E_tot:   -347.1030528703 w:     15.2534505896 E_grs:   -362.3565034598
 # 32 1 Exctot   Excited state Energy =    -347.1030528703
 # 33 1 Sy: 1 Sp: 1 Exc: 16 E_tot:   -346.9950332471 w:     15.3614702128 E_grs:   -362.3565034598
 # 34 1 Exctot   Excited state Energy =    -346.9950332471
 # 35 1 Sy: 1 Sp: 1 Exc: 17 E_tot:   -346.9649969382 w:     15.3915065216 E_grs:   -362.3565034598
 # 36 1 Exctot   Excited state Energy =    -346.9649969382
 # 37 1 Sy: 1 Sp: 1 Exc: 18 E_tot:   -346.9499323027 w:     15.4065711571 E_grs:   -362.3565034598
 # 38 1 Exctot   Excited state Energy =    -346.9499323027
 # 39 1 Sy: 1 Sp: 1 Exc: 19 E_tot:   -346.9144425911 w:     15.4420608687 E_grs:   -362.3565034598
 # 40 1 Exctot   Excited state Energy =    -346.9144425911
 # 41 1 Sy: 1 Sp: 1 Exc: 20 E_tot:   -346.8925277641 w:     15.4639756957 E_grs:   -362.3565034598
 # 42 1 Exctot   Excited state Energy =    -346.8925277641
 # 43 1 Sy: 1 Sp: 1 Exc: 21 E_tot:   -346.8852983738 w:     15.4712050860 E_grs:   -362.3565034598
 # 44 1 Exctot   Excited state Energy =    -346.8852983738
 # 45 1 Sy: 1 Sp: 1 Exc: 22 E_tot:   -346.8810423298 w:     15.4754611300 E_grs:   -362.3565034598
 # 46 1 Exctot   Excited state Energy =    -346.8810423298
 # 47 1 Sy: 1 Sp: 1 Exc: 23 E_tot:   -346.8429563537 w:     15.5135471061 E_grs:   -362.3565034598
 # 48 1 Exctot   Excited state Energy =    -346.8429563537
 # 49 1 Sy: 1 Sp: 1 Exc: 24 E_tot:   -346.8004719120 w:     15.5560315478 E_grs:   -362.3565034598
 # 50 1 Exctot   Excited state Energy =    -346.8004719120
 # 51 1 Sy: 1 Sp: 1 Exc: 25 E_tot:   -346.7949487651 w:     15.5615546947 E_grs:   -362.3565034598
 # 52 1 Exctot   Excited state Energy =    -346.7949487651
 # 53 1 Sy: 1 Sp: 1 Exc: 26 E_tot:   -346.7875373451 w:     15.5689661147 E_grs:   -362.3565034598
 # 54 1 Exctot   Excited state Energy =    -346.7875373451
 # 55 1 Sy: 1 Sp: 1 Exc: 27 E_tot:   -346.7712634364 w:     15.5852400234 E_grs:   -362.3565034598
 # 56 1 Exctot   Excited state Energy =    -346.7712634364
 # 57 1 Sy: 1 Sp: 1 Exc: 28 E_tot:   -346.6142912181 w:     15.7422122417 E_grs:   -362.3565034598
 # 58 1 Exctot   Excited state Energy =    -346.6142912181
 # 59 1 Sy: 1 Sp: 1 Exc: 29 E_tot:   -346.6126861309 w:     15.7438173289 E_grs:   -362.3565034598
 # 60 1 Exctot   Excited state Energy =    -346.6126861309
 # 61 1 Sy: 1 Sp: 1 Exc: 30 E_tot:   -346.6087189082 w:     15.7477845516 E_grs:   -362.3565034598
 # 62 1 Exctot   Excited state Energy =    -346.6087189082
 # 63 1 |<O|XDIPLEN |i(14.928001)>| =     0.00433405
 # 65 1 |<O|XDIPLEN |i(14.991540)>| =     0.03631006
 # 67 1 |<O|XDIPLEN |i(15.003059)>| =     0.01198038
 # 69 1 |<O|XDIPLEN |i(15.005650)>| =     0.05149630
 # 71 1 |<O|XDIPLEN |i(15.076116)>| =     0.00051683
 # 73 1 |<O|XDIPLEN |i(15.084431)>| =     0.01359956
 # 75 1 |<O|XDIPLEN |i(15.096331)>| =     0.00695908
 # 77 1 |<O|XDIPLEN |i(15.119226)>| =     0.00251253
 # 79 1 |<O|XDIPLEN |i(15.123772)>| =     0.00856180
 # 81 1 |<O|XDIPLEN |i(15.146591)>| =     0.01090390
 # 83 1 |<O|XDIPLEN |i(15.170846)>| =     0.00025725
 # 85 1 |<O|XDIPLEN |i(15.185827)>| =     0.00102085
 # 87 1 |<O|XDIPLEN |i(15.204903)>| =     0.02460515
 # 89 1 |<O|XDIPLEN |i(15.242449)>| =     0.00834261
 # 91 1 |<O|XDIPLEN |i(15.253451)>| =     0.00162471
 # 93 1 |<O|XDIPLEN |i(15.361470)>| =     0.00508267
 # 95 1 |<O|XDIPLEN |i(15.391507)>| =     0.00893504
 # 97 1 |<O|XDIPLEN |i(15.406571)>| =     0.00452417
 # 99 1 |<O|XDIPLEN |i(15.442061)>| =     0.01338068
 #101 1 |<O|XDIPLEN |i(15.463976)>| =     0.00132385
 #103 1 |<O|XDIPLEN |i(15.471205)>| =     0.00743758
 #105 1 |<O|XDIPLEN |i(15.475461)>| =     0.00258206
 #107 1 |<O|XDIPLEN |i(15.513547)>| =     0.01355339
 #109 1 |<O|XDIPLEN |i(15.556032)>| =     0.00097814
 #111 1 |<O|XDIPLEN |i(15.561555)>| =     0.01706923
 #113 1 |<O|XDIPLEN |i(15.568966)>| =     0.02125252
 #115 1 |<O|XDIPLEN |i(15.585240)>| =     0.05977758
 #117 1 |<O|XDIPLEN |i(15.742212)>| =     0.00020215
 #119 1 |<O|XDIPLEN |i(15.743817)>| =     0.00010829
 #121 1 |<O|XDIPLEN |i(15.747785)>| =     0.00093590
 #123 1 |<O|YDIPLEN |i(14.928001)>| =     0.00774361
 #125 1 |<O|YDIPLEN |i(14.991540)>| =     0.04040390
 #127 1 |<O|YDIPLEN |i(15.003059)>| =     0.03454967
 #129 1 |<O|YDIPLEN |i(15.005650)>| =     0.03695616
 #131 1 |<O|YDIPLEN |i(15.076116)>| =     0.00380017
 #133 1 |<O|YDIPLEN |i(15.084431)>| =     0.00806821
 #135 1 |<O|YDIPLEN |i(15.096331)>| =     0.00956229
 #137 1 |<O|YDIPLEN |i(15.119226)>| =     0.00316774
 #139 1 |<O|YDIPLEN |i(15.123772)>| =     0.00173833
 #141 1 |<O|YDIPLEN |i(15.146591)>| =     0.01445544
 #143 1 |<O|YDIPLEN |i(15.170846)>| =     0.01192510
 #145 1 |<O|YDIPLEN |i(15.185827)>| =     0.00701636
 #147 1 |<O|YDIPLEN |i(15.204903)>| =     0.00996776
 #149 1 |<O|YDIPLEN |i(15.242449)>| =     0.00202976
 #151 1 |<O|YDIPLEN |i(15.253451)>| =     0.00112550
 #153 1 |<O|YDIPLEN |i(15.361470)>| =     0.00319098
 #155 1 |<O|YDIPLEN |i(15.391507)>| =     0.00243528
 #157 1 |<O|YDIPLEN |i(15.406571)>| =     0.00862001
 #159 1 |<O|YDIPLEN |i(15.442061)>| =     0.02667689
 #161 1 |<O|YDIPLEN |i(15.463976)>| =     0.00131739
 #163 1 |<O|YDIPLEN |i(15.471205)>| =     0.01245704
 #165 1 |<O|YDIPLEN |i(15.475461)>| =     0.01771058
 #167 1 |<O|YDIPLEN |i(15.513547)>| =     0.02372512
 #169 1 |<O|YDIPLEN |i(15.556032)>| =     0.01511660
 #171 1 |<O|YDIPLEN |i(15.561555)>| =     0.05153367
 #173 1 |<O|YDIPLEN |i(15.568966)>| =     0.01406983
 #175 1 |<O|YDIPLEN |i(15.585240)>| =     0.00892999
 #177 1 |<O|YDIPLEN |i(15.742212)>| =    -0.00002250
 #179 1 |<O|YDIPLEN |i(15.743817)>| =     0.00007226
 #181 1 |<O|YDIPLEN |i(15.747785)>| =     0.00066124
 #183 1 |<O|ZDIPLEN |i(14.928001)>| =     0.00060692
 #185 1 |<O|ZDIPLEN |i(14.991540)>| =     0.03091447
 #187 1 |<O|ZDIPLEN |i(15.003059)>| =     0.04890957
 #189 1 |<O|ZDIPLEN |i(15.005650)>| =     0.01366329
 #191 1 |<O|ZDIPLEN |i(15.076116)>| =     0.02307123
 #193 1 |<O|ZDIPLEN |i(15.084431)>| =     0.00636122
 #195 1 |<O|ZDIPLEN |i(15.096331)>| =     0.01000213
 #197 1 |<O|ZDIPLEN |i(15.119226)>| =     0.01943544
 #199 1 |<O|ZDIPLEN |i(15.123772)>| =     0.01536598
 #201 1 |<O|ZDIPLEN |i(15.146591)>| =     0.00528847
 #203 1 |<O|ZDIPLEN |i(15.170846)>| =     0.01087181
 #205 1 |<O|ZDIPLEN |i(15.185827)>| =     0.00611144
 #207 1 |<O|ZDIPLEN |i(15.204903)>| =     0.00434944
 #209 1 |<O|ZDIPLEN |i(15.242449)>| =     0.00427882
 #211 1 |<O|ZDIPLEN |i(15.253451)>| =     0.00221577
 #213 1 |<O|ZDIPLEN |i(15.361470)>| =     0.00442775
 #215 1 |<O|ZDIPLEN |i(15.391507)>| =     0.01929213
 #217 1 |<O|ZDIPLEN |i(15.406571)>| =     0.00648787
 #219 1 |<O|ZDIPLEN |i(15.442061)>| =     0.00105132
 #221 1 |<O|ZDIPLEN |i(15.463976)>| =     0.01235260
 #223 1 |<O|ZDIPLEN |i(15.471205)>| =     0.00621663
 #225 1 |<O|ZDIPLEN |i(15.475461)>| =     0.01000501
 #227 1 |<O|ZDIPLEN |i(15.513547)>| =     0.01150063
 #229 1 |<O|ZDIPLEN |i(15.556032)>| =     0.02956153
 #231 1 |<O|ZDIPLEN |i(15.561555)>| =     0.01342064
 #233 1 |<O|ZDIPLEN |i(15.568966)>| =     0.04849758
 #235 1 |<O|ZDIPLEN |i(15.585240)>| =     0.02313725
 #237 1 |<O|ZDIPLEN |i(15.742212)>| =     0.00079439
 #239 1 |<O|ZDIPLEN |i(15.743817)>| =     0.00044089
 #241 1 |<O|ZDIPLEN |i(15.747785)>| =     0.00011037

 THE_END   
