

     ************************************************************************
     *************** Dalton - An Electronic Structure Program ***************
     ************************************************************************

    This is output from DALTON release Dalton2017.alpha (2016)
         ( Web site: http://daltonprogram.org )

   ----------------------------------------------------------------------------

    NOTE:
     
    Dalton is an experimental code for the evaluation of molecular
    properties using (MC)SCF, DFT, CI, and CC wave functions.
    The authors accept no responsibility for the performance of
    the code or for the correctness of the results.
     
    The code (in whole or part) is provided under a licence and
    is not to be reproduced for further distribution without
    the written permission of the authors or their representatives.
     
    See the home page "http://daltonprogram.org" for further information.
     
    If results obtained with this code are published,
    the appropriate citations would be both of:
     
       K. Aidas, C. Angeli, K. L. Bak, V. Bakken, R. Bast,
       L. Boman, O. Christiansen, R. Cimiraglia, S. Coriani,
       P. Dahle, E. K. Dalskov, U. Ekstroem,
       T. Enevoldsen, J. J. Eriksen, P. Ettenhuber, B. Fernandez,
       L. Ferrighi, H. Fliegl, L. Frediani, K. Hald, A. Halkier,
       C. Haettig, H. Heiberg, T. Helgaker, A. C. Hennum,
       H. Hettema, E. Hjertenaes, S. Hoest, I.-M. Hoeyvik,
       M. F. Iozzi, B. Jansik, H. J. Aa. Jensen, D. Jonsson,
       P. Joergensen, J. Kauczor, S. Kirpekar,
       T. Kjaergaard, W. Klopper, S. Knecht, R. Kobayashi, H. Koch,
       J. Kongsted, A. Krapp, K. Kristensen, A. Ligabue,
       O. B. Lutnaes, J. I. Melo, K. V. Mikkelsen, R. H. Myhre,
       C. Neiss, C. B. Nielsen, P. Norman, J. Olsen,
       J. M. H. Olsen, A. Osted, M. J. Packer, F. Pawlowski,
       T. B. Pedersen, P. F. Provasi, S. Reine, Z. Rinkevicius,
       T. A. Ruden, K. Ruud, V. Rybkin, P. Salek, C. C. M. Samson,
       A. Sanchez de Meras, T. Saue, S. P. A. Sauer,
       B. Schimmelpfennig, K. Sneskov, A. H. Steindal,
       K. O. Sylvester-Hvid, P. R. Taylor, A. M. Teale,
       E. I. Tellgren, D. P. Tew, A. J. Thorvaldsen, L. Thoegersen,
       O. Vahtras, M. A. Watson, D. J. D. Wilson, M. Ziolkowski
       and H. Agren,
       "The Dalton quantum chemistry program system",
       WIREs Comput. Mol. Sci. 2014, 4:269–284 (doi: 10.1002/wcms.1172)
     
    and
     
       Dalton, a Molecular Electronic Structure Program,
       Release Dalton2017.alpha (2016), see http://daltonprogram.org
   ----------------------------------------------------------------------------

    Authors in alphabetical order (major contribution(s) in parenthesis):

  Kestutis Aidas,           Vilnius University,           Lithuania   (QM/MM)
  Celestino Angeli,         University of Ferrara,        Italy       (NEVPT2)
  Keld L. Bak,              UNI-C,                        Denmark     (AOSOPPA, non-adiabatic coupling, magnetic properties)
  Vebjoern Bakken,          University of Oslo,           Norway      (DALTON; geometry optimizer, symmetry detection)
  Radovan Bast,             UiT The Arctic U. of Norway,  Norway      (DALTON installation and execution frameworks)
  Pablo Baudin,             University of Valencia,       Spain       (Cholesky excitation energies)
  Linus Boman,              NTNU,                         Norway      (Cholesky decomposition and subsystems)
  Ove Christiansen,         Aarhus University,            Denmark     (CC module)
  Renzo Cimiraglia,         University of Ferrara,        Italy       (NEVPT2)
  Sonia Coriani,            University of Trieste,        Italy       (CC module, MCD in RESPONS)
  Janusz Cukras,            University of Trieste,        Italy       (MChD in RESPONS)
  Paal Dahle,               University of Oslo,           Norway      (Parallelization)
  Erik K. Dalskov,          UNI-C,                        Denmark     (SOPPA)
  Thomas Enevoldsen,        Univ. of Southern Denmark,    Denmark     (SOPPA)
  Janus J. Eriksen,         Aarhus University,            Denmark     (Polarizable embedding model, TDA)
  Rasmus Faber,             University of Copenhagen,     Denmark     (Vib.avg. NMR with SOPPA, parallel AO-SOPPA)
  Berta Fernandez,          U. of Santiago de Compostela, Spain       (doublet spin, ESR in RESPONS)
  Lara Ferrighi,            Aarhus University,            Denmark     (PCM Cubic response)
  Heike Fliegl,             University of Oslo,           Norway      (CCSD(R12))
  Luca Frediani,            UiT The Arctic U. of Norway,  Norway      (PCM)
  Bin Gao,                  UiT The Arctic U. of Norway,  Norway      (Gen1Int library)
  Christof Haettig,         Ruhr-University Bochum,       Germany     (CC module)
  Kasper Hald,              Aarhus University,            Denmark     (CC module)
  Asger Halkier,            Aarhus University,            Denmark     (CC module)
  Frederik Beyer Hansen,    University of Copenhagen,     Denmark     (Parallel AO-SOPPA)
  Erik D. Hedegaard,        Univ. of Southern Denmark,    Denmark     (Polarizable embedding model, QM/MM)
  Hanne Heiberg,            University of Oslo,           Norway      (geometry analysis, selected one-electron integrals)
  Trygve Helgaker,          University of Oslo,           Norway      (DALTON; ABACUS, ERI, DFT modules, London, and much more)
  Alf Christian Hennum,     University of Oslo,           Norway      (Parity violation)
  Hinne Hettema,            University of Auckland,       New Zealand (quadratic response in RESPONS; SIRIUS supersymmetry)
  Eirik Hjertenaes,         NTNU,                         Norway      (Cholesky decomposition)
  Pi A. B. Haase,           University of Copenhagen,     Denmark     (Triplet AO-SOPPA)
  Maria Francesca Iozzi,    University of Oslo,           Norway      (RPA)
  Brano Jansik              Technical Univ. of Ostrava    Czech Rep.  (DFT cubic response)
  Hans Joergen Aa. Jensen,  Univ. of Southern Denmark,    Denmark     (DALTON; SIRIUS, RESPONS, ABACUS modules, London, and much more)
  Dan Jonsson,              UiT The Arctic U. of Norway,  Norway      (cubic response in RESPONS module)
  Poul Joergensen,          Aarhus University,            Denmark     (RESPONS, ABACUS, and CC modules)
  Maciej Kaminski,          University of Warsaw,         Poland      (CPPh in RESPONS)
  Joanna Kauczor,           Linkoeping University,        Sweden      (Complex polarization propagator (CPP) module)
  Sheela Kirpekar,          Univ. of Southern Denmark,    Denmark     (Mass-velocity & Darwin integrals)
  Wim Klopper,              KIT Karlsruhe,                Germany     (R12 code in CC, SIRIUS, and ABACUS modules)
  Stefan Knecht,            ETH Zurich,                   Switzerland (Parallel CI and MCSCF)
  Rika Kobayashi,           Australian National Univ.,    Australia   (DIIS in CC, London in MCSCF)
  Henrik Koch,              NTNU,                         Norway      (CC module, Cholesky decomposition)
  Jacob Kongsted,           Univ. of Southern Denmark,    Denmark     (Polarizable embedding model, QM/MM)
  Andrea Ligabue,           University of Modena,         Italy       (CTOCD, AOSOPPA)
  Nanna H. List             Univ. of Southern Denmark,    Denmark     (Polarizable embedding model)
  Ola B. Lutnaes,           University of Oslo,           Norway      (DFT Hessian)
  Juan I. Melo,             University of Buenos Aires,   Argentina   (LRESC, Relativistic Effects on NMR Shieldings)
  Kurt V. Mikkelsen,        University of Copenhagen,     Denmark     (MC-SCRF and QM/MM)
  Rolf H. Myhre,            NTNU,                         Norway      (Cholesky, subsystems and ECC2)
  Christian Neiss,          Univ. Erlangen-Nuernberg,     Germany     (CCSD(R12))
  Christian B. Nielsen,     University of Copenhagen,     Denmark     (QM/MM)
  Patrick Norman,           Linkoeping University,        Sweden      (Cubic response and complex frequency response in RESPONS)
  Jeppe Olsen,              Aarhus University,            Denmark     (SIRIUS CI/density modules)
  Jogvan Magnus H. Olsen,   Univ. of Southern Denmark,    Denmark     (Polarizable embedding model, QM/MM)
  Anders Osted,             Copenhagen University,        Denmark     (QM/MM)
  Martin J. Packer,         University of Sheffield,      UK          (SOPPA)
  Filip Pawlowski,          Kazimierz Wielki University,  Poland      (CC3)
  Morten N. Pedersen,       Univ. of Southern Denmark,    Denmark     (Polarizable embedding model)
  Thomas B. Pedersen,       University of Oslo,           Norway      (Cholesky decomposition)
  Patricio F. Provasi,      University of Northeastern,   Argentina   (Analysis of coupling constants in localized orbitals)
  Zilvinas Rinkevicius,     KTH Stockholm,                Sweden      (open-shell DFT, ESR)
  Elias Rudberg,            KTH Stockholm,                Sweden      (DFT grid and basis info)
  Torgeir A. Ruden,         University of Oslo,           Norway      (Numerical derivatives in ABACUS)
  Kenneth Ruud,             UiT The Arctic U. of Norway,  Norway      (DALTON; ABACUS magnetic properties and much more)
  Pawel Salek,              KTH Stockholm,                Sweden      (DALTON; DFT code)
  Claire C. M. Samson       University of Karlsruhe       Germany     (Boys localization, r12 integrals in ERI)
  Alfredo Sanchez de Meras, University of Valencia,       Spain       (CC module, Cholesky decomposition)
  Trond Saue,               Paul Sabatier University,     France      (direct Fock matrix construction)
  Stephan P. A. Sauer,      University of Copenhagen,     Denmark     (SOPPA(CCSD), SOPPA prop., AOSOPPA, vibrational g-factors)
  Bernd Schimmelpfennig,    Forschungszentrum Karlsruhe,  Germany     (AMFI module)
  Kristian Sneskov,         Aarhus University,            Denmark     (Polarizable embedding model, QM/MM)
  Arnfinn H. Steindal,      UiT The Arctic U. of Norway,  Norway      (parallel QM/MM, Polarizable embedding model)
  Casper Steinmann,         Univ. of Southern Denmark,    Denmark     (QFIT, Polarizable embedding model)
  K. O. Sylvester-Hvid,     University of Copenhagen,     Denmark     (MC-SCRF)
  Peter R. Taylor,          VLSCI/Univ. of Melbourne,     Australia   (Symmetry handling ABACUS, integral transformation)
  Andrew M. Teale,          University of Nottingham,     England     (DFT-AC, DFT-D)
  David P. Tew,             University of Bristol,        England     (CCSD(R12))
  Olav Vahtras,             KTH Stockholm,                Sweden      (triplet response, spin-orbit, ESR, TDDFT, open-shell DFT)
  David J. Wilson,          La Trobe University,          Australia   (DFT Hessian and DFT magnetizabilities)
  Hans Agren,               KTH Stockholm,                Sweden      (SIRIUS module, RESPONS, MC-SCRF solvation model)
 --------------------------------------------------------------------------------

     Date and time (Linux)  : Fri Dec  7 14:36:41 2018
     Host name              : s73p28.deic.sdu.dk                      

 * Work memory size             :  2048000000 = 15.259 gigabytes.

 * Directories for basis set searches:
   1) /work/sdujk/reinholdt/ECP-Sonia
   2) /gpfs/gss1/work/sdujk/reinholdt/Programs/dalton-private/pe-cvs/basis


Compilation information
-----------------------

 Who compiled             | reinholdt
 Host                     | s73p27.deic.sdu.dk
 System                   | Linux-3.10.0-327.36.3.el7.x86_64
 CMake generator          | Unix Makefiles
 Processor                | x86_64
 64-bit integers          | OFF
 MPI                      | ON
 Fortran compiler         | /opt/sys/apps/intel/2018.05/impi_latest/intel64/bi
                          | n/mpif90
 C compiler               | /opt/sys/apps/intel/2018.05/impi_latest/intel64/bi
                          | n/mpicc
 C++ compiler             | /opt/sys/apps/intel/2018.05/impi_latest/intel64/bi
                          | n/mpicxx
 C++ compiler version     | unknown
 BLAS                     | /opt/sys/apps/intel/2018.05/compilers_and_librarie
                          | s_2018.3.222/linux/mkl/lib/intel64/libmkl_intel_lp
                          | 64.so;/opt/sys/apps/intel/2018.05/compilers_and_li
                          | braries_2018.3.222/linux/mkl/lib/intel64/libmkl_se
                          | quential.so;/opt/sys/apps/intel/2018.05/compilers_
                          | and_libraries_2018.3.222/linux/mkl/lib/intel64/lib
                          | mkl_core.so;/usr/lib64/libpthread.so;/usr/lib64/li
                          | bm.so
 LAPACK                   | /opt/sys/apps/intel/2018.05/compilers_and_librarie
                          | s_2018.3.222/linux/mkl/lib/intel64/libmkl_lapack95
                          | _lp64.a;/opt/sys/apps/intel/2018.05/compilers_and_
                          | libraries_2018.3.222/linux/mkl/lib/intel64/libmkl_
                          | intel_lp64.so
 Static linking           | OFF
 Last Git revision        | 252a54078a0f9a1f0a59b3262fa4a57829155fe9
 Git branch               | pe/cc-cvs
 Configuration time       | 2018-12-06 10:55:01.793667

 * Sequential calculation.


   Content of the .dal input file
 ----------------------------------

**DALTON
.RUN WAVE FUNCTIONS
.PEQM
**INTEGRALS
.DIPLEN
**WAVE FUNCTIONS
.CC
*PRINT
!To check the origin of excit
.PRINTL
   0 11
*SCF INP
.THRESH
1.0D-7
*CC INP
.CCSD
.THRLEQ
 1.0D-9
.THRENR
 1.0D-10
.FROIMP
4
0
.PRINT
 1
.MAX IT
 1200
.MAXRED
 1200
.MXLRV
1199
*PECC
*CCEXCI
.NCCEXC
 15
.CVSEPARA
1
1
*CCLRSD
.DIPOLE
**END OF DALTON INPUT


   Content of the .mol file
 ----------------------------

ATOMBASIS


Atomtypes=4 Charge=0 Nosymm Angstrom
   7.00000    1    Basis=6-311G**
N          0.000000        0.000000        0.000000
   1.00000    3    Basis=6-311G**
H         -0.113818       -0.008972        0.990350
H         -0.436619       -0.825462       -0.358274
H          0.942070       -0.009928       -0.222225
   8.00000    4    Basis=6-311G**
O         -0.788956       -1.460330       -2.897238
O         -0.665608        2.186449       -1.219983
O         -0.170838        0.979297        3.239601
O          2.660495        1.061438        0.091784
   1.00000    8    Basis=6-311G**
H         -1.169333       -1.104885       -3.740086
H         -1.557012       -1.895931       -2.459296
H         -0.317428        1.968377       -2.114621
H         -0.449851        1.315757       -0.653535
H         -0.932131        0.380297        3.520217
H          0.175663        1.568757        3.961276
H          2.882927        2.011081       -0.120185
H          2.559537        0.873746        1.069939


       *******************************************************************
       *********** Output from DALTON general input processing ***********
       *******************************************************************

 --------------------------------------------------------------------------------
   Overall default print level:    0
   Print level for DALTON.STAT:    1

    HERMIT 1- and 2-electron integral sections will be executed
    "Old" integral transformation used (limited to max 255 basis functions)
    Wave function sections will be executed (SIRIUS module)
    Environment is modeled using polarizable embedding scheme (PE library)
 --------------------------------------------------------------------------------


   ****************************************************************************
   *************** Output of molecule and basis set information ***************
   ****************************************************************************


    The two title cards from your ".mol" input:
    ------------------------------------------------------------------------
 1:                                                                         
 2:                                                                         
    ------------------------------------------------------------------------

  Coordinates are entered in Angstrom and converted to atomic units.
          - Conversion factor : 1 bohr = 0.52917721 A

  Atomic type no.    1
  --------------------
  Nuclear charge:   7.00000
  Number of symmetry independent centers:    1
  Number of basis sets to read;    2
  The basis set is "6-311G**" from the basis set library.
  Basis set file used for this atomic type with Z =   7 :
     "/gpfs/gss1/work/sdujk/reinholdt/Programs/dalton-private/pe-cvs/basis/6-311G**"

  Info about the basis set file: your basis has no documentation.
  Basis set: 6-311G**                                                                        

  Atomic type no.    2
  --------------------
  Nuclear charge:   1.00000
  Number of symmetry independent centers:    3
  Number of basis sets to read;    2
  The basis set is "6-311G**" from the basis set library.
  Basis set file used for this atomic type with Z =   1 :
     "/gpfs/gss1/work/sdujk/reinholdt/Programs/dalton-private/pe-cvs/basis/6-311G**"

  Info about the basis set file: your basis has no documentation.
  Basis set: 6-311G**                                                                        

  Atomic type no.    3
  --------------------
  Nuclear charge:   8.00000
  Number of symmetry independent centers:    4
  Number of basis sets to read;    2
  The basis set is "6-311G**" from the basis set library.
  Basis set file used for this atomic type with Z =   8 :
     "/gpfs/gss1/work/sdujk/reinholdt/Programs/dalton-private/pe-cvs/basis/6-311G**"

  Info about the basis set file: your basis has no documentation.
  Basis set: 6-311G**                                                                        

  Atomic type no.    4
  --------------------
  Nuclear charge:   1.00000
  Number of symmetry independent centers:    8
  Number of basis sets to read;    2
  The basis set is "6-311G**" from the basis set library.
  Basis set file used for this atomic type with Z =   1 :
     "/gpfs/gss1/work/sdujk/reinholdt/Programs/dalton-private/pe-cvs/basis/6-311G**"

  Info about the basis set file: your basis has no documentation.
  Basis set: 6-311G**                                                                        


                         SYMGRP: Point group information
                         -------------------------------

@    Point group: C1 


                                 Isotopic Masses
                                 ---------------

                           N          14.003074
                           H           1.007825
                           H           1.007825
                           H           1.007825
                           O          15.994915
                           O          15.994915
                           O          15.994915
                           O          15.994915
                           H           1.007825
                           H           1.007825
                           H           1.007825
                           H           1.007825
                           H           1.007825
                           H           1.007825
                           H           1.007825
                           H           1.007825

                       Total mass:    89.068809 amu
                       Natural abundance:  98.514 %

 Center-of-mass coordinates (a.u.):    0.385135    1.030312   -0.269382


  Atoms and basis sets
  --------------------

  Number of atom types :    4
  Total number of atoms:   16

  label    atoms   charge   prim   cont     basis
  ----------------------------------------------------------------------
  N           1    7.0000    31    18      [11s5p1d|4s3p1d]                                   
  H           3    1.0000     8     6      [5s1p|3s1p]                                        
  O           4    8.0000    31    18      [11s5p1d|4s3p1d]                                   
  H           8    1.0000     8     6      [5s1p|3s1p]                                        
  ----------------------------------------------------------------------
  total:     16   50.0000   243   156
  ----------------------------------------------------------------------
  Spherical harmonic basis used.

  Threshold for neglecting AO integrals:  1.00D-12


  Cartesian Coordinates (a.u.)
  ----------------------------

  Total number of coordinates:   48
  N       :     1  x   0.0000000000    2  y   0.0000000000    3  z   0.0000000000
  H       :     4  x  -0.2150848481    5  y  -0.0169546228    6  z   1.8714902679
  H       :     7  x  -0.8250903310    8  y  -1.5598971066    9  z  -0.6770397377
  H       :    10  x   1.7802542906   11  y  -0.0187612010   12  z  -0.4199443881
  O       :    13  x  -1.4909107647   14  y  -2.7596237521   15  z  -5.4749863389
  O       :    16  x  -1.2578168266   17  y   4.1317897963   18  z  -2.3054337471
  O       :    19  x  -0.3228370317   20  y   1.8506031250   21  z   6.1219586443
  O       :    22  x   5.0276069069   23  y   2.0058271187   24  z   0.1734466227
  H       :    25  x  -2.2097191189   26  y  -2.0879300496   27  z  -7.0677382239
  H       :    28  x  -2.9423262533   29  y  -3.5827903419   30  z  -4.6473959003
  H       :    31  x  -0.5998519844   32  y   3.7196934407   33  z  -3.9960545482
  H       :    34  x  -0.8500951871   35  y   2.4864203770   36  z  -1.2350021631
  H       :    37  x  -1.7614723026   38  y   0.7186571762   39  z   6.6522460305
  H       :    40  x   0.3319549603   41  y   2.9645210867   42  z   7.4857267455
  H       :    43  x   5.4479424683   44  y   3.8003923052   45  z  -0.2271167343
  H       :    46  x   4.8368239368   47  y   1.6511406428   48  z   2.0218916804


   Interatomic separations (in Angstrom):
   --------------------------------------

            N           H           H           H           O           O     
            ------      ------      ------      ------      ------      ------
 N     :    0.000000
 H     :    0.996909    0.000000
 H     :    1.000192    1.609237    0.000000
 H     :    0.967976    1.607868    1.607603    0.000000
 O     :    3.339012    4.204235    2.640746    3.500830    0.000000
 O     :    2.590743    3.163845    3.141112    2.899004    4.015893    0.000000
 O     :    3.388690    2.457449    4.033919    3.768470    6.632846    4.646494
 O     :    2.865887    3.106447    3.654457    2.049247    5.214622    3.748245
 H     :    4.071407    4.969121    3.471541    4.246446    0.990667    4.175828
 H     :    3.473756    4.188494    2.610647    3.847974    0.985622    4.358477
 H     :    2.906353    3.686762    3.302196    3.013501    3.548360    0.984460
 H     :    1.536454    2.137799    2.161521    1.970003    3.585506    1.060905
 H     :    3.661342    2.687265    4.091709    4.203662    6.677734    5.079637
 H     :    4.264219    3.376304    4.976513    4.536662    7.559436    5.285331
 H     :    3.517124    3.780791    4.372876    2.803893    5.765886    3.719195
 H     :    2.908510    2.816443    3.728814    2.250948    5.691995    4.167552

            O           O           H           H           H           H     
            ------      ------      ------      ------      ------      ------
 O     :    0.000000
 O     :    4.234613    0.000000
 H     :    7.352336    5.834704    0.000000
 H     :    6.531909    5.748165    1.554501    0.000000
 H     :    5.446784    3.815598    3.579500    4.072867    0.000000
 H     :    3.917596    3.208494    3.987977    3.847274    1.605684    0.000000
 H     :    1.008520    5.012491    7.414447    6.428551    5.886532    4.304403
 H     :    0.994153    4.626525    8.262466    7.498665    6.108957    4.663878
 H     :    4.655988    0.998113    6.263684    6.359972    3.771190    3.446063
 H     :    3.489057    1.001103    6.399671    6.088726    4.429059    3.496020

            H           H           H           H     
            ------      ------      ------      ------
 H     :    0.000000
 H     :    1.683502    0.000000
 H     :    5.519660    4.917647    0.000000
 H     :    4.294077    3.811263    1.677649    0.000000


  Max    interatomic separation is    8.2625 Angstrom (   15.6138 Bohr)
  between atoms   14 and    9, "H     " and "H     ".

  Min HX interatomic separation is    0.9680 Angstrom (    1.8292 Bohr)

  Min YX interatomic separation is    2.5907 Angstrom (    4.8958 Bohr)


  Bond distances (Angstrom):
  --------------------------

                  atom 1     atom 2       distance
                  ------     ------       --------
  bond distance:  H          N            0.996909
  bond distance:  H          N            1.000192
  bond distance:  H          N            0.967976
  bond distance:  H          O            0.990667
  bond distance:  H          O            0.985622
  bond distance:  H          O            0.984460
  bond distance:  H          O            1.060905
  bond distance:  H          O            1.008520
  bond distance:  H          O            0.994153
  bond distance:  H          O            0.998113
  bond distance:  H          O            1.001103


  Bond angles (degrees):
  ----------------------

                  atom 1     atom 2     atom 3         angle
                  ------     ------     ------         -----
  bond angle:     H          N          H            107.372
  bond angle:     H          N          H            109.821
  bond angle:     H          N          H            109.521
  bond angle:     H          O          H            103.733
  bond angle:     H          O          H            103.385
  bond angle:     H          O          H            114.411
  bond angle:     H          O          H            114.102




 Principal moments of inertia (u*A**2) and principal axes
 --------------------------------------------------------

   IA     235.130813          0.228877    0.332333    0.914970
   IB     523.144408          0.880921    0.329258   -0.339952
   IC     570.294776         -0.414239    0.883823   -0.217400


 Rotational constants
 --------------------

               A                   B                   C

           2149.3525            966.0411            886.1716 MHz
            0.071695            0.032224            0.029560 cm-1


@  Nuclear repulsion energy :  185.617522540833 Hartree

  Reading potential input file for polarizable embedding calculation
 
    .------------------------------------------------.
    | Information from polarizable embedding library |
    `------------------------------------------------´

      Number of classical sites:    177

      Multipole moments upto 0th order.

      Dipole-dipole polarizabilities.

      Iterative solver for induced moments will be used
      with convergence threshold: 1.0E-08
      Total charge of classical region:    0.0000
 


                     .---------------------------------------.
                     | Starting in Integral Section (HERMIT) |
                     `---------------------------------------'



 ***************************************************************************************
 ****************** Output from **INTEGRALS input processing (HERMIT) ******************
 ***************************************************************************************



    *************************************************************************
    ****************** Output from HERMIT input processing ******************
    *************************************************************************


 Default print level:        1

 * Nuclear model: Point charge

 Calculation of one- and two-electron Hamiltonian integrals.

 The following one-electron property integrals are calculated as requested:
          - overlap integrals
          - dipole length integrals

 Center of mass  (bohr):      0.385134694563      1.030311607711     -0.269381534666
 Operator center (bohr):      0.000000000000      0.000000000000      0.000000000000
 Gauge origin    (bohr):      0.000000000000      0.000000000000      0.000000000000
 Dipole origin   (bohr):      0.000000000000      0.000000000000      0.000000000000


     ************************************************************************
     ************************** Output from HERINT **************************
     ************************************************************************



                      Nuclear contribution to dipole moments
                      --------------------------------------

                 au               Debye          C m (/(10**-30)

      x     18.64167390        47.38240581       158.05069322
      y     49.90326201       126.84143196       423.09747484
      z    -12.11905552       -30.80356463      -102.74963165



 Threshold for neglecting two-electron integrals:  1.00D-12
 HERMIT - Number of two-electron integrals written:    29228096 ( 39.0% )
 HERMIT - Megabytes written:                            334.678

  Time used in TWOINT     is       5.31 seconds
  Total CPU  time used in HERMIT:   5.51 seconds
  Total wall time used in HERMIT:   5.85 seconds


                        .----------------------------------.
                        | End of Integral Section (HERMIT) |
                        `----------------------------------'



                   .--------------------------------------------.
                   | Starting in Wave Function Section (SIRIUS) |
                   `--------------------------------------------'

 INPUT: SIMPLE =  F
NCCEXCI for singlet:   15
 CCSD_INPUT: core-val requested
 Requested number of core orbs per sym
           1
 Indices of requested core orbs
           1

 *** Output from Huckel module :

     Using EWMO model:          T
     Using EHT  model:          F
     Number of Huckel orbitals each symmetry:   36

 EWMO - Energy Weighted Maximum Overlap - is a Huckel type method,
        which normally is better than Extended Huckel Theory.
 Reference: Linderberg and Ohrn, Propagators in Quantum Chemistry (Wiley, 1973)

 Huckel EWMO eigenvalues for symmetry :  1
          -20.684516     -20.684419     -20.684305     -20.684062     -15.675136
           -1.763698      -1.595028      -1.577440      -1.570817      -1.451688
           -0.814194      -0.806779      -0.800425      -0.778485      -0.754556
           -0.721361      -0.698201      -0.688679      -0.664139      -0.647023
           -0.616183      -0.610691      -0.608511      -0.585827      -0.501427
           -0.260081      -0.246580      -0.242815      -0.221036      -0.179724
           -0.179344      -0.178466      -0.174385      -0.151105      -0.142363
           -0.132313

 **********************************************************************
 *SIRIUS* a direct, restricted step, second order MCSCF program       *
 **********************************************************************

 
     Date and time (Linux)  : Fri Dec  7 14:36:47 2018
     Host name              : s73p28.deic.sdu.dk                      

 Title lines from ".mol" input file:
                                                                             
                                                                             

 Print level on unit LUPRI =   2 is   0
 Print level on unit LUW4  =   2 is  11

@    (Integral direct) CC calculation.

@    This is a combination run starting with
@              a restricted, closed shell Hartree-Fock calculation


 Initial molecular orbitals are obtained according to
 ".MOSTART EWMO  " input option

@    QM part is embedded in an environment :

@         Model: PE

     Wave function specification
     ============================

     For the specification of the Coupled Cluster: see later.


     Wave function environment is modeled using the
     polarizable embedding model (PE library).

@    Wave function type        --- PE-CC ---
@    Number of closed shell electrons          50
@    Number of electrons in active shells       0
@    Total charge of the molecule               0

@    Spin multiplicity and 2 M_S                1         0
@    Total number of symmetries                 1 (point group: C1 )
@    Reference state symmetry                   1 (irrep name : A  )

     Orbital specifications
     ======================
@    Abelian symmetry species          All |    1
@                                          |  A  
                                       --- |  ---
@    Occupied SCF orbitals              25 |   25
@    Secondary orbitals                131 |  131
@    Total number of orbitals          156 |  156
@    Number of basis functions         156 |  156

     Optimization information
     ========================
@    Number of configurations                 1
@    Number of orbital rotations           3275
     ------------------------------------------
@    Total number of variables             3276

     Maximum number of Fock   iterations      0
     Maximum number of DIIS   iterations     60
     Maximum number of QC-SCF iterations     60
     Threshold for SCF convergence     1.00D-07


 Changes of defaults for CC:
 ---------------------------


 -Implicit frozen core calculation
 -Excitation energies calculated
 -One-photon absorption strengths will be calculated
 -Oscillator strengths calculated
  
* Read MO coefficients from SIRIUS.RST with label "NEWORB  " and header info:  7Dec18  REORTHO 


 ***********************************************
 ***** DIIS acceleration of SCF iterations *****
 ***********************************************

 C1-DIIS algorithm; max error vectors =    8
 -----------------------------------------------------------------------------

 *** DIIS iteration number    1
 RDSUPM called. NFMAT, ISYMDM(1:NFMAT)           1           1

Calculating AOSUPINT
     (Precalculated AO two-electron integrals are transformed to P-supermatrix elements.
      Threshold for discarding integrals :  1.00D-12 )
  CPU  time used in FORMSUP    is   2.18 seconds
  WALL time used in FORMSUP    is   3.41 seconds

 ITDIIS, energy, error norm, change in energy, scr.thr., difden:
@ DIIS iter.   1    -359.933601549        3.84910D+00   -3.60D+02  -20    F

 (DIIS_RED) Control Parameters C2DIIS =         F NEVC =    1


 (DIIS_RED) B matrix:

               Column   1
       1      14.81557804
    ==== End of matrix output ====

 DIIS C vector; C2DIIS = F, LAMBDA = -1.48D+01
    1.000000
* Read MO coefficients from SIRIUS.RST with label "NEWORB  " and header info:  7Dec18  DIIS   1
      Virial theorem: -V/T =      1.997605
@    MULPOP   N      -0.26; H       0.15; H       0.16; H       0.18; O      -0.64; O      -0.93; O      -0.61; O      -0.62; H       0.32; H       0.33; 
@             H       0.32; H       0.32; H       0.33; H       0.31; H       0.31; H       0.33; 
   1  Level shift: doubly occupied orbital energies shifted by -2.00D-01

 DIIS Fock eigenvalues in symmetry 1
      -20.72787      -20.70977      -20.67934      -20.43538      -16.06913
       -1.54043       -1.53642       -1.50796       -1.50018       -1.40750
       -1.00514       -0.98936       -0.93554       -0.93390       -0.88793
       -0.88689       -0.79124       -0.77693       -0.75890       -0.75696
       -0.74466       -0.74026       -0.70643       -0.65807       -0.61899
        0.10006        0.14756        0.15531        0.19868        0.22787
        0.24471        0.25867        0.27015        0.29182        0.30837
        0.35306        0.43329        0.46050        0.48878        0.51957
        0.53967        0.54840        0.57613        0.58093        0.60923
        0.62268        0.68080        0.81642        0.82279        0.86854
        0.94035        0.97390        0.99855        1.02807        1.03508
        1.05068        1.07746        1.07931        1.10419        1.11525
        1.13134        1.18434        1.21207        1.24012        1.27339
        1.33489        1.36422        1.37706        1.43247        1.43844
        1.47564        1.49783        1.50633        1.56249        1.59549
        1.61375        1.66667        1.68044        1.68651        1.70867
        1.72602        1.76253        1.77079        1.79191        1.82829
        1.87925        1.89665        1.94701        2.02041        2.13147
        2.17676        2.20482        2.21024        2.21485        2.25119
        2.27183        2.33508        2.36358        2.40546        2.47416
        2.57431        2.58881        2.61063        2.62442        2.66637
        2.68692        2.73638        2.76246        2.78784        2.83619
        2.87184        2.88783        3.02060        3.13160        3.32154
        3.34390        3.35391        3.38322        3.46993        3.48554
        3.50857        3.51572        3.53530        3.55708        3.57076
        3.60638        3.67101        3.74770        3.98716        3.99743
        4.01635        4.03139        4.12492        4.14212        4.23418
        4.24394        4.63835        5.05395        5.15150        5.28805
        5.36644        5.36928        5.50214        5.67697        5.72243
        5.76290        5.92221        6.09087        6.10206        6.10434
        6.30223       36.77171       51.53050       51.55564       51.58332
       51.85846
 Time used in FCKEIG, thr_jaco:   3.91D-02  3.90D-02  1.68D-04
 CPU and wall times used in FCKEIG, THR_FCKEIG:   3.91D-02  3.90D-02  3.85D-02
 -----------------------------------------------------------------------------

 *** DIIS iteration number    2
 RDSUPM called. NFMAT, ISYMDM(1:NFMAT)           1           1

 ITDIIS, energy, error norm, change in energy, scr.thr., difden:
@ DIIS iter.   2    -360.727379520        1.03704D+00   -7.94D-01  -20    F

 (DIIS_RED) Control Parameters C2DIIS =         F NEVC =    2


 (DIIS_RED) B matrix:

               Column   1     Column   2
       1      14.81557804
       2       0.60297210     1.07544981
    ==== End of matrix output ====

 DIIS C vector; C2DIIS = F, LAMBDA = -1.06D+00
    0.032174    0.967826
* Read MO coefficients from SIRIUS.RST with label "NEWORB  " and header info:  7Dec18  DIIS   2
      Virial theorem: -V/T =      2.004289
@    MULPOP   N      -0.66; H       0.24; H       0.24; H       0.26; O      -0.55; O      -0.74; O      -0.62; O      -0.56; H       0.28; H       0.29; 
@             H       0.26; H       0.33; H       0.35; H       0.30; H       0.30; H       0.28; 
   2  Level shift: doubly occupied orbital energies shifted by -1.00D-01

 DIIS Fock eigenvalues in symmetry 1
      -20.73288      -20.68895      -20.67679      -20.63932      -15.50321
       -1.43757       -1.43301       -1.42077       -1.40009       -1.22567
       -0.81968       -0.81284       -0.78157       -0.76332       -0.73832
       -0.72029       -0.69782       -0.67794       -0.67573       -0.65541
       -0.63581       -0.62641       -0.62411       -0.58661       -0.51018
        0.13791        0.18052        0.18716        0.23544        0.24436
        0.26857        0.27691        0.30410        0.32417        0.34962
        0.37182        0.50544        0.52764        0.54833        0.56060
        0.57694        0.58111        0.60784        0.61331        0.63371
        0.66177        0.72900        0.89977        0.91620        0.95321
        0.96667        1.00171        1.00692        1.03111        1.05394
        1.05819        1.09714        1.10852        1.12641        1.14001
        1.15350        1.17740        1.28634        1.29902        1.34576
        1.35982        1.39868        1.44441        1.48485        1.49379
        1.51168        1.53334        1.56363        1.59328        1.63500
        1.64833        1.66854        1.71909        1.74588        1.75299
        1.77586        1.81800        1.82785        1.87300        1.90112
        1.94671        1.96975        2.04630        2.09740        2.23906
        2.25377        2.25567        2.27343        2.30239        2.30562
        2.32348        2.36794        2.40306        2.50282        2.57187
        2.63838        2.66134        2.66848        2.67996        2.71452
        2.76758        2.80064        2.82195        2.85245        2.89668
        3.06036        3.06257        3.13296        3.29839        3.37769
        3.39798        3.42798        3.48527        3.49163        3.51018
        3.51072        3.53430        3.54928        3.57583        3.59283
        3.59697        3.64696        3.69512        3.94502        4.00710
        4.03963        4.04391        4.14647        4.15961        4.17416
        4.25261        4.78712        5.28596        5.28905        5.32937
        5.35528        5.36518        5.42601        5.67910        5.70841
        5.74156        5.76123        6.10491        6.10799        6.11491
        6.14147       37.22830       51.46802       51.47947       51.48405
       51.52609
 Time used in FCKEIG, thr_jaco:   2.66D-02  2.60D-02  4.53D-05
 CPU and wall times used in FCKEIG, THR_FCKEIG:   2.66D-02  2.60D-02  1.04D-02
 -----------------------------------------------------------------------------

 *** DIIS iteration number    3
 RDSUPM called. NFMAT, ISYMDM(1:NFMAT)           1           1

 ITDIIS, energy, error norm, change in energy, scr.thr., difden:
@ DIIS iter.   3    -360.792305257        3.97703D-01   -6.49D-02  -20    F

 (DIIS_RED) Control Parameters C2DIIS =         F NEVC =    3


 (DIIS_RED) B matrix:

               Column   1     Column   2     Column   3
       1      14.81557804
       2       0.60297210     1.07544981
       3       0.81940310    -0.01473647     0.15816729
    ==== End of matrix output ====

 DIIS C vector; C2DIIS = F, LAMBDA = -1.02D-01
   -0.049145    0.135196    0.913950
* Read MO coefficients from SIRIUS.RST with label "NEWORB  " and header info:  7Dec18  DIIS   3
      Virial theorem: -V/T =      2.001670
@    MULPOP   N      -0.55; H       0.20; H       0.20; H       0.23; O      -0.59; O      -0.85; O      -0.68; O      -0.61; H       0.30; H       0.31; 
@             H       0.34; H       0.38; H       0.38; H       0.32; H       0.32; H       0.31; 
   3  Level shift: doubly occupied orbital energies shifted by -5.00D-02

 DIIS Fock eigenvalues in symmetry 1
      -20.60193      -20.59647      -20.55958      -20.51517      -15.59371
       -1.37195       -1.37006       -1.33820       -1.31635       -1.21055
       -0.75286       -0.75058       -0.71020       -0.70104       -0.69396
       -0.68735       -0.61479       -0.60771       -0.60160       -0.59082
       -0.56543       -0.55352       -0.51643       -0.51173       -0.47117
        0.14382        0.18560        0.19177        0.23727        0.25113
        0.27389        0.28190        0.30771        0.32728        0.35089
        0.37663        0.50705        0.53043        0.56098        0.57100
        0.58633        0.59085        0.61764        0.62172        0.64511
        0.67077        0.73596        0.90897        0.91646        0.96109
        0.98083        1.00783        1.03132        1.03757        1.06614
        1.07036        1.10759        1.12091        1.13755        1.15687
        1.16397        1.19896        1.28557        1.30698        1.35164
        1.36560        1.40974        1.44474        1.49673        1.50486
        1.52587        1.54636        1.57541        1.61029        1.65101
        1.66298        1.68567        1.73297        1.75609        1.76378
        1.78722        1.82982        1.83748        1.87952        1.90754
        1.95435        1.97614        2.04872        2.10316        2.24817
        2.26411        2.26853        2.27389        2.30525        2.31902
        2.33789        2.38806        2.41821        2.51009        2.57913
        2.64973        2.67389        2.67781        2.68921        2.72711
        2.77776        2.81026        2.83137        2.86288        2.90539
        3.03623        3.04154        3.13295        3.27970        3.39637
        3.42191        3.48915        3.49573        3.51688        3.52630
        3.52977        3.55456        3.55812        3.56596        3.60685
        3.61293        3.70926        3.71558        3.99508        4.02589
        4.05915        4.06794        4.16910        4.18312        4.22987
        4.27305        4.75911        5.27433        5.31113        5.36791
        5.38192        5.38572        5.40217        5.69907        5.73731
        5.77959        5.83368        6.12972        6.13650        6.13856
        6.22850       37.09233       51.50912       51.52176       51.55607
       51.63433
 Time used in FCKEIG, thr_jaco:   2.34D-02  2.40D-02  1.74D-05
 CPU and wall times used in FCKEIG, THR_FCKEIG:   2.34D-02  2.40D-02  3.98D-03
 -----------------------------------------------------------------------------

 *** DIIS iteration number    4
 RDSUPM called. NFMAT, ISYMDM(1:NFMAT)           1           1

 ITDIIS, energy, error norm, change in energy, scr.thr., difden:
@ DIIS iter.   4    -360.802478115        1.04011D-01   -1.02D-02  -20    F

 (DIIS_RED) Control Parameters C2DIIS =         F NEVC =    4


 (DIIS_RED) B matrix:

               Column   1     Column   2     Column   3     Column   4
       1      14.81557804
       2       0.60297210     1.07544981
       3       0.81940310    -0.01473647     0.15816729
       4       0.02496906     0.08645412    -0.00262406     0.01081826
    ==== End of matrix output ====

 DIIS C vector; C2DIIS = F, LAMBDA = -4.32D-03
   -0.000440   -0.078771    0.039522    1.039690
* Read MO coefficients from SIRIUS.RST with label "NEWORB  " and header info:  7Dec18  DIIS   4
      Virial theorem: -V/T =      2.002619
@    MULPOP   N      -0.62; H       0.21; H       0.22; H       0.25; O      -0.60; O      -0.84; O      -0.70; O      -0.62; H       0.31; H       0.31; 
@             H       0.34; H       0.39; H       0.39; H       0.33; H       0.33; H       0.31; 
   4  Level shift: doubly occupied orbital energies shifted by -2.50D-02

 DIIS Fock eigenvalues in symmetry 1
      -20.58084      -20.57816      -20.53878      -20.52861      -15.55072
       -1.34922       -1.34737       -1.31566       -1.30320       -1.17902
       -0.72929       -0.72775       -0.68208       -0.67599       -0.67172
       -0.65782       -0.58908       -0.58549       -0.58031       -0.56556
       -0.53840       -0.52679       -0.49520       -0.48940       -0.44215
        0.14414        0.18513        0.19165        0.23744        0.25082
        0.27415        0.28111        0.30940        0.32810        0.35259
        0.37800        0.51067        0.53360        0.56221        0.57071
        0.58570        0.59111        0.61739        0.62140        0.64386
        0.66957        0.73756        0.91125        0.92026        0.96429
        0.98136        1.01020        1.02872        1.03950        1.06628
        1.07068        1.10780        1.12142        1.13766        1.15591
        1.16412        1.19486        1.28856        1.30761        1.35367
        1.36669        1.41092        1.44784        1.49510        1.50520
        1.52476        1.54514        1.57355        1.60837        1.64997
        1.66157        1.68326        1.73222        1.75544        1.76230
        1.78781        1.82961        1.83655        1.88141        1.90987
        1.95416        1.97747        2.05250        2.10604        2.24981
        2.26373        2.26705        2.27563        2.30850        2.31741
        2.33573        2.38379        2.41553        2.51307        2.58272
        2.64836        2.67296        2.67878        2.68998        2.72621
        2.77987        2.81081        2.83065        2.86095        2.90661
        3.04416        3.04901        3.13664        3.28617        3.39597
        3.42155        3.48003        3.49785        3.51954        3.52858
        3.53255        3.54793        3.55423        3.56909        3.60686
        3.61267        3.69905        3.71466        3.98658        4.02507
        4.05835        4.06697        4.16877        4.18271        4.22027
        4.27279        4.76375        5.28367        5.31049        5.36547
        5.37951        5.38373        5.39557        5.69803        5.73544
        5.77789        5.81628        6.12755        6.13357        6.13621
        6.21077       37.11021       51.50543       51.51532       51.55207
       51.59661
 Time used in FCKEIG, thr_jaco:   2.16D-02  2.20D-02  4.54D-06
 CPU and wall times used in FCKEIG, THR_FCKEIG:   2.16D-02  2.20D-02  1.04D-03
 -----------------------------------------------------------------------------

 *** DIIS iteration number    5
 RDSUPM called. NFMAT, ISYMDM(1:NFMAT)           1           1

 ITDIIS, energy, error norm, change in energy, scr.thr., difden:
@ DIIS iter.   5    -360.803579354        2.60807D-02   -1.10D-03  -20    F

 (DIIS_RED) Control Parameters C2DIIS =         F NEVC =    5


 (DIIS_RED) B matrix:

               Column   1     Column   2     Column   3     Column   4     Column   5
       1      14.81557804
       2       0.60297210     1.07544981
       3       0.81940310    -0.01473647     0.15816729
       4       0.02496906     0.08645412    -0.00262406     0.01081826
       5       0.01640544     0.00714574     0.00527687     0.00103266     0.00068020
    ==== End of matrix output ====

 DIIS C vector; C2DIIS = F, LAMBDA = -4.66D-04
    0.001401   -0.006209   -0.040895   -0.022393    1.068096
* Read MO coefficients from SIRIUS.RST with label "NEWORB  " and header info:  7Dec18  DIIS   5
      Virial theorem: -V/T =      2.002248
@    MULPOP   N      -0.62; H       0.21; H       0.22; H       0.25; O      -0.61; O      -0.86; O      -0.71; O      -0.63; H       0.31; H       0.32; 
@             H       0.35; H       0.39; H       0.40; H       0.33; H       0.33; H       0.32; 
   5  Level shift: doubly occupied orbital energies shifted by -1.25D-02

 DIIS Fock eigenvalues in symmetry 1
      -20.56755      -20.56385      -20.52588      -20.50768      -15.52996
       -1.33651       -1.33415       -1.30293       -1.28773       -1.16399
       -0.71664       -0.71553       -0.66787       -0.66319       -0.65730
       -0.64345       -0.57635       -0.57098       -0.56666       -0.55321
       -0.52479       -0.51277       -0.47915       -0.47580       -0.42670
        0.14426        0.18510        0.19171        0.23754        0.25100
        0.27425        0.28110        0.30992        0.32832        0.35298
        0.37856        0.51144        0.53433        0.56320        0.57076
        0.58564        0.59132        0.61743        0.62146        0.64424
        0.66967        0.73855        0.91294        0.92184        0.96543
        0.98269        1.01150        1.03058        1.04057        1.06670
        1.07161        1.10810        1.12185        1.13787        1.15651
        1.16460        1.19606        1.28966        1.30807        1.35431
        1.36729        1.41194        1.44902        1.49466        1.50544
        1.52524        1.54540        1.57330        1.60893        1.65018
        1.66181        1.68406        1.73255        1.75534        1.76191
        1.78823        1.82954        1.83626        1.88218        1.91047
        1.95431        1.97822        2.05354        2.10682        2.25015
        2.26361        2.26673        2.27641        2.30966        2.31731
        2.33544        2.38457        2.41536        2.51447        2.58375
        2.64812        2.67265        2.67879        2.69020        2.72625
        2.78015        2.81073        2.83027        2.86047        2.90693
        3.04644        3.05112        3.13838        3.28836        3.39628
        3.42244        3.48315        3.49894        3.52101        3.52886
        3.53476        3.55072        3.55443        3.57106        3.60724
        3.61350        3.70197        3.71488        3.98985        4.02520
        4.05845        4.06757        4.16916        4.18331        4.22359
        4.27295        4.76794        5.28726        5.31145        5.37009
        5.38090        5.38446        5.39943        5.69847        5.73654
        5.77827        5.82071        6.12774        6.13443        6.13628
        6.21508       37.11826       51.50621       51.51711       51.55247
       51.60492
 Time used in FCKEIG, thr_jaco:   2.09D-02  2.10D-02  1.14D-06
 CPU and wall times used in FCKEIG, THR_FCKEIG:   2.09D-02  2.10D-02  2.61D-04
 -----------------------------------------------------------------------------

 *** DIIS iteration number    6
 RDSUPM called. NFMAT, ISYMDM(1:NFMAT)           1           1

 ITDIIS, energy, error norm, change in energy, scr.thr., difden:
@ DIIS iter.   6    -360.803666771        9.67202D-03   -8.74D-05  -20    F

 (DIIS_RED) Control Parameters C2DIIS =         F NEVC =    6


 (DIIS_RED) B matrix:

               Column   1     Column   2     Column   3     Column   4     Column   5     Column   6
       1      14.81557804
       2       0.60297210     1.07544981
       3       0.81940310    -0.01473647     0.15816729
       4       0.02496906     0.08645412    -0.00262406     0.01081826
       5       0.01640544     0.00714574     0.00527687     0.00103266     0.00068020
       6      -0.00148476    -0.00023016     0.00085787     0.00040319     0.00006457     0.00009355
    ==== End of matrix output ====

 DIIS C vector; C2DIIS = F, LAMBDA = -3.85D-05
    0.000595    0.008042   -0.014423   -0.116395    0.154442    0.967739
* Read MO coefficients from SIRIUS.RST with label "NEWORB  " and header info:  7Dec18  DIIS   6
      Virial theorem: -V/T =      2.002397
@    MULPOP   N      -0.62; H       0.21; H       0.22; H       0.25; O      -0.61; O      -0.86; O      -0.71; O      -0.63; H       0.31; H       0.32; 
@             H       0.35; H       0.39; H       0.40; H       0.33; H       0.33; H       0.32; 

 DIIS Fock eigenvalues in symmetry 1
      -20.55523      -20.55170      -20.51323      -20.49759      -15.52147
       -1.32403       -1.32168       -1.29029       -1.27587       -1.15275
       -0.70440       -0.70331       -0.65622       -0.65091       -0.64574
       -0.63194       -0.56406       -0.55905       -0.55455       -0.54086
       -0.51207       -0.50016       -0.46698       -0.46300       -0.41525
        0.14418        0.18500        0.19162        0.23739        0.25091
        0.27417        0.28096        0.30983        0.32818        0.35278
        0.37838        0.51110        0.53401        0.56274        0.57058
        0.58548        0.59116        0.61725        0.62134        0.64406
        0.66951        0.73813        0.91241        0.92130        0.96524
        0.98243        1.01102        1.03045        1.04036        1.06656
        1.07142        1.10794        1.12178        1.13775        1.15631
        1.16438        1.19566        1.28915        1.30788        1.35409
        1.36709        1.41160        1.44848        1.49440        1.50519
        1.52498        1.54519        1.57314        1.60860        1.64996
        1.66155        1.68370        1.73227        1.75516        1.76166
        1.78794        1.82933        1.83598        1.88172        1.91010
        1.95399        1.97775        2.05305        2.10643        2.24973
        2.26334        2.26644        2.27587        2.30897        2.31707
        2.33518        2.38405        2.41520        2.51386        2.58323
        2.64791        2.67238        2.67849        2.68987        2.72595
        2.77988        2.81040        2.82993        2.86024        2.90656
        3.04521        3.04999        3.13758        3.28727        3.39621
        3.42232        3.48237        3.49854        3.52039        3.52870
        3.53368        3.55001        3.55442        3.57015        3.60706
        3.61334        3.70122        3.71491        3.98890        4.02523
        4.05831        4.06742        4.16905        4.18319        4.22262
        4.27301        4.76604        5.28550        5.31122        5.36862
        5.38068        5.38450        5.39789        5.69832        5.73633
        5.77829        5.81945        6.12755        6.13420        6.13630
        6.21378       37.11435       51.50602       51.51676       51.55261
       51.60254
 Time used in FCKEIG, thr_jaco:   2.06D-02  2.10D-02  4.23D-07
 CPU and wall times used in FCKEIG, THR_FCKEIG:   2.06D-02  2.10D-02  9.67D-05
 -----------------------------------------------------------------------------

 *** DIIS iteration number    7
 RDSUPM called. NFMAT, ISYMDM(1:NFMAT)           1           1

 ITDIIS, energy, error norm, change in energy, scr.thr., difden:
@ DIIS iter.   7    -360.803677008        2.28002D-03   -1.02D-05  -20    F

 (DIIS_RED) Control Parameters C2DIIS =         F NEVC =    7


 (DIIS_RED) B matrix:

               Column   1     Column   2     Column   3     Column   4     Column   5     Column   6
       1      14.81557804
       2       0.60297210     1.07544981
       3       0.81940310    -0.01473647     0.15816729
       4       0.02496906     0.08645412    -0.00262406     0.01081826
       5       0.01640544     0.00714574     0.00527687     0.00103266     0.00068020
       6      -0.00148476    -0.00023016     0.00085787     0.00040319     0.00006457     0.00009355
       7       0.00047545    -0.00008606     0.00009191    -0.00000118     0.00003994     0.00000344

               Column   7
       7       0.00000520
    ==== End of matrix output ====

 DIIS C vector; C2DIIS = F, LAMBDA = -1.29D-06
   -0.000231   -0.001081    0.005762    0.027484   -0.127578   -0.120404    1.216047
* Read MO coefficients from SIRIUS.RST with label "NEWORB  " and header info:  7Dec18  DIIS   7
      Virial theorem: -V/T =      2.002370
@    MULPOP   N      -0.62; H       0.21; H       0.22; H       0.25; O      -0.62; O      -0.86; O      -0.71; O      -0.63; H       0.31; H       0.32; 
@             H       0.35; H       0.39; H       0.40; H       0.33; H       0.33; H       0.32; 

 DIIS Fock eigenvalues in symmetry 1
      -20.55526      -20.55168      -20.51333      -20.49704      -15.52100
       -1.32399       -1.32162       -1.29027       -1.27558       -1.15259
       -0.70440       -0.70333       -0.65610       -0.65089       -0.64559
       -0.63185       -0.56410       -0.55892       -0.55451       -0.54095
       -0.51200       -0.50006       -0.46666       -0.46293       -0.41503
        0.14420        0.18501        0.19164        0.23740        0.25095
        0.27418        0.28098        0.30987        0.32820        0.35280
        0.37845        0.51116        0.53409        0.56285        0.57059
        0.58548        0.59118        0.61728        0.62136        0.64412
        0.66953        0.73824        0.91253        0.92140        0.96532
        0.98252        1.01111        1.03062        1.04043        1.06659
        1.07150        1.10797        1.12179        1.13777        1.15637
        1.16442        1.19577        1.28924        1.30793        1.35414
        1.36715        1.41168        1.44859        1.49436        1.50520
        1.52504        1.54524        1.57312        1.60871        1.64998
        1.66158        1.68380        1.73233        1.75515        1.76163
        1.78800        1.82932        1.83596        1.88182        1.91016
        1.95403        1.97782        2.05312        2.10651        2.24975
        2.26334        2.26642        2.27592        2.30905        2.31705
        2.33516        2.38414        2.41518        2.51399        2.58330
        2.64790        2.67237        2.67849        2.68989        2.72599
        2.77987        2.81039        2.82990        2.86021        2.90669
        3.04536        3.05013        3.13773        3.28741        3.39622
        3.42237        3.48265        3.49860        3.52049        3.52872
        3.53382        3.55026        3.55443        3.57028        3.60708
        3.61339        3.70150        3.71493        3.98918        4.02522
        4.05832        4.06746        4.16908        4.18323        4.22291
        4.27302        4.76635        5.28570        5.31126        5.36894
        5.38074        5.38450        5.39814        5.69832        5.73637
        5.77828        5.81979        6.12755        6.13423        6.13627
        6.21413       37.11480       51.50599       51.51679       51.55251
       51.60308
 Time used in FCKEIG, thr_jaco:   2.05D-02  2.10D-02  9.96D-08
 CPU and wall times used in FCKEIG, THR_FCKEIG:   2.05D-02  2.10D-02  2.28D-05
 -----------------------------------------------------------------------------

 *** DIIS iteration number    8
 RDSUPM called. NFMAT, ISYMDM(1:NFMAT)           1           1

 ITDIIS, energy, error norm, change in energy, scr.thr., difden:
@ DIIS iter.   8    -360.803677666        3.70099D-04   -6.58D-07  -20    F

 (DIIS_RED) Control Parameters C2DIIS =         F NEVC =    8


 (DIIS_RED) B matrix:

               Column   1     Column   2     Column   3     Column   4     Column   5     Column   6
       1      14.81557804
       2       0.60297210     1.07544981
       3       0.81940310    -0.01473647     0.15816729
       4       0.02496906     0.08645412    -0.00262406     0.01081826
       5       0.01640544     0.00714574     0.00527687     0.00103266     0.00068020
       6      -0.00148476    -0.00023016     0.00085787     0.00040319     0.00006457     0.00009355
       7       0.00047545    -0.00008606     0.00009191    -0.00000118     0.00003994     0.00000344
       8       0.00008740    -0.00000299     0.00000341     0.00000262     0.00000080     0.00000154

               Column   7     Column   8
       7       0.00000520
       8       0.00000038     0.00000014
    ==== End of matrix output ====

 DIIS C vector; C2DIIS = F, LAMBDA = -8.14D-08
    0.000004   -0.000069   -0.000337   -0.000535    0.013863   -0.016637   -0.161191    1.164902
* Read MO coefficients from SIRIUS.RST with label "NEWORB  " and header info:  7Dec18  DIIS   8
      Virial theorem: -V/T =      2.002383
@    MULPOP   N      -0.62; H       0.21; H       0.22; H       0.25; O      -0.62; O      -0.86; O      -0.71; O      -0.63; H       0.31; H       0.32; 
@             H       0.35; H       0.39; H       0.40; H       0.33; H       0.33; H       0.32; 

 DIIS Fock eigenvalues in symmetry 1
      -20.55524      -20.55163      -20.51325      -20.49707      -15.52103
       -1.32398       -1.32160       -1.29024       -1.27559       -1.15260
       -0.70439       -0.70332       -0.65610       -0.65087       -0.64560
       -0.63186       -0.56412       -0.55894       -0.55452       -0.54095
       -0.51199       -0.50004       -0.46666       -0.46290       -0.41505
        0.14419        0.18501        0.19163        0.23740        0.25095
        0.27418        0.28098        0.30987        0.32819        0.35280
        0.37845        0.51116        0.53408        0.56283        0.57058
        0.58548        0.59119        0.61728        0.62137        0.64412
        0.66953        0.73823        0.91252        0.92139        0.96532
        0.98252        1.01110        1.03062        1.04043        1.06659
        1.07150        1.10798        1.12180        1.13778        1.15638
        1.16441        1.19578        1.28923        1.30793        1.35414
        1.36715        1.41168        1.44858        1.49436        1.50520
        1.52504        1.54524        1.57312        1.60870        1.64998
        1.66158        1.68379        1.73233        1.75515        1.76163
        1.78799        1.82932        1.83596        1.88180        1.91015
        1.95402        1.97781        2.05311        2.10650        2.24974
        2.26334        2.26642        2.27591        2.30904        2.31705
        2.33516        2.38413        2.41518        2.51396        2.58329
        2.64790        2.67236        2.67848        2.68988        2.72598
        2.77987        2.81038        2.82989        2.86021        2.90666
        3.04535        3.05011        3.13771        3.28739        3.39622
        3.42238        3.48263        3.49862        3.52049        3.52872
        3.53381        3.55024        3.55445        3.57027        3.60709
        3.61340        3.70149        3.71495        3.98916        4.02525
        4.05832        4.06747        4.16909        4.18325        4.22290
        4.27305        4.76632        5.28569        5.31127        5.36892
        5.38076        5.38454        5.39812        5.69833        5.73639
        5.77832        5.81977        6.12756        6.13425        6.13631
        6.21411       37.11477       51.50602       51.51683       51.55259
       51.60305
 Time used in FCKEIG, thr_jaco:   2.35D-02  2.30D-02  1.62D-08
 CPU and wall times used in FCKEIG, THR_FCKEIG:   2.35D-02  2.30D-02  3.70D-06
 -----------------------------------------------------------------------------

 *** DIIS iteration number    9
 RDSUPM called. NFMAT, ISYMDM(1:NFMAT)           1           1

 ITDIIS, energy, error norm, change in energy, scr.thr., difden:
@ DIIS iter.   9    -360.803677685        1.10390D-04   -1.89D-08  -20    F

 (DIIS_RED) Control Parameters C2DIIS =         F NEVC =    8


 (DIIS_RED) B matrix:

               Column   1     Column   2     Column   3     Column   4     Column   5     Column   6
       1       0.00000001
       2      -0.00000078     1.07544981
       3      -0.00000015    -0.01473647     0.15816729
       4      -0.00000001     0.08645412    -0.00262406     0.01081826
       5       0.00000016     0.00714574     0.00527687     0.00103266     0.00068020
       6       0.00000004    -0.00023016     0.00085787     0.00040319     0.00006457     0.00009355
       7       0.00000008    -0.00008606     0.00009191    -0.00000118     0.00003994     0.00000344
       8       0.00000002    -0.00000299     0.00000341     0.00000262     0.00000080     0.00000154

               Column   7     Column   8
       7       0.00000520
       8       0.00000038     0.00000014
    ==== End of matrix output ====

 DIIS C vector; C2DIIS = F, LAMBDA = -9.45D-09
    0.996890    0.000038   -0.000160   -0.000940    0.004862    0.003084   -0.053975    0.050201
* Read MO coefficients from SIRIUS.RST with label "NEWORB  " and header info:  7Dec18  DIIS   9
      Virial theorem: -V/T =      2.002384
@    MULPOP   N      -0.62; H       0.21; H       0.22; H       0.25; O      -0.62; O      -0.86; O      -0.71; O      -0.63; H       0.31; H       0.32; 
@             H       0.35; H       0.39; H       0.40; H       0.33; H       0.33; H       0.32; 

 DIIS Fock eigenvalues in symmetry 1
      -20.55525      -20.55166      -20.51329      -20.49706      -15.52103
       -1.32398       -1.32161       -1.29025       -1.27559       -1.15260
       -0.70439       -0.70332       -0.65610       -0.65087       -0.64560
       -0.63186       -0.56412       -0.55894       -0.55452       -0.54096
       -0.51199       -0.50004       -0.46666       -0.46291       -0.41505
        0.14419        0.18501        0.19163        0.23740        0.25095
        0.27418        0.28098        0.30987        0.32819        0.35279
        0.37845        0.51116        0.53408        0.56283        0.57058
        0.58548        0.59118        0.61728        0.62137        0.64412
        0.66953        0.73823        0.91252        0.92139        0.96532
        0.98252        1.01110        1.03062        1.04043        1.06659
        1.07150        1.10797        1.12179        1.13778        1.15638
        1.16441        1.19578        1.28923        1.30793        1.35414
        1.36715        1.41168        1.44858        1.49435        1.50519
        1.52504        1.54524        1.57312        1.60870        1.64998
        1.66158        1.68379        1.73233        1.75515        1.76163
        1.78799        1.82932        1.83595        1.88180        1.91015
        1.95402        1.97781        2.05311        2.10650        2.24974
        2.26333        2.26642        2.27591        2.30904        2.31705
        2.33515        2.38414        2.41518        2.51397        2.58328
        2.64790        2.67236        2.67848        2.68988        2.72599
        2.77986        2.81038        2.82989        2.86021        2.90667
        3.04535        3.05011        3.13771        3.28739        3.39622
        3.42237        3.48263        3.49860        3.52048        3.52872
        3.53381        3.55025        3.55444        3.57027        3.60708
        3.61340        3.70149        3.71494        3.98917        4.02523
        4.05832        4.06746        4.16909        4.18324        4.22290
        4.27303        4.76632        5.28569        5.31126        5.36893
        5.38074        5.38452        5.39812        5.69833        5.73638
        5.77830        5.81978        6.12755        6.13424        6.13628
        6.21412       37.11477       51.50601       51.51681       51.55255
       51.60306
 Time used in FCKEIG, thr_jaco:   2.03D-02  2.00D-02  4.82D-09
 CPU and wall times used in FCKEIG, THR_FCKEIG:   2.04D-02  2.00D-02  1.10D-06
 -----------------------------------------------------------------------------

 *** DIIS iteration number   10
 RDSUPM called. NFMAT, ISYMDM(1:NFMAT)           1           1

 ITDIIS, energy, error norm, change in energy, scr.thr., difden:
@ DIIS iter.  10    -360.803677686        4.51784D-05   -1.23D-09  -20    F

 (DIIS_RED) Control Parameters C2DIIS =         F NEVC =    8


 (DIIS_RED) B matrix:

               Column   1     Column   2     Column   3     Column   4     Column   5     Column   6
       1       0.00000001
       2       0.00000000     0.00000000
       3      -0.00000015     0.00000029     0.15816729
       4      -0.00000001    -0.00000005    -0.00262406     0.01081826
       5       0.00000016     0.00000002     0.00527687     0.00103266     0.00068020
       6       0.00000004     0.00000002     0.00085787     0.00040319     0.00006457     0.00009355
       7       0.00000008     0.00000001     0.00009191    -0.00000118     0.00003994     0.00000344
       8       0.00000002     0.00000001     0.00000341     0.00000262     0.00000080     0.00000154

               Column   7     Column   8
       7       0.00000520
       8       0.00000038     0.00000014
    ==== End of matrix output ====

 DIIS C vector; C2DIIS = F, LAMBDA = -6.77D-10
    0.191167    0.930580    0.000012    0.000045   -0.000732    0.001759    0.008299   -0.131129
* Read MO coefficients from SIRIUS.RST with label "NEWORB  " and header info:  7Dec18  DIIS  10
      Virial theorem: -V/T =      2.002383
@    MULPOP   N      -0.62; H       0.21; H       0.22; H       0.25; O      -0.62; O      -0.86; O      -0.71; O      -0.63; H       0.31; H       0.32; 
@             H       0.35; H       0.39; H       0.40; H       0.33; H       0.33; H       0.32; 

 DIIS Fock eigenvalues in symmetry 1
      -20.55524      -20.55165      -20.51328      -20.49706      -15.52103
       -1.32398       -1.32160       -1.29025       -1.27559       -1.15260
       -0.70439       -0.70332       -0.65610       -0.65087       -0.64560
       -0.63186       -0.56412       -0.55893       -0.55452       -0.54096
       -0.51199       -0.50004       -0.46666       -0.46291       -0.41505
        0.14419        0.18501        0.19163        0.23740        0.25095
        0.27418        0.28098        0.30987        0.32819        0.35280
        0.37845        0.51116        0.53408        0.56284        0.57058
        0.58548        0.59119        0.61728        0.62137        0.64412
        0.66953        0.73823        0.91252        0.92139        0.96532
        0.98252        1.01110        1.03062        1.04043        1.06659
        1.07150        1.10798        1.12179        1.13778        1.15638
        1.16441        1.19578        1.28923        1.30793        1.35414
        1.36715        1.41168        1.44858        1.49435        1.50519
        1.52504        1.54524        1.57312        1.60870        1.64998
        1.66158        1.68379        1.73233        1.75515        1.76163
        1.78799        1.82932        1.83595        1.88180        1.91015
        1.95402        1.97781        2.05311        2.10650        2.24974
        2.26334        2.26642        2.27591        2.30904        2.31705
        2.33516        2.38414        2.41518        2.51397        2.58328
        2.64790        2.67236        2.67848        2.68988        2.72599
        2.77986        2.81038        2.82989        2.86021        2.90667
        3.04535        3.05011        3.13771        3.28739        3.39622
        3.42237        3.48263        3.49861        3.52049        3.52872
        3.53381        3.55025        3.55444        3.57027        3.60709
        3.61340        3.70149        3.71494        3.98917        4.02524
        4.05832        4.06746        4.16909        4.18324        4.22291
        4.27304        4.76632        5.28569        5.31126        5.36893
        5.38075        5.38453        5.39812        5.69833        5.73639
        5.77830        5.81978        6.12755        6.13425        6.13629
        6.21412       37.11477       51.50601       51.51682       51.55257
       51.60306
 Time used in FCKEIG, thr_jaco:   2.02D-02  2.10D-02  1.97D-09
 CPU and wall times used in FCKEIG, THR_FCKEIG:   2.02D-02  2.10D-02  4.52D-07
 -----------------------------------------------------------------------------

 *** DIIS iteration number   11
 RDSUPM called. NFMAT, ISYMDM(1:NFMAT)           1           1

 ITDIIS, energy, error norm, change in energy, scr.thr., difden:
@ DIIS iter.  11    -360.803677686        1.00437D-05   -1.78D-10  -20    F

 (DIIS_RED) Control Parameters C2DIIS =         F NEVC =    8


 (DIIS_RED) B matrix:

               Column   1     Column   2     Column   3     Column   4     Column   5     Column   6
       1       0.00000001
       2       0.00000000     0.00000000
       3       0.00000000    -0.00000000     0.00000000
       4      -0.00000001    -0.00000005     0.00000003     0.01081826
       5       0.00000016     0.00000002    -0.00000003     0.00103266     0.00068020
       6       0.00000004     0.00000002     0.00000000     0.00040319     0.00006457     0.00009355
       7       0.00000008     0.00000001    -0.00000000    -0.00000118     0.00003994     0.00000344
       8       0.00000002     0.00000001     0.00000000     0.00000262     0.00000080     0.00000154

               Column   7     Column   8
       7       0.00000520
       8       0.00000038     0.00000014
    ==== End of matrix output ====

 DIIS C vector; C2DIIS = F, LAMBDA = -4.37D-11
   -0.069951    0.041606    1.030427    0.000011   -0.000131   -0.000008    0.003027   -0.004982
* Read MO coefficients from SIRIUS.RST with label "NEWORB  " and header info:  7Dec18  DIIS  11
      Virial theorem: -V/T =      2.002383
@    MULPOP   N      -0.62; H       0.21; H       0.22; H       0.25; O      -0.62; O      -0.86; O      -0.71; O      -0.63; H       0.31; H       0.32; 
@             H       0.35; H       0.39; H       0.40; H       0.33; H       0.33; H       0.32; 

 DIIS Fock eigenvalues in symmetry 1
      -20.55524      -20.55165      -20.51328      -20.49706      -15.52103
       -1.32398       -1.32160       -1.29025       -1.27559       -1.15260
       -0.70439       -0.70332       -0.65610       -0.65087       -0.64560
       -0.63186       -0.56412       -0.55894       -0.55452       -0.54096
       -0.51199       -0.50004       -0.46666       -0.46291       -0.41505
        0.14419        0.18501        0.19163        0.23740        0.25095
        0.27418        0.28098        0.30987        0.32819        0.35280
        0.37845        0.51116        0.53408        0.56284        0.57058
        0.58548        0.59118        0.61728        0.62137        0.64412
        0.66953        0.73823        0.91252        0.92139        0.96532
        0.98252        1.01110        1.03062        1.04043        1.06659
        1.07150        1.10798        1.12179        1.13778        1.15638
        1.16441        1.19578        1.28923        1.30793        1.35414
        1.36715        1.41168        1.44858        1.49435        1.50519
        1.52504        1.54524        1.57312        1.60870        1.64998
        1.66158        1.68379        1.73233        1.75515        1.76163
        1.78799        1.82932        1.83595        1.88180        1.91015
        1.95402        1.97781        2.05311        2.10650        2.24974
        2.26334        2.26642        2.27591        2.30904        2.31705
        2.33516        2.38414        2.41518        2.51397        2.58328
        2.64790        2.67236        2.67848        2.68988        2.72599
        2.77986        2.81038        2.82989        2.86021        2.90667
        3.04535        3.05011        3.13771        3.28739        3.39622
        3.42237        3.48263        3.49861        3.52048        3.52872
        3.53381        3.55025        3.55444        3.57027        3.60709
        3.61340        3.70149        3.71494        3.98917        4.02524
        4.05832        4.06746        4.16909        4.18324        4.22290
        4.27304        4.76632        5.28569        5.31126        5.36893
        5.38075        5.38453        5.39812        5.69833        5.73638
        5.77830        5.81977        6.12755        6.13425        6.13629
        6.21412       37.11477       51.50601       51.51681       51.55256
       51.60306
 Time used in FCKEIG, thr_jaco:   2.04D-02  2.00D-02  4.39D-10
 CPU and wall times used in FCKEIG, THR_FCKEIG:   2.04D-02  2.00D-02  1.00D-07
 -----------------------------------------------------------------------------

 *** DIIS iteration number   12
 RDSUPM called. NFMAT, ISYMDM(1:NFMAT)           1           1

 ITDIIS, energy, error norm, change in energy, scr.thr., difden:
@ DIIS iter.  12    -360.803677686        2.22097D-06   -1.23D-11  -20    F

 (DIIS_RED) Control Parameters C2DIIS =         F NEVC =    8


 (DIIS_RED) B matrix:

               Column   1     Column   2     Column   3     Column   4     Column   5     Column   6
       1     1.218597D-08
       2     3.889739D-11   2.041085D-09
       3     7.302407D-10  -2.733969D-11   1.008756D-10
       4     6.231313D-11   3.654064D-11   1.145429D-11   4.932704D-12
       5     1.593971D-07   1.879948D-08  -2.787114D-08  -2.180417D-09   6.802015D-04
       6     4.039746D-08   2.185007D-08   3.750217D-09   3.342177D-09   6.457088D-05   9.354793D-05
       7     8.317888D-08   1.496338D-08  -3.239370D-09   9.521147D-11   3.993971D-05   3.436358D-06
       8     1.777450D-08   1.051827D-08   4.471118D-10   1.046354D-10   7.977958D-07   1.537696D-06

               Column   7     Column   8
       7     5.198482D-06
       8     3.824341D-07   1.369736D-07
    ==== End of matrix output ====

 DIIS C vector; C2DIIS = F, LAMBDA = -2.02D-12
   -0.004036   -0.057892   -0.143577    1.198132    0.000052   -0.000165   -0.000781    0.008266
* Read MO coefficients from SIRIUS.RST with label "NEWORB  " and header info:  7Dec18  DIIS  12
      Virial theorem: -V/T =      2.002383
@    MULPOP   N      -0.62; H       0.21; H       0.22; H       0.25; O      -0.62; O      -0.86; O      -0.71; O      -0.63; H       0.31; H       0.32; 
@             H       0.35; H       0.39; H       0.40; H       0.33; H       0.33; H       0.32; 

 DIIS Fock eigenvalues in symmetry 1
      -20.55524      -20.55165      -20.51328      -20.49706      -15.52103
       -1.32398       -1.32160       -1.29025       -1.27559       -1.15260
[...]
       3      -0.27713143     0.73115493    -0.62338643
    ==== End of matrix output ====


 CCSD  Transition strength matrix for state nr. 13 of symmetry 1
 CCSD  excitation energy:15.15559804

 Gauge: length

               Column   1     Column   2     Column   3
       1     3.877626D-04  -2.198159D-04   1.613113D-04
       2    -2.198159D-04   1.246026D-04  -9.144444D-05
       3     1.613113D-04  -9.144444D-05   6.710632D-05
    ==== End of matrix output ====

 Principal values of diagonalized transition strength matrix:

             a.u.               
 1      -0.00000001
 2      -0.00000000
 3       0.00057948

 Principal axis of diagonalized transition strength matrix:


               Column   1     Column   2     Column   3
       1       0.43408159    -0.37737504     0.81802277
       2       0.88587572     0.01380912    -0.46371707
       3       0.16369908     0.92595755     0.34030167
    ==== End of matrix output ====


 CCSD   oscillator strength matrix for state nr. 13 of symmetry 1
 CCSD  excitation energy:15.15559804


               Column   1     Column   2     Column   3
       1       0.00391785    -0.00222096     0.00162985
       2      -0.00222096     0.00125895    -0.00092393
       3       0.00162985    -0.00092393     0.00067802
    ==== End of matrix output ====

 Principal values of diagonalized oscillator strength matrix:

             a.u.               
 1      -0.00000006
 2      -0.00000000
 3       0.00585488

 Principal axis of diagonalized oscillator strength matrix:


               Column   1     Column   2     Column   3
       1       0.43408159    -0.37737504     0.81802277
       2       0.88587572     0.01380912    -0.46371707
       3       0.16369908     0.92595755     0.34030167
    ==== End of matrix output ====


 CCSD  Transition strength matrix for state nr. 14 of symmetry 1
 CCSD  excitation energy:15.16303280

 Gauge: length

               Column   1     Column   2     Column   3
       1     1.817243D-06  -1.324997D-05  -1.099188D-07
       2    -1.324997D-05   9.659146D-05   8.043897D-07
       3    -1.099188D-07   8.043897D-07   6.147757D-09
    ==== End of matrix output ====

 Principal values of diagonalized transition strength matrix:

             a.u.               
 1      -0.00000000
 2       0.00000000
 3       0.00009842

 Principal axis of diagonalized transition strength matrix:


               Column   1     Column   2     Column   3
       1      -0.59980300     0.78852280    -0.13589757
       2      -0.08889957     0.10311679     0.99068855
       3       0.79519383     0.60629920     0.00824958
    ==== End of matrix output ====


 CCSD   oscillator strength matrix for state nr. 14 of symmetry 1
 CCSD  excitation energy:15.16303280


               Column   1     Column   2     Column   3
       1     1.836995D-05  -1.339398D-04  -1.111135D-06
       2    -1.339398D-04   9.764130D-04   8.131325D-06
       3    -1.111135D-06   8.131325D-06   6.214576D-08
    ==== End of matrix output ====

 Principal values of diagonalized oscillator strength matrix:

             a.u.               
 1      -0.00000001
 2       0.00000000
 3       0.00099485

 Principal axis of diagonalized oscillator strength matrix:


               Column   1     Column   2     Column   3
       1      -0.59980300     0.78852280    -0.13589757
       2      -0.08889957     0.10311679     0.99068855
       3       0.79519383     0.60629920     0.00824958
    ==== End of matrix output ====


 CCSD  Transition strength matrix for state nr. 15 of symmetry 1
 CCSD  excitation energy:15.28355822

 Gauge: length

               Column   1     Column   2     Column   3
       1     3.630123D-05  -1.618251D-04   8.683588D-05
       2    -1.618251D-04   7.212706D-04  -3.870397D-04
       3     8.683588D-05  -3.870397D-04   2.076885D-04
    ==== End of matrix output ====

 Principal values of diagonalized transition strength matrix:

             a.u.               
 1      -0.00000001
 2       0.00000000
 3       0.00096527

 Principal axis of diagonalized transition strength matrix:


               Column   1     Column   2     Column   3
       1       0.97425561    -0.11494726    -0.19394105
       2       0.22511717     0.44955237     0.86442173
       3       0.01217625     0.88582718    -0.46385553
    ==== End of matrix output ====


 CCSD   oscillator strength matrix for state nr. 15 of symmetry 1
 CCSD  excitation energy:15.28355822


               Column   1     Column   2     Column   3
       1       0.00036987    -0.00164884     0.00088477
       2      -0.00164884     0.00734905    -0.00394356
       3       0.00088477    -0.00394356     0.00211615
    ==== End of matrix output ====

 Principal values of diagonalized oscillator strength matrix:

             a.u.               
 1      -0.00000006
 2       0.00000000
 3       0.00983513

 Principal axis of diagonalized oscillator strength matrix:


               Column   1     Column   2     Column   3
       1       0.97425561    -0.11494726    -0.19394105
       2       0.22511717     0.44955237     0.86442173
       3       0.01217625     0.88582718    -0.46385553
    ==== End of matrix output ====

  Total time for    135 linear response residues:       4.40 seconds.
  

 *******************************************************************************
 *******************************************************************************
 *                                                                             *
 *                                                                             *
 *                   SUMMARY OF COUPLED CLUSTER CALCULATION                    *
 *                                                                             *
 *                                                                             *
 *******************************************************************************
 *******************************************************************************

                                                                                
                                                                                
            Total SCF   energy:                  -360.8036776863                
            Total MP2   energy:                  -361.9065886295                
            Total CCSD  energy:                  -361.9455756374                
                                                                                
                                                                                
            Total SCF   energy:                  -360.8036776863                
            Total RSTAR energy:                  -361.9455756374                
            Total CCSD  energy:                  -361.9456200963                
                                                                                
                                                                                
            Total SCF   energy:                  -360.8036776863                
            Total RSTAR energy:                  -361.9456200963                
            Total CCSD  energy:                  -361.9456220158                
                                                                                
                                                                                
            Total SCF   energy:                  -360.8036776863                
            Total RSTAR energy:                  -361.9456220158                
            Total CCSD  energy:                  -361.9456221101                
                                                                                
                                                                                
            Total SCF   energy:                  -360.8036776863                
            Total RSTAR energy:                  -361.9456221101                
            Total CCSD  energy:                  -361.9456221150                
            CCSD Total  energy:                  -362.3909305479                
            CCSD E(PE-CC)     :                    -0.4406909677                
                                                                                
                                                                                
 +=============================================================================+
 |  sym. | Exci.  |        CCSD       Excitation energies            | ||T1||  |
 |(spin, |        +------------------------------------------------------------+
 | spat) |        |     Hartree    |       eV.      |     cm-1       |    %    |
 +=============================================================================+
 | ^1A   |    1   |    14.8295134  |     403.53159  |   3254701.958  |  88.64  |
 | ^1A   |    2   |    14.8882249  |     405.12921  |   3267587.650  |  88.96  |
 | ^1A   |    3   |    14.9199261  |     405.99184  |   3274545.248  |  88.87  |
 | ^1A   |    4   |    14.9582712  |     407.03526  |   3282961.024  |  88.41  |
 | ^1A   |    5   |    14.9722675  |     407.41612  |   3286032.856  |  88.55  |
 | ^1A   |    6   |    15.0022963  |     408.23325  |   3292623.414  |  88.34  |
 | ^1A   |    7   |    15.0184103  |     408.67173  |   3296160.045  |  88.32  |
 | ^1A   |    8   |    15.0445488  |     409.38300  |   3301896.778  |  88.13  |
 | ^1A   |    9   |    15.0634363  |     409.89695  |   3306042.090  |  88.29  |
 | ^1A   |   10   |    15.0824758  |     410.41504  |   3310220.792  |  88.24  |
 | ^1A   |   11   |    15.1069061  |     411.07982  |   3315582.606  |  88.20  |
 | ^1A   |   12   |    15.1216896  |     411.48211  |   3318827.221  |  88.26  |
 | ^1A   |   13   |    15.1555980  |     412.40480  |   3326269.263  |  88.31  |
 | ^1A   |   14   |    15.1630328  |     412.60711  |   3327901.003  |  88.10  |
 | ^1A   |   15   |    15.2835582  |     415.88677  |   3354353.276  |  88.49  |
 +=============================================================================+
                                                                                
                                                                                
     Total energies in Hartree:                                                 
             1 ^1A       -347.1207261749                                        
             2 ^1A       -347.0620146398                                        
             3 ^1A       -347.0303134899                                        
             4 ^1A       -346.9919683954                                        
             5 ^1A       -346.9779720965                                        
             6 ^1A       -346.9479433069                                        
             7 ^1A       -346.9318292308                                        
             8 ^1A       -346.9056907508                                        
             9 ^1A       -346.8868033201                                        
            10 ^1A       -346.8677637500                                        
            11 ^1A       -346.8433335281                                        
            12 ^1A       -346.8285499758                                        
            13 ^1A       -346.7946415361                                        
            14 ^1A       -346.7872067828                                        
            15 ^1A       -346.6666813562                                        
                                                                                
                                                                                
 +=============================================================================+
 |  sym. | Exci.  |        CCSD       Length   Gauge Oscillator Strength       |
 |(spin, |        +------------------------------------------------------------+
 | spat) |        | Dipole Strength(a.u.) | Oscillator strength  | Direction   |
 +=============================================================================+
 | ^1A   |    1   |        0.0007608      |      0.0075215       |  (Y,Z)      |
 | ^1A   |    2   |        0.0033474      |      0.0332249       |  (Y,Z)      |
 | ^1A   |    3   |        0.0024135      |      0.0240059       |  (Y,Z)      |
 | ^1A   |    4   |        0.0008900      |      0.0088756       |  (Y,Z)      |
 | ^1A   |    5   |        0.0014096      |      0.0140700       |  (Y,Z)      |
 | ^1A   |    6   |        0.0005253      |      0.0052540       |  (Y,Z)      |
 | ^1A   |    7   |        0.0005240      |      0.0052463       |  (Y,Z)      |
 | ^1A   |    8   |        0.0001206      |      0.0012098       |  (Y,Z)      |
 | ^1A   |    9   |        0.0004678      |      0.0046975       |  (Y,Z)      |
 | ^1A   |   10   |        0.0002147      |      0.0021584       |  (Y,Z)      |
 | ^1A   |   11   |        0.0000854      |      0.0008601       |  (Y,Z)      |
 | ^1A   |   12   |        0.0001173      |      0.0011825       |  (Y,Z)      |
 | ^1A   |   13   |        0.0005795      |      0.0058548       |  (Y,Z)      |
 | ^1A   |   14   |        0.0000984      |      0.0009948       |  (Y,Z)      |
 | ^1A   |   15   |        0.0009653      |      0.0098351       |  (Y,Z)      |
 +=============================================================================+

  1 a.u. =        27.21138 eV.  
  1 a.u. =    219474.62934 cm-1.
  

 *******************************************************************************
 *******************************************************************************
 *                                                                             *
 *                                                                             *
 *                      END OF COUPLED CLUSTER CALCULATION                     *
 *                                                                             *
 *                                                                             *
 *******************************************************************************
 *******************************************************************************


 CPU and wall time for CC :   69377.412   78092.740

 
     Date and time (Linux)  : Sat Dec  8 12:19:58 2018
     Host name              : s73p28.deic.sdu.dk                      


                      .-------------------------------------.
                      | End of Coupled Cluster Section (CC) |
                      `-------------------------------------'

  Total CPU  time used in DALTON:  19 hours 17 minutes 58 seconds
  Total wall time used in DALTON:  21 hours 43 minutes 17 seconds

 
     Date and time (Linux)  : Sat Dec  8 12:19:58 2018
     Host name              : s73p28.deic.sdu.dk                      
  

 +---------------------------------------------------------+ 
 | List of selected calculated molecular properties (a.u.) | 
 +---------------------------------------------------------+ 

  Properties are read from unit number            4

 CCSD       properties :
 #  1 1 PE-CCSD  Ground state Energy =    -362.3909305479
 #  2 1 E(PE-CC) Ground state Energy =      -0.4406909677
 #  3 1 Sy: 1 Sp: 1 Exc:  1 E_tot:   -347.1207261749 w:     14.8295134053 E_grs:   -361.9502395802
 #  4 1 Exctot   Excited state Energy =    -347.1207261749
 #  5 1 Sy: 1 Sp: 1 Exc:  2 E_tot:   -347.0620146398 w:     14.8882249404 E_grs:   -361.9502395802
 #  6 1 Exctot   Excited state Energy =    -347.0620146398
 #  7 1 Sy: 1 Sp: 1 Exc:  3 E_tot:   -347.0303134899 w:     14.9199260903 E_grs:   -361.9502395802
 #  8 1 Exctot   Excited state Energy =    -347.0303134899
 #  9 1 Sy: 1 Sp: 1 Exc:  4 E_tot:   -346.9919683954 w:     14.9582711848 E_grs:   -361.9502395802
 # 10 1 Exctot   Excited state Energy =    -346.9919683954
 # 11 1 Sy: 1 Sp: 1 Exc:  5 E_tot:   -346.9779720965 w:     14.9722674837 E_grs:   -361.9502395802
 # 12 1 Exctot   Excited state Energy =    -346.9779720965
 # 13 1 Sy: 1 Sp: 1 Exc:  6 E_tot:   -346.9479433069 w:     15.0022962733 E_grs:   -361.9502395802
 # 14 1 Exctot   Excited state Energy =    -346.9479433069
 # 15 1 Sy: 1 Sp: 1 Exc:  7 E_tot:   -346.9318292308 w:     15.0184103493 E_grs:   -361.9502395802
 # 16 1 Exctot   Excited state Energy =    -346.9318292308
 # 17 1 Sy: 1 Sp: 1 Exc:  8 E_tot:   -346.9056907508 w:     15.0445488294 E_grs:   -361.9502395802
 # 18 1 Exctot   Excited state Energy =    -346.9056907508
 # 19 1 Sy: 1 Sp: 1 Exc:  9 E_tot:   -346.8868033201 w:     15.0634362601 E_grs:   -361.9502395802
 # 20 1 Exctot   Excited state Energy =    -346.8868033201
 # 21 1 Sy: 1 Sp: 1 Exc: 10 E_tot:   -346.8677637500 w:     15.0824758302 E_grs:   -361.9502395802
 # 22 1 Exctot   Excited state Energy =    -346.8677637500
 # 23 1 Sy: 1 Sp: 1 Exc: 11 E_tot:   -346.8433335281 w:     15.1069060521 E_grs:   -361.9502395802
 # 24 1 Exctot   Excited state Energy =    -346.8433335281
 # 25 1 Sy: 1 Sp: 1 Exc: 12 E_tot:   -346.8285499758 w:     15.1216896044 E_grs:   -361.9502395802
 # 26 1 Exctot   Excited state Energy =    -346.8285499758
 # 27 1 Sy: 1 Sp: 1 Exc: 13 E_tot:   -346.7946415361 w:     15.1555980441 E_grs:   -361.9502395802
 # 28 1 Exctot   Excited state Energy =    -346.7946415361
 # 29 1 Sy: 1 Sp: 1 Exc: 14 E_tot:   -346.7872067828 w:     15.1630327974 E_grs:   -361.9502395802
 # 30 1 Exctot   Excited state Energy =    -346.7872067828
 # 31 1 Sy: 1 Sp: 1 Exc: 15 E_tot:   -346.6666813562 w:     15.2835582240 E_grs:   -361.9502395802
 # 32 1 Exctot   Excited state Energy =    -346.6666813562
 # 33 1 |<O|XDIPLEN |i(14.829513)>| =     0.00520187
 # 35 1 |<O|XDIPLEN |i(14.888225)>| =     0.01582255
 # 37 1 |<O|XDIPLEN |i(14.919926)>| =     0.04057842
 # 39 1 |<O|XDIPLEN |i(14.958271)>| =     0.02843035
 # 41 1 |<O|XDIPLEN |i(14.972267)>| =     0.01836738
 # 43 1 |<O|XDIPLEN |i(15.002296)>| =     0.01482707
 # 45 1 |<O|XDIPLEN |i(15.018410)>| =     0.00044126
 # 47 1 |<O|XDIPLEN |i(15.044549)>| =     0.00111715
 # 49 1 |<O|XDIPLEN |i(15.063436)>| =     0.01094563
 # 51 1 |<O|XDIPLEN |i(15.082476)>| =     0.00111948
 # 53 1 |<O|XDIPLEN |i(15.106906)>| =     0.00116946
 # 55 1 |<O|XDIPLEN |i(15.121690)>| =     0.00326094
 # 57 1 |<O|XDIPLEN |i(15.155598)>| =     0.01969169
 # 59 1 |<O|XDIPLEN |i(15.163033)>| =     0.00134805
 # 61 1 |<O|XDIPLEN |i(15.283558)>| =     0.00602505
 # 63 1 |<O|YDIPLEN |i(14.829513)>| =     0.02319860
 # 65 1 |<O|YDIPLEN |i(14.888225)>| =     0.03192427
 # 67 1 |<O|YDIPLEN |i(14.919926)>| =     0.00717061
 # 69 1 |<O|YDIPLEN |i(14.958271)>| =     0.00098134
 # 71 1 |<O|YDIPLEN |i(14.972267)>| =     0.03156309
 # 73 1 |<O|YDIPLEN |i(15.002296)>| =     0.00092273
 # 75 1 |<O|YDIPLEN |i(15.018410)>| =     0.00597816
 # 77 1 |<O|YDIPLEN |i(15.044549)>| =     0.00966814
 # 79 1 |<O|YDIPLEN |i(15.063436)>| =     0.01772455
 # 81 1 |<O|YDIPLEN |i(15.082476)>| =     0.01091789
 # 83 1 |<O|YDIPLEN |i(15.106906)>| =     0.00916685
 # 85 1 |<O|YDIPLEN |i(15.121690)>| =     0.00781538
 # 87 1 |<O|YDIPLEN |i(15.155598)>| =     0.01116255
 # 89 1 |<O|YDIPLEN |i(15.163033)>| =     0.00982810
 # 91 1 |<O|YDIPLEN |i(15.283558)>| =     0.02685648
 # 93 1 |<O|ZDIPLEN |i(14.829513)>| =     0.01398426
 # 95 1 |<O|ZDIPLEN |i(14.888225)>| =     0.04558418
 # 97 1 |<O|ZDIPLEN |i(14.919926)>| =     0.02674785
 # 99 1 |<O|ZDIPLEN |i(14.958271)>| =     0.00898827
 #101 1 |<O|ZDIPLEN |i(14.972267)>| =     0.00871885
 #103 1 |<O|ZDIPLEN |i(15.002296)>| =     0.01745346
 #105 1 |<O|ZDIPLEN |i(15.018410)>| =     0.02209189
 #107 1 |<O|ZDIPLEN |i(15.044549)>| =     0.00508930
 #109 1 |<O|ZDIPLEN |i(15.063436)>| =     0.00581402
 #111 1 |<O|ZDIPLEN |i(15.082476)>| =     0.00970594
 #113 1 |<O|ZDIPLEN |i(15.106906)>| =     0.00004782
 #115 1 |<O|ZDIPLEN |i(15.121690)>| =     0.00675162
 #117 1 |<O|ZDIPLEN |i(15.155598)>| =     0.00819184
 #119 1 |<O|ZDIPLEN |i(15.163033)>| =     0.00007841
 #121 1 |<O|ZDIPLEN |i(15.283558)>| =     0.01441140

 THE_END   
