

     ************************************************************************
     *************** Dalton - An Electronic Structure Program ***************
     ************************************************************************

    This is output from DALTON release Dalton2017.alpha (2016)
         ( Web site: http://daltonprogram.org )

   ----------------------------------------------------------------------------

    NOTE:
     
    Dalton is an experimental code for the evaluation of molecular
    properties using (MC)SCF, DFT, CI, and CC wave functions.
    The authors accept no responsibility for the performance of
    the code or for the correctness of the results.
     
    The code (in whole or part) is provided under a licence and
    is not to be reproduced for further distribution without
    the written permission of the authors or their representatives.
     
    See the home page "http://daltonprogram.org" for further information.
     
    If results obtained with this code are published,
    the appropriate citations would be both of:
     
       K. Aidas, C. Angeli, K. L. Bak, V. Bakken, R. Bast,
       L. Boman, O. Christiansen, R. Cimiraglia, S. Coriani,
       P. Dahle, E. K. Dalskov, U. Ekstroem,
       T. Enevoldsen, J. J. Eriksen, P. Ettenhuber, B. Fernandez,
       L. Ferrighi, H. Fliegl, L. Frediani, K. Hald, A. Halkier,
       C. Haettig, H. Heiberg, T. Helgaker, A. C. Hennum,
       H. Hettema, E. Hjertenaes, S. Hoest, I.-M. Hoeyvik,
       M. F. Iozzi, B. Jansik, H. J. Aa. Jensen, D. Jonsson,
       P. Joergensen, J. Kauczor, S. Kirpekar,
       T. Kjaergaard, W. Klopper, S. Knecht, R. Kobayashi, H. Koch,
       J. Kongsted, A. Krapp, K. Kristensen, A. Ligabue,
       O. B. Lutnaes, J. I. Melo, K. V. Mikkelsen, R. H. Myhre,
       C. Neiss, C. B. Nielsen, P. Norman, J. Olsen,
       J. M. H. Olsen, A. Osted, M. J. Packer, F. Pawlowski,
       T. B. Pedersen, P. F. Provasi, S. Reine, Z. Rinkevicius,
       T. A. Ruden, K. Ruud, V. Rybkin, P. Salek, C. C. M. Samson,
       A. Sanchez de Meras, T. Saue, S. P. A. Sauer,
       B. Schimmelpfennig, K. Sneskov, A. H. Steindal,
       K. O. Sylvester-Hvid, P. R. Taylor, A. M. Teale,
       E. I. Tellgren, D. P. Tew, A. J. Thorvaldsen, L. Thoegersen,
       O. Vahtras, M. A. Watson, D. J. D. Wilson, M. Ziolkowski
       and H. Agren,
       "The Dalton quantum chemistry program system",
       WIREs Comput. Mol. Sci. 2014, 4:269–284 (doi: 10.1002/wcms.1172)
     
    and
     
       Dalton, a Molecular Electronic Structure Program,
       Release Dalton2017.alpha (2016), see http://daltonprogram.org
   ----------------------------------------------------------------------------

    Authors in alphabetical order (major contribution(s) in parenthesis):

  Kestutis Aidas,           Vilnius University,           Lithuania   (QM/MM)
  Celestino Angeli,         University of Ferrara,        Italy       (NEVPT2)
  Keld L. Bak,              UNI-C,                        Denmark     (AOSOPPA, non-adiabatic coupling, magnetic properties)
  Vebjoern Bakken,          University of Oslo,           Norway      (DALTON; geometry optimizer, symmetry detection)
  Radovan Bast,             UiT The Arctic U. of Norway,  Norway      (DALTON installation and execution frameworks)
  Pablo Baudin,             University of Valencia,       Spain       (Cholesky excitation energies)
  Linus Boman,              NTNU,                         Norway      (Cholesky decomposition and subsystems)
  Ove Christiansen,         Aarhus University,            Denmark     (CC module)
  Renzo Cimiraglia,         University of Ferrara,        Italy       (NEVPT2)
  Sonia Coriani,            University of Trieste,        Italy       (CC module, MCD in RESPONS)
  Janusz Cukras,            University of Trieste,        Italy       (MChD in RESPONS)
  Paal Dahle,               University of Oslo,           Norway      (Parallelization)
  Erik K. Dalskov,          UNI-C,                        Denmark     (SOPPA)
  Thomas Enevoldsen,        Univ. of Southern Denmark,    Denmark     (SOPPA)
  Janus J. Eriksen,         Aarhus University,            Denmark     (Polarizable embedding model, TDA)
  Rasmus Faber,             University of Copenhagen,     Denmark     (Vib.avg. NMR with SOPPA, parallel AO-SOPPA)
  Berta Fernandez,          U. of Santiago de Compostela, Spain       (doublet spin, ESR in RESPONS)
  Lara Ferrighi,            Aarhus University,            Denmark     (PCM Cubic response)
  Heike Fliegl,             University of Oslo,           Norway      (CCSD(R12))
  Luca Frediani,            UiT The Arctic U. of Norway,  Norway      (PCM)
  Bin Gao,                  UiT The Arctic U. of Norway,  Norway      (Gen1Int library)
  Christof Haettig,         Ruhr-University Bochum,       Germany     (CC module)
  Kasper Hald,              Aarhus University,            Denmark     (CC module)
  Asger Halkier,            Aarhus University,            Denmark     (CC module)
  Frederik Beyer Hansen,    University of Copenhagen,     Denmark     (Parallel AO-SOPPA)
  Erik D. Hedegaard,        Univ. of Southern Denmark,    Denmark     (Polarizable embedding model, QM/MM)
  Hanne Heiberg,            University of Oslo,           Norway      (geometry analysis, selected one-electron integrals)
  Trygve Helgaker,          University of Oslo,           Norway      (DALTON; ABACUS, ERI, DFT modules, London, and much more)
  Alf Christian Hennum,     University of Oslo,           Norway      (Parity violation)
  Hinne Hettema,            University of Auckland,       New Zealand (quadratic response in RESPONS; SIRIUS supersymmetry)
  Eirik Hjertenaes,         NTNU,                         Norway      (Cholesky decomposition)
  Pi A. B. Haase,           University of Copenhagen,     Denmark     (Triplet AO-SOPPA)
  Maria Francesca Iozzi,    University of Oslo,           Norway      (RPA)
  Brano Jansik              Technical Univ. of Ostrava    Czech Rep.  (DFT cubic response)
  Hans Joergen Aa. Jensen,  Univ. of Southern Denmark,    Denmark     (DALTON; SIRIUS, RESPONS, ABACUS modules, London, and much more)
  Dan Jonsson,              UiT The Arctic U. of Norway,  Norway      (cubic response in RESPONS module)
  Poul Joergensen,          Aarhus University,            Denmark     (RESPONS, ABACUS, and CC modules)
  Maciej Kaminski,          University of Warsaw,         Poland      (CPPh in RESPONS)
  Joanna Kauczor,           Linkoeping University,        Sweden      (Complex polarization propagator (CPP) module)
  Sheela Kirpekar,          Univ. of Southern Denmark,    Denmark     (Mass-velocity & Darwin integrals)
  Wim Klopper,              KIT Karlsruhe,                Germany     (R12 code in CC, SIRIUS, and ABACUS modules)
  Stefan Knecht,            ETH Zurich,                   Switzerland (Parallel CI and MCSCF)
  Rika Kobayashi,           Australian National Univ.,    Australia   (DIIS in CC, London in MCSCF)
  Henrik Koch,              NTNU,                         Norway      (CC module, Cholesky decomposition)
  Jacob Kongsted,           Univ. of Southern Denmark,    Denmark     (Polarizable embedding model, QM/MM)
  Andrea Ligabue,           University of Modena,         Italy       (CTOCD, AOSOPPA)
  Nanna H. List             Univ. of Southern Denmark,    Denmark     (Polarizable embedding model)
  Ola B. Lutnaes,           University of Oslo,           Norway      (DFT Hessian)
  Juan I. Melo,             University of Buenos Aires,   Argentina   (LRESC, Relativistic Effects on NMR Shieldings)
  Kurt V. Mikkelsen,        University of Copenhagen,     Denmark     (MC-SCRF and QM/MM)
  Rolf H. Myhre,            NTNU,                         Norway      (Cholesky, subsystems and ECC2)
  Christian Neiss,          Univ. Erlangen-Nuernberg,     Germany     (CCSD(R12))
  Christian B. Nielsen,     University of Copenhagen,     Denmark     (QM/MM)
  Patrick Norman,           Linkoeping University,        Sweden      (Cubic response and complex frequency response in RESPONS)
  Jeppe Olsen,              Aarhus University,            Denmark     (SIRIUS CI/density modules)
  Jogvan Magnus H. Olsen,   Univ. of Southern Denmark,    Denmark     (Polarizable embedding model, QM/MM)
  Anders Osted,             Copenhagen University,        Denmark     (QM/MM)
  Martin J. Packer,         University of Sheffield,      UK          (SOPPA)
  Filip Pawlowski,          Kazimierz Wielki University,  Poland      (CC3)
  Morten N. Pedersen,       Univ. of Southern Denmark,    Denmark     (Polarizable embedding model)
  Thomas B. Pedersen,       University of Oslo,           Norway      (Cholesky decomposition)
  Patricio F. Provasi,      University of Northeastern,   Argentina   (Analysis of coupling constants in localized orbitals)
  Zilvinas Rinkevicius,     KTH Stockholm,                Sweden      (open-shell DFT, ESR)
  Elias Rudberg,            KTH Stockholm,                Sweden      (DFT grid and basis info)
  Torgeir A. Ruden,         University of Oslo,           Norway      (Numerical derivatives in ABACUS)
  Kenneth Ruud,             UiT The Arctic U. of Norway,  Norway      (DALTON; ABACUS magnetic properties and much more)
  Pawel Salek,              KTH Stockholm,                Sweden      (DALTON; DFT code)
  Claire C. M. Samson       University of Karlsruhe       Germany     (Boys localization, r12 integrals in ERI)
  Alfredo Sanchez de Meras, University of Valencia,       Spain       (CC module, Cholesky decomposition)
  Trond Saue,               Paul Sabatier University,     France      (direct Fock matrix construction)
  Stephan P. A. Sauer,      University of Copenhagen,     Denmark     (SOPPA(CCSD), SOPPA prop., AOSOPPA, vibrational g-factors)
  Bernd Schimmelpfennig,    Forschungszentrum Karlsruhe,  Germany     (AMFI module)
  Kristian Sneskov,         Aarhus University,            Denmark     (Polarizable embedding model, QM/MM)
  Arnfinn H. Steindal,      UiT The Arctic U. of Norway,  Norway      (parallel QM/MM, Polarizable embedding model)
  Casper Steinmann,         Univ. of Southern Denmark,    Denmark     (QFIT, Polarizable embedding model)
  K. O. Sylvester-Hvid,     University of Copenhagen,     Denmark     (MC-SCRF)
  Peter R. Taylor,          VLSCI/Univ. of Melbourne,     Australia   (Symmetry handling ABACUS, integral transformation)
  Andrew M. Teale,          University of Nottingham,     England     (DFT-AC, DFT-D)
  David P. Tew,             University of Bristol,        England     (CCSD(R12))
  Olav Vahtras,             KTH Stockholm,                Sweden      (triplet response, spin-orbit, ESR, TDDFT, open-shell DFT)
  David J. Wilson,          La Trobe University,          Australia   (DFT Hessian and DFT magnetizabilities)
  Hans Agren,               KTH Stockholm,                Sweden      (SIRIUS module, RESPONS, MC-SCRF solvation model)
 --------------------------------------------------------------------------------

     Date and time (Linux)  : Fri Dec  7 14:36:41 2018
     Host name              : s73p28.deic.sdu.dk                      

 * Work memory size             :  2048000000 = 15.259 gigabytes.

 * Directories for basis set searches:
   1) /work/sdujk/reinholdt/ECP-Sonia
   2) /gpfs/gss1/work/sdujk/reinholdt/Programs/dalton-private/pe-cvs/basis


Compilation information
-----------------------

 Who compiled             | reinholdt
 Host                     | s73p27.deic.sdu.dk
 System                   | Linux-3.10.0-327.36.3.el7.x86_64
 CMake generator          | Unix Makefiles
 Processor                | x86_64
 64-bit integers          | OFF
 MPI                      | ON
 Fortran compiler         | /opt/sys/apps/intel/2018.05/impi_latest/intel64/bi
                          | n/mpif90
 C compiler               | /opt/sys/apps/intel/2018.05/impi_latest/intel64/bi
                          | n/mpicc
 C++ compiler             | /opt/sys/apps/intel/2018.05/impi_latest/intel64/bi
                          | n/mpicxx
 C++ compiler version     | unknown
 BLAS                     | /opt/sys/apps/intel/2018.05/compilers_and_librarie
                          | s_2018.3.222/linux/mkl/lib/intel64/libmkl_intel_lp
                          | 64.so;/opt/sys/apps/intel/2018.05/compilers_and_li
                          | braries_2018.3.222/linux/mkl/lib/intel64/libmkl_se
                          | quential.so;/opt/sys/apps/intel/2018.05/compilers_
                          | and_libraries_2018.3.222/linux/mkl/lib/intel64/lib
                          | mkl_core.so;/usr/lib64/libpthread.so;/usr/lib64/li
                          | bm.so
 LAPACK                   | /opt/sys/apps/intel/2018.05/compilers_and_librarie
                          | s_2018.3.222/linux/mkl/lib/intel64/libmkl_lapack95
                          | _lp64.a;/opt/sys/apps/intel/2018.05/compilers_and_
                          | libraries_2018.3.222/linux/mkl/lib/intel64/libmkl_
                          | intel_lp64.so
 Static linking           | OFF
 Last Git revision        | 252a54078a0f9a1f0a59b3262fa4a57829155fe9
 Git branch               | pe/cc-cvs
 Configuration time       | 2018-12-06 10:55:01.793667

 * Sequential calculation.


   Content of the .dal input file
 ----------------------------------

**DALTON
.RUN WAVE FUNCTIONS
.PEQM
**INTEGRALS
.DIPLEN
**WAVE FUNCTIONS
.CC
*PRINT
!To check the origin of excit
.PRINTL
   0 11
*SCF INP
.THRESH
1.0D-7
*CC INP
.CCSD
.THRLEQ
 1.0D-9
.THRENR
 1.0D-10
.FROIMP
4
0
.PRINT
 1
.MAX IT
 1200
.MAXRED
 1200
.MXLRV
1199
*PECC
*CCEXCI
.NCCEXC
 15
.CVSEPARA
1
1
*CCLRSD
.DIPOLE
**END OF DALTON INPUT


   Content of the .mol file
 ----------------------------

ATOMBASIS


Atomtypes=5 Charge=1 Nosymm Angstrom
   7.00000    1    Basis=6-311G**
N          0.000000        0.000000        0.000000
   1.00000    4    Basis=6-311G**
H         -0.986798        0.158192        0.209252
H          0.099905        0.008150       -1.036203
H          0.306136       -0.830246        0.456604
H          0.602571        0.778264        0.308939
   8.00000    4    Basis=6-311G**
O         -2.851387        0.280971       -0.395421
O          1.557405        2.243639        0.898477
O          0.027701        0.430319       -2.700204
O          2.086789       -1.795203        1.452611
   1.00000    8    Basis=6-311G**
H         -3.332311       -0.400096        0.142368
H         -3.514301        1.053183       -0.434516
H          1.432841        3.232280        1.052153
H          2.267997        2.159980        0.184844
H          0.867235        0.355314       -3.217866
H         -0.496919       -0.303537       -3.061090
H          1.766803       -2.435519        2.169424
H          2.362806       -0.979235        1.975913
Charge=8.0   Atoms=59    Basis=pointcharge ECP=pe_ecp
  1        0.112898        3.608277       -1.574905
  2        5.009827        4.608036       -4.334404
  3        2.673025        4.925603       -2.448259
  4        4.264806       -5.925978       -0.572182
  5       -4.264126       -4.205008       -1.789997
  6       -5.926429        5.857625       -2.479855
  7       -1.718177       -4.506404        2.126609
  8        2.574807        0.388875       -3.617291
  9        3.053972       -5.775787        3.068167
 10       -1.584073        2.769183       -4.350889
 11       -5.087491        1.935365       -0.578937
 12        4.959786       -3.342451       -2.690973
 13        5.892547        0.578514       -2.512611
 14        5.157655       -1.862180       -0.156351
 15        4.409004        3.711310        0.505890
 16        3.132119       -3.890033       -4.690903
 17       -1.976353        3.687820        0.007217
 18        6.093110        1.271434        1.727958
 19       -0.673365        6.212450       -2.541278
 20       -4.693000        0.689232        5.480743
 21       -1.301940        0.177026        2.695597
 22        1.024004        0.659521        3.940680
 23       -5.383067       -3.537770        0.402633
 24       -2.852184        5.040903       -3.841934
 25       -5.529301       -2.442024        6.009617
 26       -3.103082       -3.870826        5.731577
 27        1.110514        5.260724        1.607866
 28       -2.589035       -0.952887       -2.851029
 29        2.438420        2.753538        4.831085
 30        1.527769       -2.202719       -3.083977
 31        0.454045       -0.879835       -6.024092
 32        0.422077        4.422451       -6.110711
 33       -5.777921        5.338387        3.805963
 34       -5.379164       -0.937902        3.134424
 35       -4.407122       -5.267675       -5.034629
 36        4.256556       -4.086719        5.209368
 37        5.874458       -6.160117        6.135973
 38       -3.503910       -1.973834        1.299733
 39        3.778475        0.675346       -5.968366
 40        3.921400       -1.202639        4.095318
 41       -0.776779        4.872252        3.955241
 42        3.544560        0.760265        2.317497
 43       -4.874138        2.826642        3.693416
 44        5.644741        2.107673       -4.888098
 45        3.305080        2.288839       -1.553846
 46       -2.409675        2.609742        2.419087
 47       -2.187512        0.367222       -5.560088
 48       -0.323979       -3.636159       -6.087993
 49       -0.986553       -3.248441       -2.724431
 50       -5.497795       -1.762016       -3.624858
 51        1.448287       -6.090064       -4.385857
 52        3.935267        4.210166        3.332849
 53        2.526024       -3.707605       -0.408632
 54        0.720832       -3.707990        3.221251
 55        4.604279       -3.485051        2.263711
 56       -4.749426        4.717234       -0.300159
 57       -3.309232       -5.921204        3.699653
 58       -6.023854       -5.999653        1.435007
 59        0.212891       -5.225726        0.047566


       *******************************************************************
       *********** Output from DALTON general input processing ***********
       *******************************************************************

 --------------------------------------------------------------------------------
   Overall default print level:    0
   Print level for DALTON.STAT:    1

    HERMIT 1- and 2-electron integral sections will be executed
    "Old" integral transformation used (limited to max 255 basis functions)
    Wave function sections will be executed (SIRIUS module)
    Environment is modeled using polarizable embedding scheme (PE library)
 --------------------------------------------------------------------------------


   ****************************************************************************
   *************** Output of molecule and basis set information ***************
   ****************************************************************************


    The two title cards from your ".mol" input:
    ------------------------------------------------------------------------
 1:                                                                         
 2:                                                                         
    ------------------------------------------------------------------------

  Coordinates are entered in Angstrom and converted to atomic units.
          - Conversion factor : 1 bohr = 0.52917721 A

  Atomic type no.    1
  --------------------
  Nuclear charge:   7.00000
  Number of symmetry independent centers:    1
  Number of basis sets to read;    2
  The basis set is "6-311G**" from the basis set library.
  Basis set file used for this atomic type with Z =   7 :
     "/gpfs/gss1/work/sdujk/reinholdt/Programs/dalton-private/pe-cvs/basis/6-311G**"

  Info about the basis set file: your basis has no documentation.
  Basis set: 6-311G**                                                                        

  Atomic type no.    2
  --------------------
  Nuclear charge:   1.00000
  Number of symmetry independent centers:    4
  Number of basis sets to read;    2
  The basis set is "6-311G**" from the basis set library.
  Basis set file used for this atomic type with Z =   1 :
     "/gpfs/gss1/work/sdujk/reinholdt/Programs/dalton-private/pe-cvs/basis/6-311G**"

  Info about the basis set file: your basis has no documentation.
  Basis set: 6-311G**                                                                        

  Atomic type no.    3
  --------------------
  Nuclear charge:   8.00000
  Number of symmetry independent centers:    4
  Number of basis sets to read;    2
  The basis set is "6-311G**" from the basis set library.
  Basis set file used for this atomic type with Z =   8 :
     "/gpfs/gss1/work/sdujk/reinholdt/Programs/dalton-private/pe-cvs/basis/6-311G**"

  Info about the basis set file: your basis has no documentation.
  Basis set: 6-311G**                                                                        

  Atomic type no.    4
  --------------------
  Nuclear charge:   1.00000
  Number of symmetry independent centers:    8
  Number of basis sets to read;    2
  The basis set is "6-311G**" from the basis set library.
  Basis set file used for this atomic type with Z =   1 :
     "/gpfs/gss1/work/sdujk/reinholdt/Programs/dalton-private/pe-cvs/basis/6-311G**"

  Info about the basis set file: your basis has no documentation.
  Basis set: 6-311G**                                                                        

  Atomic type no.    5
  --------------------
  Nuclear charge:   8.00000
  Number of symmetry independent centers:   59
  Number of basis sets to read;    2
     "/work/sdujk/reinholdt/ECP-Sonia/ecp_data/pe_ecp"
     Pseudo potential parameters for ECP type  1.
     -----------------------------------------------
     Atomic charge  :  8.0
     Effectiv charge:  0.0
     Core electrons :    8
     Max angular mom:    2
  This is a point charge without basis functions.


                         SYMGRP: Point group information
                         -------------------------------

@    Point group: C1 


                                 Isotopic Masses
                                 ---------------

                           N          14.003074
                           H           1.007825
                           H           1.007825
                           H           1.007825
                           H           1.007825
                           O          15.994915
                           O          15.994915
                           O          15.994915
                           O          15.994915
                           H           1.007825
                           H           1.007825
                           H           1.007825
                           H           1.007825
                           H           1.007825
                           H           1.007825
                           H           1.007825
                           H           1.007825

                       Total mass:    90.076634 amu
                       Natural abundance:  98.500 %

 Center-of-mass coordinates (a.u.):    0.304421    0.448288   -0.276269


  Atoms and basis sets
  --------------------

  Number of atom types :    5
  Total number of atoms:   76

  label    atoms   charge   prim   cont     basis
  ----------------------------------------------------------------------
  N           1    7.0000    31    18      [11s5p1d|4s3p1d]                                   
  H           4    1.0000     8     6      [5s1p|3s1p]                                        
  O           4    8.0000    31    18      [11s5p1d|4s3p1d]                                   
  H           8    1.0000     8     6      [5s1p|3s1p]                                        
   5         59    0.0000     0     0      Point Charge                                       
  ----------------------------------------------------------------------
  total:     76   51.0000   251   162
  ----------------------------------------------------------------------
  Spherical harmonic basis used.

  Threshold for neglecting AO integrals:  1.00D-12


  Cartesian Coordinates (a.u.)
  ----------------------------

  Total number of coordinates:  228
  N       :     1  x   0.0000000000    2  y   0.0000000000    3  z   0.0000000000
  H       :     4  x  -1.8647779607    5  y   0.2989395552    6  z   0.3954289711
  H       :     7  x   0.1887930885    8  y   0.0154012679    9  z  -1.9581398799
  H       :    10  x   0.5785131970   11  y  -1.5689375564   12  z   0.8628565076
  H       :    13  x   1.1386941609   14  y   1.4707058129   15  z   0.5838100993
  O       :    16  x  -5.3883405064   17  y   0.5309582391   18  z  -0.7472373941
  O       :    19  x   2.9430689157   20  y   4.2398632334   21  z   1.6978754596
  O       :    22  x   0.0523473034   23  y   0.8131850564   24  z  -5.1026460416
  O       :    25  x   3.9434596906   26  y  -3.3924420088   27  z   2.7450369562
  H       :    28  x  -6.2971551533   29  y  -0.7560718637   30  z   0.2690365290
  H       :    31  x  -6.6410664108   32  y   1.9902274295   33  z  -0.8211162369
  H       :    34  x   2.7076770707   35  y   6.1081239593   36  z   1.9882810116
  H       :    37  x   4.2858931823   38  y   4.0817706355   39  z   0.3493045358
  H       :    40  x   1.6388366360   41  y   0.6714461484   42  z  -6.0808854469
  H       :    43  x  -0.9390408163   44  y  -0.5736017988   45  z  -5.7846217440
  H       :    46  x   3.3387737868   47  y  -4.6024638822   48  z   4.0996172090
  H       :    49  x   4.4650562265   50  y  -1.8504859620   51  z   3.7339344168
    1     :    52  x   0.2133463001   53  y   6.8186553131   54  z  -2.9761391229
    2     :    55  x   9.4672009636   56  y   8.7079260141   57  z  -8.1908364751
    3     :    58  x   5.0512851753   59  y   9.3080406704   60  z  -4.6265389931
    4     :    61  x   8.0593153162   62  y -11.1984754427   63  z  -1.0812672737
    5     :    64  x  -8.0580303025   65  y  -7.9463134734   66  z  -3.3826040946
    6     :    67  x -11.1993277092   68  y  11.0693069929   69  z  -4.6862467797
    7     :    70  x  -3.2468839643   71  y  -8.5158693686   72  z   4.0187085849
    8     :    73  x   4.8656800547   74  y   0.7348672469   75  z  -6.8356893044
    9     :    76  x   5.7711706734   77  y -10.9146555863   78  z   5.7979953357
   10     :    79  x  -2.9934641320   80  y   5.2329974600   81  z  -8.2219886102
   11     :    82  x  -9.6139646534   83  y   3.6573098019   84  z  -1.0940323736
   12     :    85  x   9.3726371786   86  y  -6.3163169762   87  z  -5.0852019798
   13     :    88  x  11.1353000087   89  y   1.0932330195   90  z  -4.7481466486
   14     :    91  x   9.7465553972   92  y  -3.5190101954   93  z  -0.2954605694
   15     :    94  x   8.3318100440   95  y   7.0133594649   96  z   0.9559935494
   16     :    97  x   5.9188471009   98  y  -7.3510969872   99  z  -8.8645219489
   17     :   100  x  -3.7347658963  101  y   6.9689697983  102  z   0.0136381534
   18     :   103  x  11.5143091495  104  y   2.4026620460  105  z   3.2653673755
   19     :   106  x  -1.2724754322  107  y  11.7398290652  108  z  -4.8023194275
   20     :   109  x  -8.8684847046  110  y   1.3024597166  111  z  10.3571032315
   21     :   112  x  -2.4603100312  113  y   0.3345306570  114  z   5.0939400734
   22     :   115  x   1.9350871109  116  y   1.2463140637  117  z   7.4468059462
   23     :   118  x -10.1725223425  119  y  -6.6854163932  120  z   0.7608660989
   24     :   121  x  -5.3898466181  122  y   9.5259260927  123  z  -7.2602030503
   25     :   124  x -10.4488645527  125  y  -4.6147565507  126  z  11.3565302461
   26     :   127  x  -5.8639751234  128  y  -7.3148010175  129  z  10.8311107943
   27     :   130  x   2.0985673180  131  y   9.9413275792  132  z   3.0384263857
   28     :   133  x  -4.8925670780  134  y  -1.8006954581  135  z  -5.3876639844
   29     :   136  x   4.6079459777  137  y   5.2034326948  138  z   9.1294275366
   30     :   139  x   2.8870649923  140  y  -4.1625356403  141  z  -5.8278719058
   31     :   142  x   0.8580206984  143  y  -1.6626471852  144  z -11.3838840318
   32     :   145  x   0.7976099337  146  y   8.3572211912  147  z -11.5475702190
   33     :   148  x -10.9186882618  149  y  10.0880893792  150  z   7.1922277119
   34     :   151  x -10.1651467414  152  y  -1.7723779121  153  z   5.9232029196
   35     :   154  x  -8.3282535794  155  y  -9.9544630655  156  z  -9.5140699510
   36     :   157  x   8.0437250757  158  y  -7.7227796598  159  z   9.8442788043
   37     :   160  x  11.1011167528  161  y -11.6409340279  162  z  11.5953084804
   38     :   163  x  -6.6214302666  164  y  -3.7300056762  165  z   2.4561394056
   39     :   166  x   7.1402829201  167  y   1.2762189796  168  z -11.2785771537
   40     :   169  x   7.4103720265  170  y  -2.2726583372  171  z   7.7390294148
   41     :   172  x  -1.4678995696  173  y   9.2072218920  174  z   7.4743222483
   42     :   175  x   6.6982476336  176  y   1.4366926324  177  z   4.3794346255
   43     :   178  x  -9.2107859154  179  y   5.3415792334  180  z   6.9795447057
   44     :   181  x  10.6670145365  182  y   3.9829247310  183  z  -9.2371664921
   45     :   184  x   6.2456960212  185  y   4.3252788542  186  z  -2.9363433804
   46     :   187  x  -4.5536258002  188  y   4.9316976369  189  z   4.5714119025
   47     :   190  x  -4.1337985751  191  y   0.6939490071  192  z -10.5070435509
   48     :   193  x  -0.6122315802  194  y  -6.8713446569  195  z -11.5046394209
   49     :   196  x  -1.8643149778  197  y  -6.1386638232  198  z  -5.1484284364
   50     :   199  x -10.3893268414  200  y  -3.3297276679  201  z  -6.8499888620
   51     :   202  x   2.7368657804  203  y -11.5085530437  204  z  -8.2880685534
   52     :   205  x   7.4365768587  206  y   7.9560606808  207  z   6.2981718260
   53     :   208  x   4.7734935452  209  y  -7.0063580297  210  z  -0.7722025659
   54     :   211  x   1.3621750621  212  y  -7.0070855742  213  z   6.0872821699
   55     :   214  x   8.7008263131  215  y  -6.5857919216  216  z   4.2777938161
   56     :   217  x  -8.9751143909  218  y   8.9142803275  219  z  -0.5672183040
   57     :   220  x  -6.2535421641  221  y -11.1894538902  222  z   6.9913309275
   58     :   223  x -11.3834342769  224  y -11.3377010150  225  z   2.7117702174
   59     :   226  x   0.4023056845  227  y  -9.8751909443  228  z   0.0898867129

  Max    interatomic separation is   18.9188 Angstrom (   35.7513 Bohr)
  between atoms   54 and   23, " 37   " and "  6   ".

  Min HX interatomic separation is    0.9716 Angstrom (    1.8361 Bohr)

  Min YX interatomic separation is    2.5505 Angstrom (    4.8197 Bohr)


  Bond distances (Angstrom):
  --------------------------

                  atom 1     atom 2       distance
                  ------     ------       --------
  bond distance:  H          N            1.021069
  bond distance:  H          N            1.041040
  bond distance:  H          N            0.995748
  bond distance:  H          N            1.031615
  bond distance:  H          O            0.992148
  bond distance:  H          O            1.018477
  bond distance:  H          O            1.008238
  bond distance:  H          O            1.010550
  bond distance:  H          O            0.989150
  bond distance:  H          O            0.971602
  bond distance:  H          O            1.013023
  bond distance:  H          O            1.007886


  Bond angles (degrees):
  ----------------------

                  atom 1     atom 2     atom 3         angle
                  ------     ------     ------         -----
  bond angle:     H          N          H            107.188
  bond angle:     H          N          H            109.410
  bond angle:     H          N          H            112.721
  bond angle:     H          N          H            115.686
  bond angle:     H          N          H            103.658
  bond angle:     H          N          H            108.187
  bond angle:     H          O          H            103.048
  bond angle:     H          O          H            106.003
  bond angle:     H          O          H            101.924
  bond angle:     H          O          H            103.346




 Principal moments of inertia (u*A**2) and principal axes
 --------------------------------------------------------

   IA     278.928570          0.813318   -0.168257    0.556959
   IB     471.571523          0.378648    0.879879   -0.287122
   IC     508.953087         -0.441746    0.444413    0.779332


 Rotational constants
 --------------------

               A                   B                   C

           1811.8582           1071.6911            992.9776 MHz
            0.060437            0.035748            0.033122 cm-1


@  Nuclear repulsion energy :  197.867445360576 Hartree

  Reading potential input file for polarizable embedding calculation
 
    .------------------------------------------------.
    | Information from polarizable embedding library |
    `------------------------------------------------´

      Number of classical sites:    177

      Multipole moments upto 0th order.

      Dipole-dipole polarizabilities.

      Iterative solver for induced moments will be used
      with convergence threshold: 1.0E-08
      Total charge of classical region:    0.0000
 

  Number of floating/multiple basis set orbitals :   59


                     .---------------------------------------.
                     | Starting in Integral Section (HERMIT) |
                     `---------------------------------------'



 ***************************************************************************************
 ****************** Output from **INTEGRALS input processing (HERMIT) ******************
 ***************************************************************************************



    *************************************************************************
    ****************** Output from HERMIT input processing ******************
    *************************************************************************


 Default print level:        1

 * Nuclear model: Point charge

 Calculation of one- and two-electron Hamiltonian integrals.

 The following one-electron property integrals are calculated as requested:
          - overlap integrals
          - dipole length integrals

 Center of mass  (bohr):      0.304421072511      0.448288259817     -0.276268787024
 Operator center (bohr):      0.000000000000      0.000000000000      0.000000000000
 Gauge origin    (bohr):      0.000000000000      0.000000000000      0.000000000000
 Dipole origin   (bohr):      0.000000000000      0.000000000000      0.000000000000


     ************************************************************************
     ************************** Output from HERINT **************************
     ************************************************************************



                      Nuclear contribution to dipole moments
                      --------------------------------------

                 au               Debye          C m (/(10**-30)

      x     15.00448023        38.13758224       127.21328111
      y     22.81756991        57.99647406       193.45541394
      z    -13.61826219       -34.61416763      -115.46043507


  Time used in ONEDRV     is       4.40 seconds

 Threshold for neglecting two-electron integrals:  1.00D-12
 HERMIT - Number of two-electron integrals written:    35424714 ( 40.6% )
 HERMIT - Megabytes written:                            405.634

  Time used in TWOINT     is       6.04 seconds
  Total CPU  time used in HERMIT:  10.49 seconds
  Total wall time used in HERMIT:  10.67 seconds


                        .----------------------------------.
                        | End of Integral Section (HERMIT) |
                        `----------------------------------'



                   .--------------------------------------------.
                   | Starting in Wave Function Section (SIRIUS) |
                   `--------------------------------------------'

 INPUT: SIMPLE =  F
NCCEXCI for singlet:   15
 CCSD_INPUT: core-val requested
 Requested number of core orbs per sym
           1
 Indices of requested core orbs
           1

 *** Output from Huckel module :

     Using EWMO model:          T
     Using EHT  model:          F
     Number of Huckel orbitals each symmetry:   37

 EWMO - Energy Weighted Maximum Overlap - is a Huckel type method,
        which normally is better than Extended Huckel Theory.
 Reference: Linderberg and Ohrn, Propagators in Quantum Chemistry (Wiley, 1973)

 Huckel EWMO eigenvalues for symmetry :  1
          -20.684757     -20.684307     -20.684301     -20.684188     -15.676261
           -1.810613      -1.610149      -1.595077      -1.580492      -1.500336
           -0.832820      -0.801479      -0.775950      -0.773554      -0.760814
           -0.755893      -0.739108      -0.690751      -0.673016      -0.666928
           -0.648013      -0.613096      -0.582336      -0.581044      -0.555657
           -0.262605      -0.247434      -0.244364      -0.236639      -0.185256
           -0.184603      -0.183498      -0.176039      -0.173574      -0.144605
           -0.139775      -0.136468

 **********************************************************************
 *SIRIUS* a direct, restricted step, second order MCSCF program       *
 **********************************************************************

 
     Date and time (Linux)  : Fri Dec  7 14:36:52 2018
     Host name              : s73p28.deic.sdu.dk                      

 Title lines from ".mol" input file:
                                                                             
                                                                             

 Print level on unit LUPRI =   2 is   0
 Print level on unit LUW4  =   2 is  11

@    (Integral direct) CC calculation.

@    This is a combination run starting with
@              a restricted, closed shell Hartree-Fock calculation


 Initial molecular orbitals are obtained according to
 ".MOSTART EWMO  " input option

@    QM part is embedded in an environment :

@         Model: PE

     Wave function specification
     ============================

     For the specification of the Coupled Cluster: see later.


     Wave function environment is modeled using the
     polarizable embedding model (PE library).

@    Wave function type        --- PE-CC ---
@    Number of closed shell electrons          50
@    Number of electrons in active shells       0
@    Total charge of the molecule               1

@    Spin multiplicity and 2 M_S                1         0
@    Total number of symmetries                 1 (point group: C1 )
@    Reference state symmetry                   1 (irrep name : A  )

     Orbital specifications
     ======================
@    Abelian symmetry species          All |    1
@                                          |  A  
                                       --- |  ---
@    Occupied SCF orbitals              25 |   25
@    Secondary orbitals                137 |  137
@    Total number of orbitals          162 |  162
@    Number of basis functions         162 |  162

     Optimization information
     ========================
@    Number of configurations                 1
@    Number of orbital rotations           3425
     ------------------------------------------
@    Total number of variables             3426

     Maximum number of Fock   iterations      0
     Maximum number of DIIS   iterations     60
     Maximum number of QC-SCF iterations     60
     Threshold for SCF convergence     1.00D-07


 Changes of defaults for CC:
 ---------------------------


 -Implicit frozen core calculation
 -Excitation energies calculated
 -One-photon absorption strengths will be calculated
 -Oscillator strengths calculated
  
* Read MO coefficients from SIRIUS.RST with label "NEWORB  " and header info:  7Dec18  REORTHO 


 ***********************************************
 ***** DIIS acceleration of SCF iterations *****
 ***********************************************

 C1-DIIS algorithm; max error vectors =    8
 -----------------------------------------------------------------------------

 *** DIIS iteration number    1
 RDSUPM called. NFMAT, ISYMDM(1:NFMAT)           1           1

Calculating AOSUPINT
     (Precalculated AO two-electron integrals are transformed to P-supermatrix elements.
      Threshold for discarding integrals :  1.00D-12 )
  CPU  time used in FORMSUP    is   2.38 seconds
  WALL time used in FORMSUP    is   2.93 seconds

 ITDIIS, energy, error norm, change in energy, scr.thr., difden:
@ DIIS iter.   1    -360.196328729        4.03907D+00   -3.60D+02  -20    F

 (DIIS_RED) Control Parameters C2DIIS =         F NEVC =    1


 (DIIS_RED) B matrix:

               Column   1
       1      16.31409163
    ==== End of matrix output ====

 DIIS C vector; C2DIIS = F, LAMBDA = -1.63D+01
    1.000000
* Read MO coefficients from SIRIUS.RST with label "NEWORB  " and header info:  7Dec18  DIIS   1
      Virial theorem: -V/T =      2.003149
@    MULPOP   N       0.13; H       0.16; H       0.18; H       0.16; H       0.17; O      -0.59; O      -0.58; O      -0.58; O      -0.63; H       0.32; 
@             H       0.31; H       0.30; H       0.33; H       0.32; H       0.33; H       0.33; H       0.33; 
   1  Level shift: doubly occupied orbital energies shifted by -2.00D-01

 DIIS Fock eigenvalues in symmetry 1
      -20.80887      -20.80862      -20.80396      -20.79327      -16.48353
       -1.74270       -1.63290       -1.62672       -1.61680       -1.60713
       -1.22810       -1.21278       -1.19512       -1.00414       -0.99887
       -0.99703       -0.97668       -0.88552       -0.87595       -0.86962
       -0.86247       -0.83947       -0.83387       -0.83018       -0.82316
        0.00619        0.07043        0.07601        0.09596        0.12257
        0.16654        0.18386        0.19536        0.20559        0.21117
        0.22818        0.24253        0.25283        0.28380        0.31398
        0.42577        0.45956        0.46321        0.48615        0.50001
        0.51009        0.52002        0.53655        0.55256        0.69141
        0.70377        0.73000        0.84978        0.85969        0.88523
        0.90619        0.92377        0.96148        0.99453        0.99936
        1.00726        1.03200        1.04142        1.04806        1.07079
        1.09062        1.10532        1.23899        1.26237        1.32211
        1.32348        1.36317        1.36536        1.38720        1.40311
        1.41150        1.41958        1.43704        1.46498        1.51498
        1.54079        1.55837        1.56316        1.60227        1.64593
        1.68791        1.75304        1.75770        1.79231        1.83421
        1.85737        1.94043        2.03284        2.05529        2.08453
        2.09426        2.10525        2.15898        2.16950        2.19050
        2.20397        2.22423        2.23863        2.26512        2.41879
        2.43758        2.48154        2.49363        2.50821        2.52794
        2.58503        2.62961        2.66340        2.67384        2.70401
        2.71588        2.72716        2.76101        2.99213        3.03368
        3.07327        3.09118        3.32622        3.33886        3.36096
        3.36170        3.39039        3.39662        3.41913        3.43183
        3.51330        3.52438        3.55251        3.57780        3.84938
        3.86790        3.87389        3.88178        4.07591        4.10627
        4.12267        4.15252        4.72371        4.83390        4.87090
        5.25759        5.27401        5.28828        5.30819        5.64502
        5.71700        5.74740        5.79139        5.91428        5.94722
        5.94825        5.99260       36.38335       51.43901       51.46549
       51.47157       51.49052
 Time used in FCKEIG, thr_jaco:   4.59D-02  4.50D-02  1.73D-04
 CPU and wall times used in FCKEIG, THR_FCKEIG:   4.59D-02  4.50D-02  4.04D-02
 -----------------------------------------------------------------------------

 *** DIIS iteration number    2
 RDSUPM called. NFMAT, ISYMDM(1:NFMAT)           1           1

 ITDIIS, energy, error norm, change in energy, scr.thr., difden:
@ DIIS iter.   2    -361.114885864        1.17161D+00   -9.19D-01  -20    F

 (DIIS_RED) Control Parameters C2DIIS =         F NEVC =    2


 (DIIS_RED) B matrix:

               Column   1     Column   2
       1      16.31409163
       2       0.56783368     1.37268027
    ==== End of matrix output ====

 DIIS C vector; C2DIIS = F, LAMBDA = -1.33D+00
    0.048628    0.951372
* Read MO coefficients from SIRIUS.RST with label "NEWORB  " and header info:  7Dec18  DIIS   2
      Virial theorem: -V/T =      2.002487
@    MULPOP   N      -0.52; H       0.34; H       0.34; H       0.31; H       0.33; O      -0.59; O      -0.55; O      -0.53; O      -0.58; H       0.30; 
@             H       0.34; H       0.31; H       0.30; H       0.33; H       0.27; H       0.32; H       0.29; 
   2  Level shift: doubly occupied orbital energies shifted by -1.00D-01

 DIIS Fock eigenvalues in symmetry 1
      -20.78037      -20.77377      -20.75476      -20.75037      -15.62927
       -1.52536       -1.52284       -1.51937       -1.50319       -1.39140
       -0.89549       -0.89188       -0.88260       -0.87312       -0.86941
       -0.85475       -0.85334       -0.78704       -0.76849       -0.75915
       -0.75499       -0.72163       -0.71336       -0.70130       -0.69503
        0.06928        0.11136        0.11904        0.14245        0.17777
        0.19648        0.21626        0.24048        0.25616        0.26333
        0.28471        0.32185        0.34899        0.38056        0.39231
        0.45895        0.49538        0.49861        0.52471        0.53667
        0.54972        0.55720        0.57887        0.63899        0.83832
        0.84553        0.87581        0.89073        0.90463        0.91964
        0.94136        0.97408        1.01264        1.01955        1.02502
        1.04488        1.06686        1.08277        1.10137        1.15613
        1.18202        1.21732        1.27315        1.31251        1.36643
        1.37590        1.41082        1.41920        1.44266        1.45410
        1.46189        1.46952        1.48846        1.52402        1.59276
        1.62478        1.62892        1.64870        1.71893        1.75133
        1.76578        1.81030        1.81370        1.85984        1.89847
        1.97281        2.04409        2.09605        2.10968        2.13170
        2.14802        2.16598        2.23739        2.25157        2.28856
        2.30347        2.31420        2.33088        2.39002        2.52083
        2.53206        2.56715        2.57170        2.57988        2.61052
        2.68487        2.72518        2.73199        2.77591        2.78323
        2.79051        2.95006        2.99388        3.17010        3.27402
        3.29312        3.33701        3.36161        3.36933        3.37676
        3.40034        3.42011        3.43297        3.48842        3.51659
        3.53218        3.54185        3.57585        3.60555        3.86328
        3.88225        3.88935        3.90369        4.08855        4.11760
        4.14050        4.17388        5.11529        5.21715        5.23130
        5.24627        5.28955        5.29652        5.33170        5.63512
        5.70840        5.74312        5.79541        5.91736        5.94864
        5.95753        6.01136       37.11959       51.37003       51.40207
       51.41364       51.44625
 Time used in FCKEIG, thr_jaco:   3.09D-02  3.10D-02  5.00D-05
 CPU and wall times used in FCKEIG, THR_FCKEIG:   3.09D-02  3.10D-02  1.17D-02
 -----------------------------------------------------------------------------

 *** DIIS iteration number    3
 RDSUPM called. NFMAT, ISYMDM(1:NFMAT)           1           1

 ITDIIS, energy, error norm, change in energy, scr.thr., difden:
@ DIIS iter.   3    -361.192210020        3.71396D-01   -7.73D-02  -20    F

 (DIIS_RED) Control Parameters C2DIIS =         F NEVC =    3


 (DIIS_RED) B matrix:

               Column   1     Column   2     Column   3
       1      16.31409163
       2       0.56783368     1.37268027
       3       0.83071369    -0.00583642     0.13793498
    ==== End of matrix output ====

 DIIS C vector; C2DIIS = F, LAMBDA = -9.29D-02
   -0.046108    0.090837    0.955271
* Read MO coefficients from SIRIUS.RST with label "NEWORB  " and header info:  7Dec18  DIIS   3
      Virial theorem: -V/T =      2.003134
@    MULPOP   N      -0.31; H       0.30; H       0.30; H       0.25; H       0.29; O      -0.66; O      -0.62; O      -0.59; O      -0.63; H       0.33; 
@             H       0.37; H       0.33; H       0.33; H       0.36; H       0.29; H       0.35; H       0.31; 
   3  Level shift: doubly occupied orbital energies shifted by -5.00D-02

 DIIS Fock eigenvalues in symmetry 1
      -20.68860      -20.67509      -20.66073      -20.65724      -15.78226
       -1.45738       -1.45104       -1.44791       -1.43548       -1.38944
       -0.87068       -0.86173       -0.83599       -0.81410       -0.80613
       -0.79882       -0.78730       -0.71714       -0.69781       -0.69024
       -0.68801       -0.64541       -0.63500       -0.62534       -0.62033
        0.07553        0.11872        0.12565        0.14966        0.18129
        0.20251        0.22239        0.24458        0.26404        0.26744
        0.28775        0.32227        0.35085        0.38229        0.39382
        0.47012        0.50606        0.50973        0.53399        0.54705
        0.56074        0.56733        0.59066        0.64043        0.83061
        0.83978        0.86796        0.89539        0.91317        0.93171
        0.95853        0.98680        1.02650        1.03406        1.04136
        1.06029        1.08062        1.09759        1.11590        1.15194
        1.18217        1.21768        1.28598        1.32448        1.37952
        1.38980        1.42529        1.43459        1.45970        1.46797
        1.47682        1.48445        1.50148        1.53464        1.60309
        1.63432        1.63928        1.65596        1.72309        1.75884
        1.77427        1.82264        1.82604        1.86978        1.91247
        1.97220        2.04775        2.11170        2.12395        2.14666
        2.16342        2.17945        2.25532        2.27085        2.30561
        2.31092        2.31655        2.33140        2.39028        2.52991
        2.54258        2.57851        2.58261        2.58909        2.62023
        2.69381        2.73672        2.74441        2.78916        2.79409
        2.80061        2.91846        2.96301        3.16203        3.25917
        3.27347        3.33531        3.37386        3.38958        3.40233
        3.41561        3.44409        3.45157        3.49293        3.52123
        3.55822        3.57054        3.60172        3.63600        3.88815
        3.91028        3.91514        3.93277        4.11604        4.14800
        4.16762        4.20545        5.04244        5.15418        5.18576
        5.28028        5.30693        5.31397        5.35106        5.66545
        5.74211        5.77509        5.83110        5.94916        5.98476
        5.98839        6.04805       36.92290       51.41195       51.44909
       51.45525       51.49370
 Time used in FCKEIG, thr_jaco:   2.66D-02  2.60D-02  1.59D-05
 CPU and wall times used in FCKEIG, THR_FCKEIG:   2.66D-02  2.60D-02  3.71D-03
 -----------------------------------------------------------------------------

 *** DIIS iteration number    4
 RDSUPM called. NFMAT, ISYMDM(1:NFMAT)           1           1

 ITDIIS, energy, error norm, change in energy, scr.thr., difden:
@ DIIS iter.   4    -361.202224485        9.09352D-02   -1.00D-02  -20    F

 (DIIS_RED) Control Parameters C2DIIS =         F NEVC =    4


 (DIIS_RED) B matrix:

               Column   1     Column   2     Column   3     Column   4
       1      16.31409163
       2       0.56783368     1.37268027
       3       0.83071369    -0.00583642     0.13793498
       4       0.05262758     0.07497908     0.00581069     0.00826921
    ==== End of matrix output ====

 DIIS C vector; C2DIIS = F, LAMBDA = -4.62D-03
   -0.000808   -0.054454   -0.008750    1.064012
* Read MO coefficients from SIRIUS.RST with label "NEWORB  " and header info:  7Dec18  DIIS   4
      Virial theorem: -V/T =      2.003193
@    MULPOP   N      -0.38; H       0.31; H       0.32; H       0.27; H       0.31; O      -0.67; O      -0.63; O      -0.60; O      -0.65; H       0.33; 
@             H       0.38; H       0.34; H       0.33; H       0.37; H       0.29; H       0.36; H       0.32; 
   4  Level shift: doubly occupied orbital energies shifted by -1.25D-02

 DIIS Fock eigenvalues in symmetry 1
      -20.66304      -20.65411      -20.63648      -20.63647      -15.71506
       -1.42424       -1.41850       -1.41584       -1.40255       -1.34085
       -0.82288       -0.81498       -0.78945       -0.77977       -0.77115
       -0.76457       -0.75344       -0.68184       -0.66305       -0.65472
       -0.65258       -0.60827       -0.59903       -0.58829       -0.58339
        0.07636        0.11826        0.12490        0.14881        0.18263
        0.20225        0.22218        0.24597        0.26352        0.26836
        0.29029        0.32648        0.35651        0.38797        0.39935
        0.46997        0.50557        0.50971        0.53352        0.54556
        0.56043        0.56545        0.58971        0.64491        0.83675
        0.84573        0.87406        0.89762        0.91460        0.93267
        0.95912        0.98830        1.02575        1.03309        1.04036
        1.05944        1.07987        1.09612        1.11370        1.15731
        1.18422        1.22221        1.28572        1.32540        1.37950
        1.39001        1.42376        1.43286        1.45806        1.46613
        1.47503        1.48261        1.50112        1.53485        1.60379
        1.63521        1.63923        1.65967        1.72895        1.76310
        1.77728        1.82122        1.82507        1.86942        1.91207
        1.97747        2.05230        2.10963        2.12304        2.14389
        2.16317        2.17902        2.25243        2.26759        2.30244
        2.31652        2.32015        2.33463        2.39515        2.53207
        2.54413        2.57852        2.58491        2.59117        2.62379
        2.69859        2.73686        2.74493        2.78821        2.79346
        2.80053        2.92962        2.97411        3.16989        3.26641
        3.28162        3.34222        3.37309        3.38668        3.39934
        3.41430        3.44179        3.44821        3.49365        3.52236
        3.55533        3.56651        3.59855        3.63214        3.88498
        3.90593        3.91126        3.92844        4.11288        4.14371
        4.16426        4.20121        5.05837        5.16970        5.19894
        5.27231        5.30219        5.30989        5.34459        5.66011
        5.73498        5.76841        5.82350        5.94285        5.97640
        5.98144        6.03970       36.95229       51.40031       51.43392
       51.44134       51.47743
 Time used in FCKEIG, thr_jaco:   2.47D-02  2.50D-02  3.88D-06
 CPU and wall times used in FCKEIG, THR_FCKEIG:   2.47D-02  2.50D-02  9.09D-04
 -----------------------------------------------------------------------------

 *** DIIS iteration number    5
 RDSUPM called. NFMAT, ISYMDM(1:NFMAT)           1           1

 ITDIIS, energy, error norm, change in energy, scr.thr., difden:
@ DIIS iter.   5    -361.203167759        3.05620D-02   -9.43D-04  -20    F

 (DIIS_RED) Control Parameters C2DIIS =         F NEVC =    5


 (DIIS_RED) B matrix:

               Column   1     Column   2     Column   3     Column   4     Column   5
       1      16.31409163
       2       0.56783368     1.37268027
       3       0.83071369    -0.00583642     0.13793498
       4       0.05262758     0.07497908     0.00581069     0.00826921
       5       0.02379345     0.00726255     0.00578473     0.00069014     0.00093404
    ==== End of matrix output ====

 DIIS C vector; C2DIIS = F, LAMBDA = -6.17D-04
    0.001082   -0.012631   -0.046995    0.138508    0.920037
* Read MO coefficients from SIRIUS.RST with label "NEWORB  " and header info:  7Dec18  DIIS   5
      Virial theorem: -V/T =      2.002786
@    MULPOP   N      -0.36; H       0.31; H       0.32; H       0.26; H       0.30; O      -0.69; O      -0.64; O      -0.61; O      -0.66; H       0.34; 
@             H       0.39; H       0.35; H       0.33; H       0.37; H       0.30; H       0.36; H       0.32; 

 DIIS Fock eigenvalues in symmetry 1
      -20.64475      -20.63321      -20.61752      -20.61503      -15.69832
       -1.40963       -1.40283       -1.40036       -1.38779       -1.32654
       -0.80863       -0.80076       -0.77507       -0.76578       -0.75650
       -0.74967       -0.73937       -0.66771       -0.64822       -0.63972
       -0.63816       -0.59287       -0.58285       -0.57267       -0.56713
        0.07696        0.11868        0.12529        0.14920        0.18325
        0.20269        0.22264        0.24657        0.26405        0.26892
        0.29112        0.32755        0.35779        0.38918        0.40051
        0.47066        0.50625        0.51052        0.53411        0.54603
        0.56119        0.56582        0.59054        0.64607        0.83816
        0.84714        0.87560        0.89921        0.91658        0.93461
        0.96123        0.99000        1.02716        1.03475        1.04200
        1.06100        1.08140        1.09771        1.11517        1.15880
        1.18554        1.22367        1.28712        1.32708        1.38082
        1.39126        1.42443        1.43347        1.45895        1.46663
        1.47570        1.48329        1.50204        1.53615        1.60444
        1.63606        1.63997        1.66064        1.73010        1.76415
        1.77835        1.82133        1.82537        1.86968        1.91257
        1.97865        2.05353        2.11039        2.12403        2.14451
        2.16438        2.18027        2.25329        2.26861        2.30325
        2.31796        2.32148        2.33603        2.39635        2.53288
        2.54478        2.57877        2.58568        2.59195        2.62466
        2.69954        2.73725        2.74545        2.78835        2.79363
        2.80096        2.93131        2.97583        3.17144        3.26871
        3.28386        3.34449        3.37537        3.38975        3.40159
        3.41675        3.44432        3.45137        3.49650        3.52536
        3.55753        3.56957        3.60085        3.63541        3.88720
        3.90885        3.91379        3.93167        4.11534        4.14693
        4.16683        4.20473        5.06086        5.17224        5.20171
        5.27735        5.30600        5.31346        5.34975        5.66342
        5.73928        5.77246        5.82840        5.94595        5.98082
        5.98478        6.04442       36.95645       51.40603       51.44172
       51.44824       51.48620
 Time used in FCKEIG, thr_jaco:   2.29D-02  2.30D-02  1.31D-06
 CPU and wall times used in FCKEIG, THR_FCKEIG:   2.29D-02  2.30D-02  3.06D-04
 -----------------------------------------------------------------------------

 *** DIIS iteration number    6
 RDSUPM called. NFMAT, ISYMDM(1:NFMAT)           1           1

 ITDIIS, energy, error norm, change in energy, scr.thr., difden:
@ DIIS iter.   6    -361.203253498        1.07825D-02   -8.57D-05  -20    F

 (DIIS_RED) Control Parameters C2DIIS =         F NEVC =    6


 (DIIS_RED) B matrix:

               Column   1     Column   2     Column   3     Column   4     Column   5     Column   6
       1      16.31409163
       2       0.56783368     1.37268027
       3       0.83071369    -0.00583642     0.13793498
       4       0.05262758     0.07497908     0.00581069     0.00826921
       5       0.02379345     0.00726255     0.00578473     0.00069014     0.00093404
       6      -0.00459732    -0.00012577     0.00077397     0.00057088     0.00002034     0.00011626
    ==== End of matrix output ====

 DIIS C vector; C2DIIS = F, LAMBDA = -3.52D-05
    0.000786    0.006611   -0.008342   -0.134583    0.094702    1.040826
* Read MO coefficients from SIRIUS.RST with label "NEWORB  " and header info:  7Dec18  DIIS   6
      Virial theorem: -V/T =      2.003048
@    MULPOP   N      -0.36; H       0.31; H       0.31; H       0.26; H       0.30; O      -0.69; O      -0.64; O      -0.61; O      -0.66; H       0.34; 
@             H       0.39; H       0.35; H       0.34; H       0.37; H       0.30; H       0.36; H       0.33; 

 DIIS Fock eigenvalues in symmetry 1
      -20.64618      -20.63550      -20.61927      -20.61738      -15.70038
       -1.40996       -1.40347       -1.40100       -1.38828       -1.32707
       -0.80913       -0.80130       -0.77557       -0.76620       -0.75712
       -0.75029       -0.73994       -0.66834       -0.64912       -0.64061
       -0.63899       -0.59291       -0.58322       -0.57284       -0.56751
        0.07687        0.11854        0.12512        0.14902        0.18319
        0.20255        0.22249        0.24648        0.26390        0.26879
        0.29100        0.32737        0.35760        0.38903        0.40036
        0.47050        0.50601        0.51031        0.53388        0.54579
        0.56098        0.56553        0.59029        0.64587        0.83780
        0.84683        0.87530        0.89900        0.91630        0.93436
        0.96096        0.98980        1.02685        1.03435        1.04164
        1.06062        1.08103        1.09729        1.11474        1.15852
        1.18524        1.22338        1.28689        1.32673        1.38047
        1.39095        1.42414        1.43314        1.45862        1.46627
        1.47535        1.48295        1.50172        1.53580        1.60420
        1.63576        1.63967        1.66045        1.72995        1.76400
        1.77812        1.82106        1.82507        1.86938        1.91233
        1.97845        2.05334        2.10997        2.12363        2.14401
        2.16399        2.17991        2.25290        2.26816        2.30279
        2.31767        2.32122        2.33573        2.39605        2.53262
        2.54452        2.57845        2.58551        2.59173        2.62452
        2.69944        2.73695        2.74519        2.78804        2.79329
        2.80064        2.93078        2.97529        3.17118        3.26801
        3.28319        3.34386        3.37485        3.38897        3.40108
        3.41612        3.44362        3.45057        3.49575        3.52458
        3.55706        3.56879        3.60021        3.63458        3.88669
        3.90805        3.91307        3.93084        4.11480        4.14611
        4.16613        4.20384        5.05989        5.17128        5.20078
        5.27615        5.30508        5.31271        5.34851        5.66264
        5.73813        5.77137        5.82712        5.94512        5.97955
        5.98376        6.04312       36.95443       51.40461       51.43962
       51.44635       51.48389
 Time used in FCKEIG, thr_jaco:   2.26D-02  2.30D-02  4.61D-07
 CPU and wall times used in FCKEIG, THR_FCKEIG:   2.27D-02  2.30D-02  1.08D-04
 -----------------------------------------------------------------------------

 *** DIIS iteration number    7
 RDSUPM called. NFMAT, ISYMDM(1:NFMAT)           1           1

 ITDIIS, energy, error norm, change in energy, scr.thr., difden:
@ DIIS iter.   7    -361.203266493        2.27120D-03   -1.30D-05  -20    F

 (DIIS_RED) Control Parameters C2DIIS =         F NEVC =    7


 (DIIS_RED) B matrix:

               Column   1     Column   2     Column   3     Column   4     Column   5     Column   6
       1      16.31409163
       2       0.56783368     1.37268027
       3       0.83071369    -0.00583642     0.13793498
       4       0.05262758     0.07497908     0.00581069     0.00826921
       5       0.02379345     0.00726255     0.00578473     0.00069014     0.00093404
       6      -0.00459732    -0.00012577     0.00077397     0.00057088     0.00002034     0.00011626
       7       0.00028496     0.00020326    -0.00000818     0.00000418     0.00004809     0.00000168

               Column   7
       7       0.00000516
    ==== End of matrix output ====

 DIIS C vector; C2DIIS = F, LAMBDA = -1.21D-06
   -0.000248   -0.000844    0.005457    0.023556   -0.096603   -0.153101    1.221784
* Read MO coefficients from SIRIUS.RST with label "NEWORB  " and header info:  7Dec18  DIIS   7
      Virial theorem: -V/T =      2.002990
@    MULPOP   N      -0.36; H       0.31; H       0.31; H       0.26; H       0.30; O      -0.69; O      -0.64; O      -0.61; O      -0.66; H       0.34; 
@             H       0.39; H       0.35; H       0.34; H       0.38; H       0.30; H       0.36; H       0.33; 

 DIIS Fock eigenvalues in symmetry 1
      -20.64599      -20.63513      -20.61904      -20.61709      -15.69993
       -1.40984       -1.40332       -1.40082       -1.38815       -1.32685
       -0.80895       -0.80113       -0.77539       -0.76613       -0.75699
       -0.75018       -0.73986       -0.66835       -0.64907       -0.64056
       -0.63896       -0.59275       -0.58300       -0.57266       -0.56731
        0.07693        0.11858        0.12516        0.14905        0.18324
        0.20260        0.22253        0.24654        0.26394        0.26885
        0.29108        0.32747        0.35774        0.38916        0.40049
        0.47056        0.50607        0.51038        0.53393        0.54581
        0.56103        0.56555        0.59033        0.64601        0.83795
        0.84696        0.87544        0.89910        0.91644        0.93448
        0.96107        0.98991        1.02695        1.03445        1.04174
        1.06071        1.08112        1.09737        1.11482        1.15867
        1.18536        1.22352        1.28699        1.32686        1.38056
        1.39103        1.42417        1.43316        1.45865        1.46629
        1.47538        1.48298        1.50178        1.53589        1.60425
        1.63583        1.63972        1.66056        1.73008        1.76411
        1.77823        1.82108        1.82510        1.86940        1.91235
        1.97858        2.05346        2.11001        2.12370        2.14404
        2.16406        2.17998        2.25293        2.26821        2.30281
        2.31779        2.32134        2.33585        2.39617        2.53269
        2.54458        2.57846        2.58559        2.59181        2.62461
        2.69954        2.73697        2.74524        2.78805        2.79330
        2.80067        2.93099        2.97551        3.17135        3.26822
        3.28340        3.34405        3.37498        3.38915        3.40119
        3.41627        3.44376        3.45071        3.49595        3.52476
        3.55717        3.56897        3.60033        3.63473        3.88679
        3.90820        3.91320        3.93097        4.11492        4.14629
        4.16627        4.20401        5.06018        5.17157        5.20104
        5.27640        5.30526        5.31287        5.34872        5.66278
        5.73833        5.77155        5.82731        5.94525        5.97977
        5.98390        6.04330       36.95486       51.40480       51.43994
       51.44661       51.48418
 Time used in FCKEIG, thr_jaco:   2.25D-02  2.20D-02  9.70D-08
 CPU and wall times used in FCKEIG, THR_FCKEIG:   2.25D-02  2.20D-02  2.27D-05
 -----------------------------------------------------------------------------

 *** DIIS iteration number    8
 RDSUPM called. NFMAT, ISYMDM(1:NFMAT)           1           1

 ITDIIS, energy, error norm, change in energy, scr.thr., difden:
@ DIIS iter.   8    -361.203267059        3.51794D-04   -5.67D-07  -20    F

 (DIIS_RED) Control Parameters C2DIIS =         F NEVC =    8


 (DIIS_RED) B matrix:

               Column   1     Column   2     Column   3     Column   4     Column   5     Column   6
       1      16.31409163
       2       0.56783368     1.37268027
       3       0.83071369    -0.00583642     0.13793498
       4       0.05262758     0.07497908     0.00581069     0.00826921
       5       0.02379345     0.00726255     0.00578473     0.00069014     0.00093404
       6      -0.00459732    -0.00012577     0.00077397     0.00057088     0.00002034     0.00011626
       7       0.00028496     0.00020326    -0.00000818     0.00000418     0.00004809     0.00000168
       8       0.00010848    -0.00005204     0.00000928     0.00000155     0.00000019     0.00000157

               Column   7     Column   8
       7       0.00000516
       8       0.00000035     0.00000012
    ==== End of matrix output ====

 DIIS C vector; C2DIIS = F, LAMBDA = -5.53D-08
    0.000017    0.000060   -0.000895   -0.001562    0.018334   -0.001431   -0.246964    1.232440
* Read MO coefficients from SIRIUS.RST with label "NEWORB  " and header info:  7Dec18  DIIS   8
      Virial theorem: -V/T =      2.003006
@    MULPOP   N      -0.36; H       0.31; H       0.31; H       0.26; H       0.30; O      -0.69; O      -0.64; O      -0.61; O      -0.66; H       0.34; 
@             H       0.39; H       0.35; H       0.34; H       0.38; H       0.30; H       0.36; H       0.33; 

 DIIS Fock eigenvalues in symmetry 1
      -20.64598      -20.63518      -20.61905      -20.61707      -15.69997
       -1.40984       -1.40332       -1.40083       -1.38815       -1.32686
       -0.80896       -0.80114       -0.77540       -0.76612       -0.75699
       -0.75017       -0.73985       -0.66837       -0.64910       -0.64058
       -0.63899       -0.59274       -0.58301       -0.57265       -0.56731
        0.07693        0.11857        0.12515        0.14905        0.18324
        0.20260        0.22253        0.24653        0.26394        0.26884
        0.29107        0.32746        0.35772        0.38915        0.40048
        0.47056        0.50607        0.51038        0.53393        0.54581
        0.56103        0.56555        0.59033        0.64600        0.83794
        0.84695        0.87543        0.89909        0.91643        0.93447
        0.96106        0.98991        1.02695        1.03445        1.04174
        1.06071        1.08112        1.09736        1.11481        1.15865
        1.18536        1.22350        1.28699        1.32685        1.38055
        1.39103        1.42417        1.43316        1.45865        1.46628
        1.47538        1.48297        1.50178        1.53588        1.60425
        1.63582        1.63972        1.66055        1.73007        1.76410
        1.77822        1.82107        1.82509        1.86940        1.91235
        1.97857        2.05345        2.11001        2.12369        2.14403
        2.16406        2.17998        2.25293        2.26820        2.30281
        2.31778        2.32133        2.33584        2.39616        2.53268
        2.54457        2.57846        2.58558        2.59180        2.62460
        2.69953        2.73697        2.74523        2.78804        2.79330
        2.80066        2.93097        2.97549        3.17133        3.26820
        3.28338        3.34404        3.37498        3.38913        3.40118
        3.41626        3.44375        3.45071        3.49593        3.52475
        3.55717        3.56895        3.60033        3.63473        3.88679
        3.90819        3.91319        3.93097        4.11492        4.14627
        4.16626        4.20401        5.06015        5.17154        5.20102
        5.27637        5.30525        5.31287        5.34872        5.66278
        5.73831        5.77154        5.82731        5.94525        5.97974
        5.98390        6.04331       36.95483       51.40481       51.43990
       51.44659       51.48420
 Time used in FCKEIG, thr_jaco:   2.24D-02  2.20D-02  1.50D-08
 CPU and wall times used in FCKEIG, THR_FCKEIG:   2.24D-02  2.20D-02  3.52D-06
 -----------------------------------------------------------------------------

 *** DIIS iteration number    9
 RDSUPM called. NFMAT, ISYMDM(1:NFMAT)           1           1

 ITDIIS, energy, error norm, change in energy, scr.thr., difden:
@ DIIS iter.   9    -361.203267076        8.65701D-05   -1.68D-08  -20    F

 (DIIS_RED) Control Parameters C2DIIS =         F NEVC =    8


 (DIIS_RED) B matrix:

               Column   1     Column   2     Column   3     Column   4     Column   5     Column   6
       1       0.00000001
       2       0.00001169     1.37268027
       3      -0.00000299    -0.00583642     0.13793498
       4       0.00000033     0.07497908     0.00581069     0.00826921
       5       0.00000026     0.00726255     0.00578473     0.00069014     0.00093404
       6      -0.00000003    -0.00012577     0.00077397     0.00057088     0.00002034     0.00011626
       7       0.00000008     0.00020326    -0.00000818     0.00000418     0.00004809     0.00000168
       8       0.00000001    -0.00005204     0.00000928     0.00000155     0.00000019     0.00000157

               Column   7     Column   8
       7       0.00000516
       8       0.00000035     0.00000012
    ==== End of matrix output ====

 DIIS C vector; C2DIIS = F, LAMBDA = -5.65D-09
    1.042064    0.000013   -0.000062   -0.000507    0.002034    0.003548   -0.033609   -0.013482
* Read MO coefficients from SIRIUS.RST with label "NEWORB  " and header info:  7Dec18  DIIS   9
      Virial theorem: -V/T =      2.003005
@    MULPOP   N      -0.36; H       0.31; H       0.31; H       0.26; H       0.30; O      -0.69; O      -0.64; O      -0.61; O      -0.66; H       0.34; 
@             H       0.39; H       0.35; H       0.34; H       0.38; H       0.30; H       0.36; H       0.33; 

 DIIS Fock eigenvalues in symmetry 1
      -20.64599      -20.63514      -20.61904      -20.61709      -15.69996
       -1.40984       -1.40333       -1.40082       -1.38815       -1.32686
       -0.80896       -0.80113       -0.77540       -0.76612       -0.75698
       -0.75018       -0.73984       -0.66837       -0.64909       -0.64058
       -0.63899       -0.59274       -0.58300       -0.57265       -0.56731
        0.07693        0.11857        0.12516        0.14905        0.18324
        0.20260        0.22253        0.24654        0.26394        0.26885
        0.29108        0.32746        0.35773        0.38915        0.40048
        0.47056        0.50607        0.51038        0.53393        0.54581
        0.56103        0.56555        0.59033        0.64600        0.83794
        0.84695        0.87544        0.89909        0.91643        0.93448
        0.96106        0.98991        1.02695        1.03445        1.04174
        1.06071        1.08112        1.09736        1.11482        1.15866
        1.18536        1.22351        1.28699        1.32686        1.38055
        1.39103        1.42417        1.43316        1.45865        1.46628
        1.47538        1.48298        1.50178        1.53588        1.60425
        1.63582        1.63972        1.66055        1.73007        1.76411
        1.77822        1.82107        1.82510        1.86940        1.91235
        1.97857        2.05346        2.11001        2.12370        2.14404
        2.16406        2.17998        2.25293        2.26820        2.30281
        2.31778        2.32134        2.33584        2.39616        2.53268
        2.54457        2.57846        2.58559        2.59180        2.62460
        2.69953        2.73697        2.74523        2.78805        2.79330
        2.80066        2.93098        2.97549        3.17134        3.26820
        3.28339        3.34404        3.37498        3.38914        3.40118
        3.41626        3.44375        3.45071        3.49594        3.52475
        3.55717        3.56896        3.60033        3.63473        3.88678
        3.90820        3.91319        3.93096        4.11492        4.14629
        4.16627        4.20400        5.06016        5.17155        5.20103
        5.27639        5.30525        5.31287        5.34871        5.66277
        5.73832        5.77155        5.82730        5.94525        5.97976
        5.98390        6.04330       36.95484       51.40480       51.43993
       51.44661       51.48417
 Time used in FCKEIG, thr_jaco:   2.26D-02  2.30D-02  3.70D-09
 CPU and wall times used in FCKEIG, THR_FCKEIG:   2.26D-02  2.30D-02  8.66D-07
 -----------------------------------------------------------------------------

 *** DIIS iteration number   10
 RDSUPM called. NFMAT, ISYMDM(1:NFMAT)           1           1

 ITDIIS, energy, error norm, change in energy, scr.thr., difden:
@ DIIS iter.  10    -361.203267077        3.71536D-05   -6.89D-10  -20    F

 (DIIS_RED) Control Parameters C2DIIS =         F NEVC =    8


 (DIIS_RED) B matrix:

               Column   1     Column   2     Column   3     Column   4     Column   5     Column   6
       1       0.00000001
       2      -0.00000000     0.00000000
       3      -0.00000299    -0.00000052     0.13793498
       4       0.00000033     0.00000004     0.00581069     0.00826921
       5       0.00000026    -0.00000007     0.00578473     0.00069014     0.00093404
       6      -0.00000003     0.00000002     0.00077397     0.00057088     0.00002034     0.00011626
       7       0.00000008     0.00000000    -0.00000818     0.00000418     0.00004809     0.00000168
       8       0.00000001     0.00000001     0.00000928     0.00000155     0.00000019     0.00000157

               Column   7     Column   8
       7       0.00000516
       8       0.00000035     0.00000012
    ==== End of matrix output ====

 DIIS C vector; C2DIIS = F, LAMBDA = -3.54D-10
    0.280822    0.835763    0.000055   -0.000067   -0.001020    0.001666    0.013704   -0.130925
* Read MO coefficients from SIRIUS.RST with label "NEWORB  " and header info:  7Dec18  DIIS  10
      Virial theorem: -V/T =      2.003005
@    MULPOP   N      -0.36; H       0.31; H       0.31; H       0.26; H       0.30; O      -0.69; O      -0.64; O      -0.61; O      -0.66; H       0.34; 
@             H       0.39; H       0.35; H       0.34; H       0.38; H       0.30; H       0.36; H       0.33; 

 DIIS Fock eigenvalues in symmetry 1
      -20.64599      -20.63516      -20.61904      -20.61708      -15.69996
       -1.40984       -1.40332       -1.40082       -1.38815       -1.32686
       -0.80896       -0.80113       -0.77540       -0.76611       -0.75698
       -0.75017       -0.73984       -0.66837       -0.64910       -0.64058
       -0.63899       -0.59274       -0.58300       -0.57265       -0.56731
        0.07693        0.11857        0.12515        0.14905        0.18324
        0.20260        0.22253        0.24654        0.26394        0.26885
        0.29108        0.32746        0.35773        0.38915        0.40048
        0.47056        0.50607        0.51038        0.53393        0.54581
        0.56103        0.56555        0.59033        0.64600        0.83794
        0.84695        0.87544        0.89909        0.91643        0.93448
        0.96106        0.98991        1.02695        1.03445        1.04174
        1.06071        1.08112        1.09736        1.11482        1.15866
        1.18536        1.22351        1.28699        1.32686        1.38055
        1.39103        1.42417        1.43316        1.45865        1.46628
        1.47538        1.48297        1.50178        1.53588        1.60425
[...]
       3       0.46039989    -0.57856366     0.67327263
    ==== End of matrix output ====


 CCSD  Transition strength matrix for state nr. 13 of symmetry 1
 CCSD  excitation energy:15.21225534

 Gauge: length

               Column   1     Column   2     Column   3
       1     3.375027D-04   9.738007D-06   2.612663D-04
       2     9.738007D-06   2.807714D-07   7.537453D-06
       3     2.612663D-04   7.537453D-06   2.022464D-04
    ==== End of matrix output ====

 Principal values of diagonalized transition strength matrix:

             a.u.               
 1      -0.00000000
 2       0.00000000
 3       0.00054003

 Principal axis of diagonalized transition strength matrix:


               Column   1     Column   2     Column   3
       1      -0.59620396     0.13989887     0.79054990
       2       0.25695152     0.96615510     0.02280881
       3       0.76060289    -0.21673170     0.61197273
    ==== End of matrix output ====


 CCSD   oscillator strength matrix for state nr. 13 of symmetry 1
 CCSD  excitation energy:15.21225534


               Column   1     Column   2     Column   3
       1       0.00342279     0.00009876     0.00264963
       2       0.00009876     0.00000285     0.00007644
       3       0.00264963     0.00007644     0.00205108
    ==== End of matrix output ====

 Principal values of diagonalized oscillator strength matrix:

             a.u.               
 1      -0.00000003
 2       0.00000000
 3       0.00547674

 Principal axis of diagonalized oscillator strength matrix:


               Column   1     Column   2     Column   3
       1      -0.59620396     0.13989887     0.79054990
       2       0.25695152     0.96615510     0.02280881
       3       0.76060289    -0.21673170     0.61197273
    ==== End of matrix output ====


 CCSD  Transition strength matrix for state nr. 14 of symmetry 1
 CCSD  excitation energy:15.22611066

 Gauge: length

               Column   1     Column   2     Column   3
       1     1.937487D-04  -1.749706D-05   3.953417D-05
       2    -1.749706D-05   1.580049D-06  -3.570537D-06
       3     3.953417D-05  -3.570537D-06   8.065824D-06
    ==== End of matrix output ====

 Principal values of diagonalized transition strength matrix:

             a.u.               
 1      -0.00000000
 2       0.00000000
 3       0.00020340

 Principal axis of diagonalized transition strength matrix:


               Column   1     Column   2     Column   3
       1      -0.16828427     0.13823861     0.97599718
       2       0.27522055     0.95733217    -0.08814061
       3       0.94653793    -0.25378180     0.19915005
    ==== End of matrix output ====


 CCSD   oscillator strength matrix for state nr. 14 of symmetry 1
 CCSD  excitation energy:15.22611066


               Column   1     Column   2     Column   3
       1       0.00196669    -0.00017761     0.00040130
       2      -0.00017761     0.00001604    -0.00003624
       3       0.00040130    -0.00003624     0.00008187
    ==== End of matrix output ====

 Principal values of diagonalized oscillator strength matrix:

             a.u.               
 1      -0.00000001
 2      -0.00000000
 3       0.00206462

 Principal axis of diagonalized oscillator strength matrix:


               Column   1     Column   2     Column   3
       1      -0.16828427     0.13823861     0.97599718
       2       0.27522055     0.95733217    -0.08814061
       3       0.94653793    -0.25378180     0.19915005
    ==== End of matrix output ====


 CCSD  Transition strength matrix for state nr. 15 of symmetry 1
 CCSD  excitation energy:15.23418432

 Gauge: length

               Column   1     Column   2     Column   3
       1     4.674138D-06  -7.449732D-06   1.202616D-05
       2    -7.449732D-06   1.186534D-05  -1.915458D-05
       3     1.202616D-05  -1.915458D-05   3.092184D-05
    ==== End of matrix output ====

 Principal values of diagonalized transition strength matrix:

             a.u.               
 1      -0.00000000
 2      -0.00000000
 3       0.00004746

 Principal axis of diagonalized transition strength matrix:


               Column   1     Column   2     Column   3
       1       0.94898471    -0.02995381     0.31389614
       2       0.19203610     0.84447300    -0.49998748
       3      -0.25010029     0.53475987     0.80714418
    ==== End of matrix output ====


 CCSD   oscillator strength matrix for state nr. 15 of symmetry 1
 CCSD  excitation energy:15.23418432


               Column   1     Column   2     Column   3
       1     4.747112D-05  -7.566039D-05   1.221391D-04
       2    -7.566039D-05   1.205058D-04  -1.945363D-04
       3     1.221391D-04  -1.945363D-04   3.140460D-04
    ==== End of matrix output ====

 Principal values of diagonalized oscillator strength matrix:

             a.u.               
 1      -0.00000003
 2      -0.00000000
 3       0.00048205

 Principal axis of diagonalized oscillator strength matrix:


               Column   1     Column   2     Column   3
       1       0.94898471    -0.02995381     0.31389614
       2       0.19203610     0.84447300    -0.49998748
       3      -0.25010029     0.53475987     0.80714418
    ==== End of matrix output ====

  Total time for    135 linear response residues:       4.16 seconds.
  

 *******************************************************************************
 *******************************************************************************
 *                                                                             *
 *                                                                             *
 *                   SUMMARY OF COUPLED CLUSTER CALCULATION                    *
 *                                                                             *
 *                                                                             *
 *******************************************************************************
 *******************************************************************************

                                                                                
                                                                                
            Total SCF   energy:                  -361.2032670771                
            Total MP2   energy:                  -362.3108216146                
            Total CCSD  energy:                  -362.3521282150                
                                                                                
                                                                                
            Total SCF   energy:                  -361.2032670771                
            Total RSTAR energy:                  -362.3521282150                
            Total CCSD  energy:                  -362.3521665327                
                                                                                
                                                                                
            Total SCF   energy:                  -361.2032670771                
            Total RSTAR energy:                  -362.3521665327                
            Total CCSD  energy:                  -362.3521680227                
                                                                                
                                                                                
            Total SCF   energy:                  -361.2032670771                
            Total RSTAR energy:                  -362.3521680227                
            Total CCSD  energy:                  -362.3521680900                
                                                                                
                                                                                
            Total SCF   energy:                  -361.2032670771                
            Total RSTAR energy:                  -362.3521680900                
            Total CCSD  energy:                  -362.3521680932                
            CCSD Total  energy:                  -362.7584118277                
            CCSD E(PE-CC)     :                    -0.4027644729                
                                                                                
                                                                                
 +=============================================================================+
 |  sym. | Exci.  |        CCSD       Excitation energies            | ||T1||  |
 |(spin, |        +------------------------------------------------------------+
 | spat) |        |     Hartree    |       eV.      |     cm-1       |    %    |
 +=============================================================================+
 | ^1A   |    1   |    14.9291674  |     406.24331  |   3276573.473  |  88.80  |
 | ^1A   |    2   |    14.9900731  |     407.90064  |   3289940.727  |  89.07  |
 | ^1A   |    3   |    15.0112378  |     408.47656  |   3294585.845  |  89.09  |
 | ^1A   |    4   |    15.0251613  |     408.85544  |   3297641.710  |  89.03  |
 | ^1A   |    5   |    15.0755795  |     410.22739  |   3308707.219  |  88.21  |
 | ^1A   |    6   |    15.1031963  |     410.97888  |   3314768.403  |  88.15  |
 | ^1A   |    7   |    15.1168737  |     411.35106  |   3317770.259  |  88.18  |
 | ^1A   |    8   |    15.1222861  |     411.49834  |   3318958.140  |  88.32  |
 | ^1A   |    9   |    15.1362376  |     411.87798  |   3322020.146  |  88.22  |
 | ^1A   |   10   |    15.1491241  |     412.22864  |   3324848.400  |  88.25  |
 | ^1A   |   11   |    15.1793736  |     413.05177  |   3331487.397  |  88.20  |
 | ^1A   |   12   |    15.1899912  |     413.34069  |   3333817.693  |  88.01  |
 | ^1A   |   13   |    15.2122553  |     413.94652  |   3338704.102  |  88.31  |
 | ^1A   |   14   |    15.2261107  |     414.32355  |   3341744.993  |  87.97  |
 | ^1A   |   15   |    15.2341843  |     414.54324  |   3343516.958  |  87.89  |
 +=============================================================================+
                                                                                
                                                                                
     Total energies in Hartree:                                                 
             1 ^1A       -347.4264799920                                        
             2 ^1A       -347.3655743015                                        
             3 ^1A       -347.3444095880                                        
             4 ^1A       -347.3304860397                                        
             5 ^1A       -347.2800678716                                        
             6 ^1A       -347.2524510878                                        
             7 ^1A       -347.2387736244                                        
             8 ^1A       -347.2333612397                                        
             9 ^1A       -347.2194097153                                        
            10 ^1A       -347.2065232395                                        
            11 ^1A       -347.1762737416                                        
            12 ^1A       -347.1656561343                                        
            13 ^1A       -347.1433920159                                        
            14 ^1A       -347.1295366977                                        
            15 ^1A       -347.1214630314                                        
                                                                                
                                                                                
 +=============================================================================+
 |  sym. | Exci.  |        CCSD       Length   Gauge Oscillator Strength       |
 |(spin, |        +------------------------------------------------------------+
 | spat) |        | Dipole Strength(a.u.) | Oscillator strength  | Direction   |
 +=============================================================================+
 | ^1A   |    1   |        0.0003436      |      0.0034195       |  (Y,Z)      |
 | ^1A   |    2   |        0.0035622      |      0.0355982       |  (Y,Z)      |
 | ^1A   |    3   |        0.0035415      |      0.0354411       |  (Y,Z)      |
 | ^1A   |    4   |        0.0033908      |      0.0339649       |  (Y,Z)      |
 | ^1A   |    5   |        0.0004896      |      0.0049208       |  (Y,Z)      |
 | ^1A   |    6   |        0.0002010      |      0.0020239       |  (Y,Z)      |
 | ^1A   |    7   |        0.0000987      |      0.0009946       |  (Y,Z)      |
 | ^1A   |    8   |        0.0005796      |      0.0058428       |  (Y,Z)      |
 | ^1A   |    9   |        0.0008415      |      0.0084916       |  (Y,Z)      |
 | ^1A   |   10   |        0.0005659      |      0.0057155       |  (Y,Z)      |
 | ^1A   |   11   |        0.0003322      |      0.0033617       |  (Y,Z)      |
 | ^1A   |   12   |        0.0001087      |      0.0011007       |  (Y,Z)      |
 | ^1A   |   13   |        0.0005400      |      0.0054767       |  (Y,Z)      |
 | ^1A   |   14   |        0.0002034      |      0.0020646       |  (Y,Z)      |
 | ^1A   |   15   |        0.0000475      |      0.0004820       |  (Y,Z)      |
 +=============================================================================+

  1 a.u. =        27.21138 eV.  
  1 a.u. =    219474.62934 cm-1.
  

 *******************************************************************************
 *******************************************************************************
 *                                                                             *
 *                                                                             *
 *                      END OF COUPLED CLUSTER CALCULATION                     *
 *                                                                             *
 *                                                                             *
 *******************************************************************************
 *******************************************************************************


 CPU and wall time for CC :   76162.861   84258.807

 
     Date and time (Linux)  : Sat Dec  8 14:02:53 2018
     Host name              : s73p28.deic.sdu.dk                      


                      .-------------------------------------.
                      | End of Coupled Cluster Section (CC) |
                      `-------------------------------------'

  Total CPU  time used in DALTON:  21 hours 11 minutes 14 seconds
  Total wall time used in DALTON:  23 hours 26 minutes 12 seconds

 
     Date and time (Linux)  : Sat Dec  8 14:02:53 2018
     Host name              : s73p28.deic.sdu.dk                      
  

 +---------------------------------------------------------+ 
 | List of selected calculated molecular properties (a.u.) | 
 +---------------------------------------------------------+ 

  Properties are read from unit number            4

 CCSD       properties :
 #  1 1 PE-CCSD  Ground state Energy =    -362.7584118277
 #  2 1 E(PE-CC) Ground state Energy =      -0.4027644729
 #  3 1 Sy: 1 Sp: 1 Exc:  1 E_tot:   -347.4264799920 w:     14.9291673628 E_grs:   -362.3556473548
 #  4 1 Exctot   Excited state Energy =    -347.4264799920
 #  5 1 Sy: 1 Sp: 1 Exc:  2 E_tot:   -347.3655743015 w:     14.9900730533 E_grs:   -362.3556473548
 #  6 1 Exctot   Excited state Energy =    -347.3655743015
 #  7 1 Sy: 1 Sp: 1 Exc:  3 E_tot:   -347.3444095880 w:     15.0112377668 E_grs:   -362.3556473548
 #  8 1 Exctot   Excited state Energy =    -347.3444095880
 #  9 1 Sy: 1 Sp: 1 Exc:  4 E_tot:   -347.3304860397 w:     15.0251613152 E_grs:   -362.3556473548
 # 10 1 Exctot   Excited state Energy =    -347.3304860397
 # 11 1 Sy: 1 Sp: 1 Exc:  5 E_tot:   -347.2800678716 w:     15.0755794832 E_grs:   -362.3556473548
 # 12 1 Exctot   Excited state Energy =    -347.2800678716
 # 13 1 Sy: 1 Sp: 1 Exc:  6 E_tot:   -347.2524510878 w:     15.1031962670 E_grs:   -362.3556473548
 # 14 1 Exctot   Excited state Energy =    -347.2524510878
 # 15 1 Sy: 1 Sp: 1 Exc:  7 E_tot:   -347.2387736244 w:     15.1168737304 E_grs:   -362.3556473548
 # 16 1 Exctot   Excited state Energy =    -347.2387736244
 # 17 1 Sy: 1 Sp: 1 Exc:  8 E_tot:   -347.2333612397 w:     15.1222861151 E_grs:   -362.3556473548
 # 18 1 Exctot   Excited state Energy =    -347.2333612397
 # 19 1 Sy: 1 Sp: 1 Exc:  9 E_tot:   -347.2194097153 w:     15.1362376395 E_grs:   -362.3556473548
 # 20 1 Exctot   Excited state Energy =    -347.2194097153
 # 21 1 Sy: 1 Sp: 1 Exc: 10 E_tot:   -347.2065232395 w:     15.1491241154 E_grs:   -362.3556473548
 # 22 1 Exctot   Excited state Energy =    -347.2065232395
 # 23 1 Sy: 1 Sp: 1 Exc: 11 E_tot:   -347.1762737416 w:     15.1793736132 E_grs:   -362.3556473548
 # 24 1 Exctot   Excited state Energy =    -347.1762737416
 # 25 1 Sy: 1 Sp: 1 Exc: 12 E_tot:   -347.1656561343 w:     15.1899912206 E_grs:   -362.3556473548
 # 26 1 Exctot   Excited state Energy =    -347.1656561343
 # 27 1 Sy: 1 Sp: 1 Exc: 13 E_tot:   -347.1433920159 w:     15.2122553389 E_grs:   -362.3556473548
 # 28 1 Exctot   Excited state Energy =    -347.1433920159
 # 29 1 Sy: 1 Sp: 1 Exc: 14 E_tot:   -347.1295366977 w:     15.2261106571 E_grs:   -362.3556473548
 # 30 1 Exctot   Excited state Energy =    -347.1295366977
 # 31 1 Sy: 1 Sp: 1 Exc: 15 E_tot:   -347.1214630314 w:     15.2341843235 E_grs:   -362.3556473548
 # 32 1 Exctot   Excited state Energy =    -347.1214630314
 # 33 1 |<O|XDIPLEN |i(14.929167)>| =     0.00633161
 # 35 1 |<O|XDIPLEN |i(14.990073)>| =     0.00924423
 # 37 1 |<O|XDIPLEN |i(15.011238)>| =     0.05859735
 # 39 1 |<O|XDIPLEN |i(15.025161)>| =     0.01083626
 # 41 1 |<O|XDIPLEN |i(15.075579)>| =     0.01500385
 # 43 1 |<O|XDIPLEN |i(15.103196)>| =     0.00719085
 # 45 1 |<O|XDIPLEN |i(15.116874)>| =     0.00262084
 # 47 1 |<O|XDIPLEN |i(15.122286)>| =     0.01023804
 # 49 1 |<O|XDIPLEN |i(15.136238)>| =     0.00253235
 # 51 1 |<O|XDIPLEN |i(15.149124)>| =     0.02264109
 # 53 1 |<O|XDIPLEN |i(15.179374)>| =     0.00254744
 # 55 1 |<O|XDIPLEN |i(15.189991)>| =     0.00186406
 # 57 1 |<O|XDIPLEN |i(15.212255)>| =     0.01837125
 # 59 1 |<O|XDIPLEN |i(15.226111)>| =     0.01391936
 # 61 1 |<O|XDIPLEN |i(15.234184)>| =     0.00216198
 # 63 1 |<O|YDIPLEN |i(14.929167)>| =     0.01354713
 # 65 1 |<O|YDIPLEN |i(14.990073)>| =     0.05886680
 # 67 1 |<O|YDIPLEN |i(15.011238)>| =     0.00940297
 # 69 1 |<O|YDIPLEN |i(15.025161)>| =     0.00569242
 # 71 1 |<O|YDIPLEN |i(15.075579)>| =     0.00252432
 # 73 1 |<O|YDIPLEN |i(15.103196)>| =     0.01145352
 # 75 1 |<O|YDIPLEN |i(15.116874)>| =     0.00414336
 # 77 1 |<O|YDIPLEN |i(15.122286)>| =     0.02000208
 # 79 1 |<O|YDIPLEN |i(15.136238)>| =     0.01180933
 # 81 1 |<O|YDIPLEN |i(15.149124)>| =     0.00557032
 # 83 1 |<O|YDIPLEN |i(15.179374)>| =     0.01244555
 # 85 1 |<O|YDIPLEN |i(15.189991)>| =     0.00747975
 # 87 1 |<O|YDIPLEN |i(15.212255)>| =     0.00052988
 # 89 1 |<O|YDIPLEN |i(15.226111)>| =     0.00125700
 # 91 1 |<O|YDIPLEN |i(15.234184)>| =     0.00344461
 # 93 1 |<O|ZDIPLEN |i(14.929167)>| =     0.01095238
 # 95 1 |<O|ZDIPLEN |i(14.990073)>| =     0.00338024
 # 97 1 |<O|ZDIPLEN |i(15.011238)>| =     0.00440342
 # 99 1 |<O|ZDIPLEN |i(15.025161)>| =     0.05692955
 #101 1 |<O|ZDIPLEN |i(15.075579)>| =     0.01606626
 #103 1 |<O|ZDIPLEN |i(15.103196)>| =     0.00425573
 #105 1 |<O|ZDIPLEN |i(15.116874)>| =     0.00864009
 #107 1 |<O|ZDIPLEN |i(15.122286)>| =     0.00864001
 #109 1 |<O|ZDIPLEN |i(15.136238)>| =     0.02637505
 #111 1 |<O|ZDIPLEN |i(15.149124)>| =     0.00471991
 #113 1 |<O|ZDIPLEN |i(15.179374)>| =     0.01306957
 #115 1 |<O|ZDIPLEN |i(15.189991)>| =     0.00701919
 #117 1 |<O|ZDIPLEN |i(15.212255)>| =     0.01422134
 #119 1 |<O|ZDIPLEN |i(15.226111)>| =     0.00284004
 #121 1 |<O|ZDIPLEN |i(15.234184)>| =     0.00556074

 THE_END   
