

     ************************************************************************
     *************** Dalton - An Electronic Structure Program ***************
     ************************************************************************

    This is output from DALTON release Dalton2017.alpha (2016)
         ( Web site: http://daltonprogram.org )

   ----------------------------------------------------------------------------

    NOTE:
     
    Dalton is an experimental code for the evaluation of molecular
    properties using (MC)SCF, DFT, CI, and CC wave functions.
    The authors accept no responsibility for the performance of
    the code or for the correctness of the results.
     
    The code (in whole or part) is provided under a licence and
    is not to be reproduced for further distribution without
    the written permission of the authors or their representatives.
     
    See the home page "http://daltonprogram.org" for further information.
     
    If results obtained with this code are published,
    the appropriate citations would be both of:
     
       K. Aidas, C. Angeli, K. L. Bak, V. Bakken, R. Bast,
       L. Boman, O. Christiansen, R. Cimiraglia, S. Coriani,
       P. Dahle, E. K. Dalskov, U. Ekstroem,
       T. Enevoldsen, J. J. Eriksen, P. Ettenhuber, B. Fernandez,
       L. Ferrighi, H. Fliegl, L. Frediani, K. Hald, A. Halkier,
       C. Haettig, H. Heiberg, T. Helgaker, A. C. Hennum,
       H. Hettema, E. Hjertenaes, S. Hoest, I.-M. Hoeyvik,
       M. F. Iozzi, B. Jansik, H. J. Aa. Jensen, D. Jonsson,
       P. Joergensen, J. Kauczor, S. Kirpekar,
       T. Kjaergaard, W. Klopper, S. Knecht, R. Kobayashi, H. Koch,
       J. Kongsted, A. Krapp, K. Kristensen, A. Ligabue,
       O. B. Lutnaes, J. I. Melo, K. V. Mikkelsen, R. H. Myhre,
       C. Neiss, C. B. Nielsen, P. Norman, J. Olsen,
       J. M. H. Olsen, A. Osted, M. J. Packer, F. Pawlowski,
       T. B. Pedersen, P. F. Provasi, S. Reine, Z. Rinkevicius,
       T. A. Ruden, K. Ruud, V. Rybkin, P. Salek, C. C. M. Samson,
       A. Sanchez de Meras, T. Saue, S. P. A. Sauer,
       B. Schimmelpfennig, K. Sneskov, A. H. Steindal,
       K. O. Sylvester-Hvid, P. R. Taylor, A. M. Teale,
       E. I. Tellgren, D. P. Tew, A. J. Thorvaldsen, L. Thoegersen,
       O. Vahtras, M. A. Watson, D. J. D. Wilson, M. Ziolkowski
       and H. Agren,
       "The Dalton quantum chemistry program system",
       WIREs Comput. Mol. Sci. 2014, 4:269–284 (doi: 10.1002/wcms.1172)
     
    and
     
       Dalton, a Molecular Electronic Structure Program,
       Release Dalton2017.alpha (2016), see http://daltonprogram.org
   ----------------------------------------------------------------------------

    Authors in alphabetical order (major contribution(s) in parenthesis):

  Kestutis Aidas,           Vilnius University,           Lithuania   (QM/MM)
  Celestino Angeli,         University of Ferrara,        Italy       (NEVPT2)
  Keld L. Bak,              UNI-C,                        Denmark     (AOSOPPA, non-adiabatic coupling, magnetic properties)
  Vebjoern Bakken,          University of Oslo,           Norway      (DALTON; geometry optimizer, symmetry detection)
  Radovan Bast,             UiT The Arctic U. of Norway,  Norway      (DALTON installation and execution frameworks)
  Pablo Baudin,             University of Valencia,       Spain       (Cholesky excitation energies)
  Linus Boman,              NTNU,                         Norway      (Cholesky decomposition and subsystems)
  Ove Christiansen,         Aarhus University,            Denmark     (CC module)
  Renzo Cimiraglia,         University of Ferrara,        Italy       (NEVPT2)
  Sonia Coriani,            University of Trieste,        Italy       (CC module, MCD in RESPONS)
  Janusz Cukras,            University of Trieste,        Italy       (MChD in RESPONS)
  Paal Dahle,               University of Oslo,           Norway      (Parallelization)
  Erik K. Dalskov,          UNI-C,                        Denmark     (SOPPA)
  Thomas Enevoldsen,        Univ. of Southern Denmark,    Denmark     (SOPPA)
  Janus J. Eriksen,         Aarhus University,            Denmark     (Polarizable embedding model, TDA)
  Rasmus Faber,             University of Copenhagen,     Denmark     (Vib.avg. NMR with SOPPA, parallel AO-SOPPA)
  Berta Fernandez,          U. of Santiago de Compostela, Spain       (doublet spin, ESR in RESPONS)
  Lara Ferrighi,            Aarhus University,            Denmark     (PCM Cubic response)
  Heike Fliegl,             University of Oslo,           Norway      (CCSD(R12))
  Luca Frediani,            UiT The Arctic U. of Norway,  Norway      (PCM)
  Bin Gao,                  UiT The Arctic U. of Norway,  Norway      (Gen1Int library)
  Christof Haettig,         Ruhr-University Bochum,       Germany     (CC module)
  Kasper Hald,              Aarhus University,            Denmark     (CC module)
  Asger Halkier,            Aarhus University,            Denmark     (CC module)
  Frederik Beyer Hansen,    University of Copenhagen,     Denmark     (Parallel AO-SOPPA)
  Erik D. Hedegaard,        Univ. of Southern Denmark,    Denmark     (Polarizable embedding model, QM/MM)
  Hanne Heiberg,            University of Oslo,           Norway      (geometry analysis, selected one-electron integrals)
  Trygve Helgaker,          University of Oslo,           Norway      (DALTON; ABACUS, ERI, DFT modules, London, and much more)
  Alf Christian Hennum,     University of Oslo,           Norway      (Parity violation)
  Hinne Hettema,            University of Auckland,       New Zealand (quadratic response in RESPONS; SIRIUS supersymmetry)
  Eirik Hjertenaes,         NTNU,                         Norway      (Cholesky decomposition)
  Pi A. B. Haase,           University of Copenhagen,     Denmark     (Triplet AO-SOPPA)
  Maria Francesca Iozzi,    University of Oslo,           Norway      (RPA)
  Brano Jansik              Technical Univ. of Ostrava    Czech Rep.  (DFT cubic response)
  Hans Joergen Aa. Jensen,  Univ. of Southern Denmark,    Denmark     (DALTON; SIRIUS, RESPONS, ABACUS modules, London, and much more)
  Dan Jonsson,              UiT The Arctic U. of Norway,  Norway      (cubic response in RESPONS module)
  Poul Joergensen,          Aarhus University,            Denmark     (RESPONS, ABACUS, and CC modules)
  Maciej Kaminski,          University of Warsaw,         Poland      (CPPh in RESPONS)
  Joanna Kauczor,           Linkoeping University,        Sweden      (Complex polarization propagator (CPP) module)
  Sheela Kirpekar,          Univ. of Southern Denmark,    Denmark     (Mass-velocity & Darwin integrals)
  Wim Klopper,              KIT Karlsruhe,                Germany     (R12 code in CC, SIRIUS, and ABACUS modules)
  Stefan Knecht,            ETH Zurich,                   Switzerland (Parallel CI and MCSCF)
  Rika Kobayashi,           Australian National Univ.,    Australia   (DIIS in CC, London in MCSCF)
  Henrik Koch,              NTNU,                         Norway      (CC module, Cholesky decomposition)
  Jacob Kongsted,           Univ. of Southern Denmark,    Denmark     (Polarizable embedding model, QM/MM)
  Andrea Ligabue,           University of Modena,         Italy       (CTOCD, AOSOPPA)
  Nanna H. List             Univ. of Southern Denmark,    Denmark     (Polarizable embedding model)
  Ola B. Lutnaes,           University of Oslo,           Norway      (DFT Hessian)
  Juan I. Melo,             University of Buenos Aires,   Argentina   (LRESC, Relativistic Effects on NMR Shieldings)
  Kurt V. Mikkelsen,        University of Copenhagen,     Denmark     (MC-SCRF and QM/MM)
  Rolf H. Myhre,            NTNU,                         Norway      (Cholesky, subsystems and ECC2)
  Christian Neiss,          Univ. Erlangen-Nuernberg,     Germany     (CCSD(R12))
  Christian B. Nielsen,     University of Copenhagen,     Denmark     (QM/MM)
  Patrick Norman,           Linkoeping University,        Sweden      (Cubic response and complex frequency response in RESPONS)
  Jeppe Olsen,              Aarhus University,            Denmark     (SIRIUS CI/density modules)
  Jogvan Magnus H. Olsen,   Univ. of Southern Denmark,    Denmark     (Polarizable embedding model, QM/MM)
  Anders Osted,             Copenhagen University,        Denmark     (QM/MM)
  Martin J. Packer,         University of Sheffield,      UK          (SOPPA)
  Filip Pawlowski,          Kazimierz Wielki University,  Poland      (CC3)
  Morten N. Pedersen,       Univ. of Southern Denmark,    Denmark     (Polarizable embedding model)
  Thomas B. Pedersen,       University of Oslo,           Norway      (Cholesky decomposition)
  Patricio F. Provasi,      University of Northeastern,   Argentina   (Analysis of coupling constants in localized orbitals)
  Zilvinas Rinkevicius,     KTH Stockholm,                Sweden      (open-shell DFT, ESR)
  Elias Rudberg,            KTH Stockholm,                Sweden      (DFT grid and basis info)
  Torgeir A. Ruden,         University of Oslo,           Norway      (Numerical derivatives in ABACUS)
  Kenneth Ruud,             UiT The Arctic U. of Norway,  Norway      (DALTON; ABACUS magnetic properties and much more)
  Pawel Salek,              KTH Stockholm,                Sweden      (DALTON; DFT code)
  Claire C. M. Samson       University of Karlsruhe       Germany     (Boys localization, r12 integrals in ERI)
  Alfredo Sanchez de Meras, University of Valencia,       Spain       (CC module, Cholesky decomposition)
  Trond Saue,               Paul Sabatier University,     France      (direct Fock matrix construction)
  Stephan P. A. Sauer,      University of Copenhagen,     Denmark     (SOPPA(CCSD), SOPPA prop., AOSOPPA, vibrational g-factors)
  Bernd Schimmelpfennig,    Forschungszentrum Karlsruhe,  Germany     (AMFI module)
  Kristian Sneskov,         Aarhus University,            Denmark     (Polarizable embedding model, QM/MM)
  Arnfinn H. Steindal,      UiT The Arctic U. of Norway,  Norway      (parallel QM/MM, Polarizable embedding model)
  Casper Steinmann,         Univ. of Southern Denmark,    Denmark     (QFIT, Polarizable embedding model)
  K. O. Sylvester-Hvid,     University of Copenhagen,     Denmark     (MC-SCRF)
  Peter R. Taylor,          VLSCI/Univ. of Melbourne,     Australia   (Symmetry handling ABACUS, integral transformation)
  Andrew M. Teale,          University of Nottingham,     England     (DFT-AC, DFT-D)
  David P. Tew,             University of Bristol,        England     (CCSD(R12))
  Olav Vahtras,             KTH Stockholm,                Sweden      (triplet response, spin-orbit, ESR, TDDFT, open-shell DFT)
  David J. Wilson,          La Trobe University,          Australia   (DFT Hessian and DFT magnetizabilities)
  Hans Agren,               KTH Stockholm,                Sweden      (SIRIUS module, RESPONS, MC-SCRF solvation model)
 --------------------------------------------------------------------------------

     Date and time (Linux)  : Fri Dec  7 14:36:41 2018
     Host name              : s73p28.deic.sdu.dk                      

 * Work memory size             :  2048000000 = 15.259 gigabytes.

 * Directories for basis set searches:
   1) /work/sdujk/reinholdt/ECP-Sonia
   2) /gpfs/gss1/work/sdujk/reinholdt/Programs/dalton-private/pe-cvs/basis


Compilation information
-----------------------

 Who compiled             | reinholdt
 Host                     | s73p27.deic.sdu.dk
 System                   | Linux-3.10.0-327.36.3.el7.x86_64
 CMake generator          | Unix Makefiles
 Processor                | x86_64
 64-bit integers          | OFF
 MPI                      | ON
 Fortran compiler         | /opt/sys/apps/intel/2018.05/impi_latest/intel64/bi
                          | n/mpif90
 C compiler               | /opt/sys/apps/intel/2018.05/impi_latest/intel64/bi
                          | n/mpicc
 C++ compiler             | /opt/sys/apps/intel/2018.05/impi_latest/intel64/bi
                          | n/mpicxx
 C++ compiler version     | unknown
 BLAS                     | /opt/sys/apps/intel/2018.05/compilers_and_librarie
                          | s_2018.3.222/linux/mkl/lib/intel64/libmkl_intel_lp
                          | 64.so;/opt/sys/apps/intel/2018.05/compilers_and_li
                          | braries_2018.3.222/linux/mkl/lib/intel64/libmkl_se
                          | quential.so;/opt/sys/apps/intel/2018.05/compilers_
                          | and_libraries_2018.3.222/linux/mkl/lib/intel64/lib
                          | mkl_core.so;/usr/lib64/libpthread.so;/usr/lib64/li
                          | bm.so
 LAPACK                   | /opt/sys/apps/intel/2018.05/compilers_and_librarie
                          | s_2018.3.222/linux/mkl/lib/intel64/libmkl_lapack95
                          | _lp64.a;/opt/sys/apps/intel/2018.05/compilers_and_
                          | libraries_2018.3.222/linux/mkl/lib/intel64/libmkl_
                          | intel_lp64.so
 Static linking           | OFF
 Last Git revision        | 252a54078a0f9a1f0a59b3262fa4a57829155fe9
 Git branch               | pe/cc-cvs
 Configuration time       | 2018-12-06 10:55:01.793667

 * Sequential calculation.


   Content of the .dal input file
 ----------------------------------

**DALTON
.RUN WAVE FUNCTIONS
.PEQM
**INTEGRALS
.DIPLEN
**WAVE FUNCTIONS
.CC
*PRINT
!To check the origin of excit
.PRINTL
   0 11
*SCF INP
.THRESH
1.0D-7
*CC INP
.CCSD
.THRLEQ
 1.0D-9
.THRENR
 1.0D-10
.FROIMP
4
0
.PRINT
 1
.MAX IT
 1200
.MAXRED
 1200
.MXLRV
1199
*PECC
*CCEXCI
.NCCEXC
 15
.CVSEPARA
1
1
*CCLRSD
.DIPOLE
**END OF DALTON INPUT


   Content of the .mol file
 ----------------------------

ATOMBASIS


Atomtypes=4 Charge=1 Nosymm Angstrom
   7.00000    1    Basis=6-311G**
N          0.000000        0.000000        0.000000
   1.00000    4    Basis=6-311G**
H         -0.986798        0.158192        0.209252
H          0.099905        0.008150       -1.036203
H          0.306136       -0.830246        0.456604
H          0.602571        0.778264        0.308939
   8.00000    4    Basis=6-311G**
O         -2.851387        0.280971       -0.395421
O          1.557405        2.243639        0.898477
O          0.027701        0.430319       -2.700204
O          2.086789       -1.795203        1.452611
   1.00000    8    Basis=6-311G**
H         -3.332311       -0.400096        0.142368
H         -3.514301        1.053183       -0.434516
H          1.432841        3.232280        1.052153
H          2.267997        2.159980        0.184844
H          0.867235        0.355314       -3.217866
H         -0.496919       -0.303537       -3.061090
H          1.766803       -2.435519        2.169424
H          2.362806       -0.979235        1.975913


       *******************************************************************
       *********** Output from DALTON general input processing ***********
       *******************************************************************

 --------------------------------------------------------------------------------
   Overall default print level:    0
   Print level for DALTON.STAT:    1

    HERMIT 1- and 2-electron integral sections will be executed
    "Old" integral transformation used (limited to max 255 basis functions)
    Wave function sections will be executed (SIRIUS module)
    Environment is modeled using polarizable embedding scheme (PE library)
 --------------------------------------------------------------------------------


   ****************************************************************************
   *************** Output of molecule and basis set information ***************
   ****************************************************************************


    The two title cards from your ".mol" input:
    ------------------------------------------------------------------------
 1:                                                                         
 2:                                                                         
    ------------------------------------------------------------------------

  Coordinates are entered in Angstrom and converted to atomic units.
          - Conversion factor : 1 bohr = 0.52917721 A

  Atomic type no.    1
  --------------------
  Nuclear charge:   7.00000
  Number of symmetry independent centers:    1
  Number of basis sets to read;    2
  The basis set is "6-311G**" from the basis set library.
  Basis set file used for this atomic type with Z =   7 :
     "/gpfs/gss1/work/sdujk/reinholdt/Programs/dalton-private/pe-cvs/basis/6-311G**"

  Info about the basis set file: your basis has no documentation.
  Basis set: 6-311G**                                                                        

  Atomic type no.    2
  --------------------
  Nuclear charge:   1.00000
  Number of symmetry independent centers:    4
  Number of basis sets to read;    2
  The basis set is "6-311G**" from the basis set library.
  Basis set file used for this atomic type with Z =   1 :
     "/gpfs/gss1/work/sdujk/reinholdt/Programs/dalton-private/pe-cvs/basis/6-311G**"

  Info about the basis set file: your basis has no documentation.
  Basis set: 6-311G**                                                                        

  Atomic type no.    3
  --------------------
  Nuclear charge:   8.00000
  Number of symmetry independent centers:    4
  Number of basis sets to read;    2
  The basis set is "6-311G**" from the basis set library.
  Basis set file used for this atomic type with Z =   8 :
     "/gpfs/gss1/work/sdujk/reinholdt/Programs/dalton-private/pe-cvs/basis/6-311G**"

  Info about the basis set file: your basis has no documentation.
  Basis set: 6-311G**                                                                        

  Atomic type no.    4
  --------------------
  Nuclear charge:   1.00000
  Number of symmetry independent centers:    8
  Number of basis sets to read;    2
  The basis set is "6-311G**" from the basis set library.
  Basis set file used for this atomic type with Z =   1 :
     "/gpfs/gss1/work/sdujk/reinholdt/Programs/dalton-private/pe-cvs/basis/6-311G**"

  Info about the basis set file: your basis has no documentation.
  Basis set: 6-311G**                                                                        


                         SYMGRP: Point group information
                         -------------------------------

@    Point group: C1 


                                 Isotopic Masses
                                 ---------------

                           N          14.003074
                           H           1.007825
                           H           1.007825
                           H           1.007825
                           H           1.007825
                           O          15.994915
                           O          15.994915
                           O          15.994915
                           O          15.994915
                           H           1.007825
                           H           1.007825
                           H           1.007825
                           H           1.007825
                           H           1.007825
                           H           1.007825
                           H           1.007825
                           H           1.007825

                       Total mass:    90.076634 amu
                       Natural abundance:  98.500 %

 Center-of-mass coordinates (a.u.):    0.304421    0.448288   -0.276269


  Atoms and basis sets
  --------------------

  Number of atom types :    4
  Total number of atoms:   17

  label    atoms   charge   prim   cont     basis
  ----------------------------------------------------------------------
  N           1    7.0000    31    18      [11s5p1d|4s3p1d]                                   
  H           4    1.0000     8     6      [5s1p|3s1p]                                        
  O           4    8.0000    31    18      [11s5p1d|4s3p1d]                                   
  H           8    1.0000     8     6      [5s1p|3s1p]                                        
  ----------------------------------------------------------------------
  total:     17   51.0000   251   162
  ----------------------------------------------------------------------
  Spherical harmonic basis used.

  Threshold for neglecting AO integrals:  1.00D-12


  Cartesian Coordinates (a.u.)
  ----------------------------

  Total number of coordinates:   51
  N       :     1  x   0.0000000000    2  y   0.0000000000    3  z   0.0000000000
  H       :     4  x  -1.8647779607    5  y   0.2989395552    6  z   0.3954289711
  H       :     7  x   0.1887930885    8  y   0.0154012679    9  z  -1.9581398799
  H       :    10  x   0.5785131970   11  y  -1.5689375564   12  z   0.8628565076
  H       :    13  x   1.1386941609   14  y   1.4707058129   15  z   0.5838100993
  O       :    16  x  -5.3883405064   17  y   0.5309582391   18  z  -0.7472373941
  O       :    19  x   2.9430689157   20  y   4.2398632334   21  z   1.6978754596
  O       :    22  x   0.0523473034   23  y   0.8131850564   24  z  -5.1026460416
  O       :    25  x   3.9434596906   26  y  -3.3924420088   27  z   2.7450369562
  H       :    28  x  -6.2971551533   29  y  -0.7560718637   30  z   0.2690365290
  H       :    31  x  -6.6410664108   32  y   1.9902274295   33  z  -0.8211162369
  H       :    34  x   2.7076770707   35  y   6.1081239593   36  z   1.9882810116
  H       :    37  x   4.2858931823   38  y   4.0817706355   39  z   0.3493045358
  H       :    40  x   1.6388366360   41  y   0.6714461484   42  z  -6.0808854469
  H       :    43  x  -0.9390408163   44  y  -0.5736017988   45  z  -5.7846217440
  H       :    46  x   3.3387737868   47  y  -4.6024638822   48  z   4.0996172090
  H       :    49  x   4.4650562265   50  y  -1.8504859620   51  z   3.7339344168

  Max    interatomic separation is    6.8441 Angstrom (   12.9335 Bohr)
  between atoms   16 and   11, "H     " and "H     ".

  Min HX interatomic separation is    0.9716 Angstrom (    1.8361 Bohr)

  Min YX interatomic separation is    2.7344 Angstrom (    5.1673 Bohr)


  Bond distances (Angstrom):
  --------------------------

                  atom 1     atom 2       distance
                  ------     ------       --------
  bond distance:  H          N            1.021069
  bond distance:  H          N            1.041040
  bond distance:  H          N            0.995748
  bond distance:  H          N            1.031615
  bond distance:  H          O            0.992148
  bond distance:  H          O            1.018477
  bond distance:  H          O            1.008238
  bond distance:  H          O            1.010550
  bond distance:  H          O            0.989150
  bond distance:  H          O            0.971602
  bond distance:  H          O            1.013023
  bond distance:  H          O            1.007886


  Bond angles (degrees):
  ----------------------

                  atom 1     atom 2     atom 3         angle
                  ------     ------     ------         -----
  bond angle:     H          N          H            107.188
  bond angle:     H          N          H            109.410
  bond angle:     H          N          H            112.721
  bond angle:     H          N          H            115.686
  bond angle:     H          N          H            103.658
  bond angle:     H          N          H            108.187
  bond angle:     H          O          H            103.048
  bond angle:     H          O          H            106.003
  bond angle:     H          O          H            101.924
  bond angle:     H          O          H            103.346




 Principal moments of inertia (u*A**2) and principal axes
 --------------------------------------------------------

   IA     278.928570          0.813318   -0.168257    0.556959
   IB     471.571523          0.378648    0.879879   -0.287122
   IC     508.953087         -0.441746    0.444413    0.779332


 Rotational constants
 --------------------

               A                   B                   C

           1811.8582           1071.6911            992.9776 MHz
            0.060437            0.035748            0.033122 cm-1


@  Nuclear repulsion energy :  197.867445360576 Hartree

  Reading potential input file for polarizable embedding calculation
 
    .------------------------------------------------.
    | Information from polarizable embedding library |
    `------------------------------------------------´

      Number of classical sites:    177

      Multipole moments upto 0th order.

      Dipole-dipole polarizabilities.

      Iterative solver for induced moments will be used
      with convergence threshold: 1.0E-08
      Total charge of classical region:    0.0000
 


                     .---------------------------------------.
                     | Starting in Integral Section (HERMIT) |
                     `---------------------------------------'



 ***************************************************************************************
 ****************** Output from **INTEGRALS input processing (HERMIT) ******************
 ***************************************************************************************



    *************************************************************************
    ****************** Output from HERMIT input processing ******************
    *************************************************************************


 Default print level:        1

 * Nuclear model: Point charge

 Calculation of one- and two-electron Hamiltonian integrals.

 The following one-electron property integrals are calculated as requested:
          - overlap integrals
          - dipole length integrals

 Center of mass  (bohr):      0.304421072511      0.448288259817     -0.276268787024
 Operator center (bohr):      0.000000000000      0.000000000000      0.000000000000
 Gauge origin    (bohr):      0.000000000000      0.000000000000      0.000000000000
 Dipole origin   (bohr):      0.000000000000      0.000000000000      0.000000000000


     ************************************************************************
     ************************** Output from HERINT **************************
     ************************************************************************



                      Nuclear contribution to dipole moments
                      --------------------------------------

                 au               Debye          C m (/(10**-30)

      x     15.00448023        38.13758224       127.21328111
      y     22.81756991        57.99647406       193.45541394
      z    -13.61826219       -34.61416763      -115.46043507


  Time used in ONEDRV     is       0.10 seconds

 Threshold for neglecting two-electron integrals:  1.00D-12
 HERMIT - Number of two-electron integrals written:    35424714 ( 40.6% )
 HERMIT - Megabytes written:                            405.634

  Time used in TWOINT     is       6.34 seconds
  Total CPU  time used in HERMIT:   6.56 seconds
  Total wall time used in HERMIT:   7.04 seconds


                        .----------------------------------.
                        | End of Integral Section (HERMIT) |
                        `----------------------------------'



                   .--------------------------------------------.
                   | Starting in Wave Function Section (SIRIUS) |
                   `--------------------------------------------'

 INPUT: SIMPLE =  F
NCCEXCI for singlet:   15
 CCSD_INPUT: core-val requested
 Requested number of core orbs per sym
           1
 Indices of requested core orbs
           1

 *** Output from Huckel module :

     Using EWMO model:          T
     Using EHT  model:          F
     Number of Huckel orbitals each symmetry:   37

 EWMO - Energy Weighted Maximum Overlap - is a Huckel type method,
        which normally is better than Extended Huckel Theory.
 Reference: Linderberg and Ohrn, Propagators in Quantum Chemistry (Wiley, 1973)

 Huckel EWMO eigenvalues for symmetry :  1
          -20.684757     -20.684307     -20.684301     -20.684188     -15.676261
           -1.810613      -1.610149      -1.595077      -1.580492      -1.500336
           -0.832820      -0.801479      -0.775950      -0.773554      -0.760814
           -0.755893      -0.739108      -0.690751      -0.673016      -0.666928
           -0.648013      -0.613096      -0.582336      -0.581044      -0.555657
           -0.262605      -0.247434      -0.244364      -0.236639      -0.185256
           -0.184603      -0.183498      -0.176039      -0.173574      -0.144605
           -0.139775      -0.136468

 **********************************************************************
 *SIRIUS* a direct, restricted step, second order MCSCF program       *
 **********************************************************************

 
     Date and time (Linux)  : Fri Dec  7 14:36:49 2018
     Host name              : s73p28.deic.sdu.dk                      

 Title lines from ".mol" input file:
                                                                             
                                                                             

 Print level on unit LUPRI =   2 is   0
 Print level on unit LUW4  =   2 is  11

@    (Integral direct) CC calculation.

@    This is a combination run starting with
@              a restricted, closed shell Hartree-Fock calculation


 Initial molecular orbitals are obtained according to
 ".MOSTART EWMO  " input option

@    QM part is embedded in an environment :

@         Model: PE

     Wave function specification
     ============================

     For the specification of the Coupled Cluster: see later.


     Wave function environment is modeled using the
     polarizable embedding model (PE library).

@    Wave function type        --- PE-CC ---
@    Number of closed shell electrons          50
@    Number of electrons in active shells       0
@    Total charge of the molecule               1

@    Spin multiplicity and 2 M_S                1         0
@    Total number of symmetries                 1 (point group: C1 )
@    Reference state symmetry                   1 (irrep name : A  )

     Orbital specifications
     ======================
@    Abelian symmetry species          All |    1
@                                          |  A  
                                       --- |  ---
@    Occupied SCF orbitals              25 |   25
@    Secondary orbitals                137 |  137
@    Total number of orbitals          162 |  162
@    Number of basis functions         162 |  162

     Optimization information
     ========================
@    Number of configurations                 1
@    Number of orbital rotations           3425
     ------------------------------------------
@    Total number of variables             3426

     Maximum number of Fock   iterations      0
     Maximum number of DIIS   iterations     60
     Maximum number of QC-SCF iterations     60
     Threshold for SCF convergence     1.00D-07


 Changes of defaults for CC:
 ---------------------------


 -Implicit frozen core calculation
 -Excitation energies calculated
 -One-photon absorption strengths will be calculated
 -Oscillator strengths calculated
  
* Read MO coefficients from SIRIUS.RST with label "NEWORB  " and header info:  7Dec18  REORTHO 


 ***********************************************
 ***** DIIS acceleration of SCF iterations *****
 ***********************************************

 C1-DIIS algorithm; max error vectors =    8
 -----------------------------------------------------------------------------

 *** DIIS iteration number    1
 RDSUPM called. NFMAT, ISYMDM(1:NFMAT)           1           1

Calculating AOSUPINT
     (Precalculated AO two-electron integrals are transformed to P-supermatrix elements.
      Threshold for discarding integrals :  1.00D-12 )
  CPU  time used in FORMSUP    is   2.81 seconds
  WALL time used in FORMSUP    is   4.79 seconds

 ITDIIS, energy, error norm, change in energy, scr.thr., difden:
@ DIIS iter.   1    -360.205345926        4.03333D+00   -3.60D+02  -20    F

 (DIIS_RED) Control Parameters C2DIIS =         F NEVC =    1


 (DIIS_RED) B matrix:

               Column   1
       1      16.26778917
    ==== End of matrix output ====

 DIIS C vector; C2DIIS = F, LAMBDA = -1.63D+01
    1.000000
* Read MO coefficients from SIRIUS.RST with label "NEWORB  " and header info:  7Dec18  DIIS   1
      Virial theorem: -V/T =      2.003174
@    MULPOP   N       0.13; H       0.16; H       0.18; H       0.16; H       0.17; O      -0.59; O      -0.58; O      -0.58; O      -0.63; H       0.32; 
@             H       0.31; H       0.30; H       0.33; H       0.32; H       0.33; H       0.33; H       0.33; 
   1  Level shift: doubly occupied orbital energies shifted by -2.00D-01

 DIIS Fock eigenvalues in symmetry 1
      -20.80887      -20.80862      -20.80396      -20.79327      -16.48353
       -1.74270       -1.63292       -1.62673       -1.61681       -1.60716
       -1.22811       -1.21278       -1.19513       -1.00431       -0.99914
       -0.99716       -0.97695       -0.88562       -0.87612       -0.86974
       -0.86265       -0.83948       -0.83387       -0.83019       -0.82318
        0.00238        0.06114        0.06985        0.08735        0.11410
        0.15620        0.16878        0.17704        0.19483        0.20152
        0.20603        0.21477        0.24543        0.27888        0.31195
        0.41730        0.45139        0.45621        0.47564        0.49300
        0.50230        0.51429        0.52865        0.54745        0.68842
        0.69900        0.72827        0.84827        0.85879        0.88466
        0.90392        0.92325        0.95972        0.98858        0.99308
        1.00368        1.02479        1.03497        1.04120        1.06659
        1.08499        1.10258        1.23799        1.26052        1.32161
        1.32305        1.36309        1.36529        1.38708        1.40295
        1.41130        1.41900        1.43682        1.46477        1.51489
        1.54073        1.55831        1.56310        1.60193        1.64584
        1.68755        1.75287        1.75759        1.79223        1.83410
        1.85712        1.94008        2.03195        2.05221        2.08199
        2.09127        2.10215        2.15853        2.16902        2.18848
        2.20188        2.22314        2.23670        2.26357        2.41794
        2.43725        2.48110        2.49249        2.50740        2.52730
        2.58467        2.62871        2.66208        2.67307        2.70312
        2.71344        2.72616        2.75996        2.99196        3.03353
        3.07321        3.09101        3.32622        3.33886        3.36094
        3.36170        3.39039        3.39661        3.41912        3.43182
        3.51329        3.52436        3.55250        3.57779        3.84920
        3.86729        3.87350        3.88108        4.07534        4.10573
        4.12158        4.15151        4.72361        4.83382        4.87083
        5.25752        5.27389        5.28819        5.30807        5.64500
        5.71687        5.74721        5.79132        5.91413        5.94710
        5.94813        5.99248       36.38335       51.43900       51.46548
       51.47157       51.49051
 Time used in FCKEIG, thr_jaco:   4.60D-02  4.60D-02  1.72D-04
 CPU and wall times used in FCKEIG, THR_FCKEIG:   4.60D-02  4.60D-02  4.03D-02
 -----------------------------------------------------------------------------

 *** DIIS iteration number    2
 RDSUPM called. NFMAT, ISYMDM(1:NFMAT)           1           1

 ITDIIS, energy, error norm, change in energy, scr.thr., difden:
@ DIIS iter.   2    -361.116287605        1.16976D+00   -9.11D-01  -20    F

 (DIIS_RED) Control Parameters C2DIIS =         F NEVC =    2


 (DIIS_RED) B matrix:

               Column   1     Column   2
       1      16.26778917
       2       0.54667844     1.36834009
    ==== End of matrix output ====

 DIIS C vector; C2DIIS = F, LAMBDA = -1.33D+00
    0.049669    0.950331
* Read MO coefficients from SIRIUS.RST with label "NEWORB  " and header info:  7Dec18  DIIS   2
      Virial theorem: -V/T =      2.002546
@    MULPOP   N      -0.52; H       0.34; H       0.34; H       0.31; H       0.33; O      -0.58; O      -0.55; O      -0.53; O      -0.57; H       0.30; 
@             H       0.33; H       0.30; H       0.30; H       0.33; H       0.27; H       0.32; H       0.29; 
   2  Level shift: doubly occupied orbital energies shifted by -1.00D-01

 DIIS Fock eigenvalues in symmetry 1
      -20.78167      -20.77477      -20.75661      -20.75234      -15.63037
       -1.52612       -1.52388       -1.52004       -1.50432       -1.39201
       -0.89609       -0.89250       -0.88323       -0.87396       -0.87009
       -0.85561       -0.85401       -0.78773       -0.76921       -0.76001
       -0.75594       -0.72244       -0.71408       -0.70242       -0.69608
        0.06143        0.09972        0.10922        0.12994        0.16513
        0.17872        0.19620        0.21496        0.22296        0.24919
        0.27547        0.31732        0.34659        0.37946        0.39125
        0.45063        0.48691        0.49085        0.51595        0.53006
        0.53972        0.55110        0.57232        0.63635        0.83479
        0.84393        0.87398        0.88915        0.90288        0.91684
        0.93951        0.96985        1.00610        1.01174        1.01833
        1.03893        1.05929        1.07481        1.09667        1.15490
        1.17773        1.21603        1.27164        1.30985        1.36569
        1.37465        1.41025        1.41856        1.44189        1.45322
        1.46121        1.46850        1.48770        1.52316        1.59218
        1.62410        1.62835        1.64809        1.71811        1.75068
        1.76492        1.80966        1.81310        1.85918        1.89777
        1.97202        2.04306        2.09259        2.10689        2.12785
        2.14493        2.16383        2.23497        2.24896        2.28562
        2.30139        2.31318        2.32968        2.38891        2.51927
        2.53083        2.56580        2.57026        2.57890        2.60951
        2.68389        2.72322        2.72987        2.77285        2.78148
        2.78878        2.94929        2.99310        3.16944        3.27319
        3.29226        3.33616        3.36080        3.36841        3.37589
        3.39923        3.41897        3.43188        3.48763        3.51561
        3.53133        3.54109        3.57463        3.60441        3.86229
        3.88117        3.88759        3.90184        4.08714        4.11630
        4.13817        4.17167        5.11437        5.21614        5.23037
        5.24537        5.28809        5.29531        5.33054        5.63413
        5.70726        5.74169        5.79402        5.91622        5.94771
        5.95597        6.00989       37.11850       51.36873       51.40099
       51.41175       51.44442
 Time used in FCKEIG, thr_jaco:   3.09D-02  3.10D-02  5.00D-05
 CPU and wall times used in FCKEIG, THR_FCKEIG:   3.09D-02  3.10D-02  1.17D-02
 -----------------------------------------------------------------------------

 *** DIIS iteration number    3
 RDSUPM called. NFMAT, ISYMDM(1:NFMAT)           1           1

 ITDIIS, energy, error norm, change in energy, scr.thr., difden:
@ DIIS iter.   3    -361.193190936        3.71151D-01   -7.69D-02  -20    F

 (DIIS_RED) Control Parameters C2DIIS =         F NEVC =    3


 (DIIS_RED) B matrix:

               Column   1     Column   2     Column   3
       1      16.26778917
       2       0.54667844     1.36834009
       3       0.82553502    -0.00695922     0.13775289
    ==== End of matrix output ====

 DIIS C vector; C2DIIS = F, LAMBDA = -9.31D-02
   -0.045786    0.091164    0.954622
* Read MO coefficients from SIRIUS.RST with label "NEWORB  " and header info:  7Dec18  DIIS   3
      Virial theorem: -V/T =      2.003137
@    MULPOP   N      -0.31; H       0.30; H       0.30; H       0.25; H       0.29; O      -0.65; O      -0.62; O      -0.59; O      -0.63; H       0.32; 
@             H       0.37; H       0.33; H       0.32; H       0.36; H       0.29; H       0.35; H       0.31; 
   3  Level shift: doubly occupied orbital energies shifted by -5.00D-02

 DIIS Fock eigenvalues in symmetry 1
      -20.68909      -20.67576      -20.66166      -20.65804      -15.78245
       -1.45786       -1.45173       -1.44846       -1.43626       -1.38979
       -0.87104       -0.86211       -0.83635       -0.81448       -0.80656
       -0.79941       -0.78794       -0.71757       -0.69833       -0.69083
       -0.68869       -0.64594       -0.63557       -0.62616       -0.62108
        0.06787        0.10687        0.11576        0.13712        0.16930
        0.18433        0.20125        0.22046        0.22973        0.25127
        0.27779        0.31790        0.34849        0.38126        0.39273
        0.46236        0.49820        0.50267        0.52568        0.54073
        0.55159        0.56163        0.58464        0.63768        0.82691
        0.83753        0.86621        0.89446        0.91167        0.92975
        0.95715        0.98293        1.02011        1.02657        1.03461
        1.05475        1.07362        1.08984        1.11140        1.15051
        1.17806        1.21637        1.28465        1.32192        1.37891
        1.38875        1.42484        1.43410        1.45908        1.46721
        1.47623        1.48362        1.50088        1.53394        1.60263
        1.63377        1.63883        1.65546        1.72237        1.75831
        1.77352        1.82211        1.82554        1.86924        1.91188
        1.97153        2.04691        2.10856        2.12139        2.14312
        2.16118        2.17653        2.25317        2.26838        2.30309
        2.31010        2.31517        2.32975        2.38920        2.52847
        2.54155        2.57746        2.58109        2.58818        2.61931
        2.69294        2.73495        2.74236        2.78621        2.79247
        2.79896        2.91793        2.96246        3.16153        3.25866
        3.27293        3.33479        3.37333        3.38898        3.40181
        3.41480        3.44326        3.45081        3.49237        3.52053
        3.55769        3.56995        3.60086        3.63522        3.88748
        3.90927        3.91384        3.93129        4.11494        4.14690
        4.16569        4.20365        5.04200        5.15377        5.18536
        5.27961        5.30593        5.31337        5.35021        5.66493
        5.74128        5.77414        5.83027        5.94849        5.98405
        5.98740        6.04715       36.92270       51.41145       51.44831
       51.45442       51.49289
 Time used in FCKEIG, thr_jaco:   3.99D-02  4.00D-02  1.59D-05
 CPU and wall times used in FCKEIG, THR_FCKEIG:   3.99D-02  4.00D-02  3.71D-03
 -----------------------------------------------------------------------------

 *** DIIS iteration number    4
 RDSUPM called. NFMAT, ISYMDM(1:NFMAT)           1           1

 ITDIIS, energy, error norm, change in energy, scr.thr., difden:
@ DIIS iter.   4    -361.203209514        9.12033D-02   -1.00D-02  -20    F

 (DIIS_RED) Control Parameters C2DIIS =         F NEVC =    4


 (DIIS_RED) B matrix:

               Column   1     Column   2     Column   3     Column   4
       1      16.26778917
       2       0.54667844     1.36834009
       3       0.82553502    -0.00695922     0.13775289
       4       0.05189306     0.07501855     0.00589454     0.00831803
    ==== End of matrix output ====

 DIIS C vector; C2DIIS = F, LAMBDA = -4.66D-03
   -0.000767   -0.054756   -0.009958    1.065481
* Read MO coefficients from SIRIUS.RST with label "NEWORB  " and header info:  7Dec18  DIIS   4
      Virial theorem: -V/T =      2.003216
@    MULPOP   N      -0.38; H       0.31; H       0.32; H       0.27; H       0.31; O      -0.67; O      -0.62; O      -0.59; O      -0.64; H       0.33; 
@             H       0.38; H       0.34; H       0.33; H       0.36; H       0.29; H       0.35; H       0.32; 
   4  Level shift: doubly occupied orbital energies shifted by -1.25D-02

 DIIS Fock eigenvalues in symmetry 1
      -20.66371      -20.65472      -20.63748      -20.63741      -15.71555
       -1.42473       -1.41917       -1.41633       -1.40329       -1.34125
       -0.82327       -0.81538       -0.78984       -0.78013       -0.77153
       -0.76509       -0.75402       -0.68227       -0.66352       -0.65528
       -0.65322       -0.60878       -0.59952       -0.58905       -0.58411
        0.06851        0.10644        0.11491        0.13622        0.17029
        0.18428        0.20124        0.22077        0.22925        0.25372
        0.28065        0.32219        0.35437        0.38701        0.39839
        0.46216        0.49778        0.50249        0.52525        0.53927
        0.55106        0.55971        0.58363        0.64234        0.83308
        0.84363        0.87235        0.89663        0.91312        0.93061
        0.95775        0.98435        1.01948        1.02562        1.03374
        1.05392        1.07288        1.08841        1.10919        1.15601
        1.18026        1.22103        1.28445        1.32294        1.37895
        1.38902        1.42337        1.43245        1.45751        1.46548
        1.47451        1.48186        1.50058        1.53422        1.60340
        1.63473        1.63884        1.65923        1.72829        1.76258
        1.77662        1.82077        1.82465        1.86897        1.91157
        1.97684        2.05146        2.10643        2.12053        2.14036
        2.16075        2.17662        2.25030        2.26519        2.29987
        2.31538        2.31902        2.33333        2.39419        2.53071
        2.54307        2.57726        2.58378        2.59036        2.62297
        2.69770        2.73504        2.74314        2.78535        2.79189
        2.79904        2.92908        2.97355        3.16941        3.26589
        3.28106        3.34168        3.37257        3.38616        3.39882
        3.41355        3.44102        3.44749        3.49314        3.52169
        3.55481        3.56600        3.59776        3.63141        3.88432
        3.90504        3.90997        3.92700        4.11179        4.14269
        4.16238        4.19945        5.05784        5.16920        5.19845
        5.27171        5.30119        5.30925        5.34374        5.65953
        5.73421        5.76749        5.82267        5.94215        5.97578
        5.98048        6.03881       36.95180       51.39962       51.43322
       51.44041       51.47649
 Time used in FCKEIG, thr_jaco:   2.48D-02  2.50D-02  3.90D-06
 CPU and wall times used in FCKEIG, THR_FCKEIG:   2.48D-02  2.50D-02  9.12D-04
 -----------------------------------------------------------------------------

 *** DIIS iteration number    5
 RDSUPM called. NFMAT, ISYMDM(1:NFMAT)           1           1

 ITDIIS, energy, error norm, change in energy, scr.thr., difden:
@ DIIS iter.   5    -361.204169792        3.08759D-02   -9.60D-04  -20    F

 (DIIS_RED) Control Parameters C2DIIS =         F NEVC =    5


 (DIIS_RED) B matrix:

               Column   1     Column   2     Column   3     Column   4     Column   5
       1      16.26778917
       2       0.54667844     1.36834009
       3       0.82553502    -0.00695922     0.13775289
       4       0.05189306     0.07501855     0.00589454     0.00831803
       5       0.02394512     0.00730608     0.00585908     0.00069901     0.00095332
    ==== End of matrix output ====

 DIIS C vector; C2DIIS = F, LAMBDA = -6.27D-04
    0.001092   -0.012866   -0.047745    0.141217    0.918303
* Read MO coefficients from SIRIUS.RST with label "NEWORB  " and header info:  7Dec18  DIIS   5
      Virial theorem: -V/T =      2.002801
@    MULPOP   N      -0.36; H       0.31; H       0.32; H       0.26; H       0.30; O      -0.68; O      -0.64; O      -0.61; O      -0.66; H       0.34; 
@             H       0.38; H       0.35; H       0.33; H       0.37; H       0.30; H       0.36; H       0.32; 

 DIIS Fock eigenvalues in symmetry 1
      -20.64530      -20.63381      -20.61845      -20.61588      -15.69866
       -1.41005       -1.40344       -1.40082       -1.38847       -1.32687
       -0.80896       -0.80110       -0.77540       -0.76609       -0.75686
       -0.75015       -0.73991       -0.66809       -0.64867       -0.64024
       -0.63876       -0.59331       -0.58331       -0.57337       -0.56778
        0.06908        0.10685        0.11527        0.13660        0.17084
        0.18474        0.20168        0.22123        0.22970        0.25448
        0.28153        0.32330        0.35570        0.38827        0.39960
        0.46289        0.49855        0.50334        0.52590        0.53979
        0.55187        0.56012        0.58451        0.64355        0.83453
        0.84508        0.87393        0.89826        0.91513        0.93259
        0.95993        0.98610        1.02094        1.02732        1.03540
        1.05553        1.07450        1.09006        1.11068        1.15755
        1.18163        1.22254        1.28590        1.32468        1.38031
        1.39032        1.42408        1.43308        1.45844        1.46603
        1.47520        1.48258        1.50154        1.53555        1.60408
        1.63562        1.63962        1.66024        1.72949        1.76367
        1.77774        1.82091        1.82497        1.86926        1.91212
        1.97807        2.05272        2.10721        2.12157        2.14102
        2.16202        2.17791        2.25120        2.26624        2.30071
        2.31688        2.32038        2.33476        2.39544        2.53156
        2.54374        2.57753        2.58461        2.59117        2.62388
        2.69867        2.73543        2.74374        2.78552        2.79207
        2.79954        2.93084        2.97534        3.17101        3.26826
        3.28336        3.34403        3.37492        3.38927        3.40115
        3.41606        3.44361        3.45072        3.49604        3.52476
        3.55709        3.56909        3.60013        3.63475        3.88660
        3.90797        3.91260        3.93030        4.11432        4.14593
        4.16502        4.20304        5.06042        5.17183        5.20130
        5.27678        5.30507        5.31291        5.34897        5.66293
        5.73855        5.77161        5.82763        5.94533        5.98021
        5.98390        6.04360       36.95611       51.40547       51.44101
       51.44742       51.48535
 Time used in FCKEIG, thr_jaco:   2.33D-02  2.30D-02  1.32D-06
 CPU and wall times used in FCKEIG, THR_FCKEIG:   2.33D-02  2.30D-02  3.09D-04
 -----------------------------------------------------------------------------

 *** DIIS iteration number    6
 RDSUPM called. NFMAT, ISYMDM(1:NFMAT)           1           1

 ITDIIS, energy, error norm, change in energy, scr.thr., difden:
@ DIIS iter.   6    -361.204258031        1.08411D-02   -8.82D-05  -20    F

 (DIIS_RED) Control Parameters C2DIIS =         F NEVC =    6


 (DIIS_RED) B matrix:

               Column   1     Column   2     Column   3     Column   4     Column   5     Column   6
       1      16.26778917
       2       0.54667844     1.36834009
       3       0.82553502    -0.00695922     0.13775289
       4       0.05189306     0.07501855     0.00589454     0.00831803
       5       0.02394512     0.00730608     0.00585908     0.00069901     0.00095332
       6      -0.00448279    -0.00012493     0.00079024     0.00057686     0.00002258     0.00011753
    ==== End of matrix output ====

 DIIS C vector; C2DIIS = F, LAMBDA = -3.61D-05
    0.000775    0.006698   -0.008137   -0.135260    0.091481    1.044444
* Read MO coefficients from SIRIUS.RST with label "NEWORB  " and header info:  7Dec18  DIIS   6
      Virial theorem: -V/T =      2.003065
@    MULPOP   N      -0.36; H       0.31; H       0.31; H       0.26; H       0.30; O      -0.68; O      -0.64; O      -0.60; O      -0.66; H       0.34; 
@             H       0.38; H       0.35; H       0.33; H       0.37; H       0.29; H       0.36; H       0.32; 

 DIIS Fock eigenvalues in symmetry 1
      -20.64672      -20.63607      -20.62018      -20.61820      -15.70073
       -1.41037       -1.40406       -1.40144       -1.38894       -1.32740
       -0.80946       -0.80164       -0.77591       -0.76650       -0.75747
       -0.75076       -0.74046       -0.66871       -0.64956       -0.64112
       -0.63958       -0.59334       -0.58366       -0.57352       -0.56814
        0.06899        0.10673        0.11510        0.13643        0.17079
        0.18462        0.20156        0.22112        0.22957        0.25440
        0.28143        0.32314        0.35552        0.38813        0.39945
        0.46272        0.49831        0.50311        0.52566        0.53954
        0.55165        0.55982        0.58426        0.64335        0.83418
        0.84477        0.87362        0.89806        0.91486        0.93235
        0.95967        0.98590        1.02065        1.02692        1.03506
        1.05515        1.07416        1.08966        1.11026        1.15726
        1.18135        1.22226        1.28568        1.32434        1.37996
        1.39003        1.42379        1.43277        1.45812        1.46567
        1.47486        1.48224        1.50124        1.53521        1.60385
        1.63534        1.63933        1.66006        1.72934        1.76352
        1.77752        1.82066        1.82468        1.86897        1.91189
        1.97788        2.05254        2.10680        2.12118        2.14053
        2.16162        2.17758        2.25082        2.26580        2.30026
        2.31658        2.32015        2.33447        2.39515        2.53131
        2.54349        2.57721        2.58445        2.59097        2.62375
        2.69858        2.73514        2.74350        2.78522        2.79174
        2.79924        2.93031        2.97480        3.17076        3.26756
        3.28270        3.34340        3.37441        3.38850        3.40065
        3.41545        3.44293        3.44993        3.49530        3.52400
        3.55663        3.56833        3.59950        3.63394        3.88611
        3.90720        3.91189        3.92949        4.11379        4.14513
        4.16434        4.20218        5.05944        5.17086        5.20037
        5.27559        5.30416        5.31216        5.34775        5.66217
        5.73742        5.77053        5.82638        5.94452        5.97897
        5.98289        6.04233       36.95407       51.40407       51.43894
       51.44553       51.48307
 Time used in FCKEIG, thr_jaco:   2.28D-02  2.30D-02  4.63D-07
 CPU and wall times used in FCKEIG, THR_FCKEIG:   2.28D-02  2.30D-02  1.08D-04
 -----------------------------------------------------------------------------

 *** DIIS iteration number    7
 RDSUPM called. NFMAT, ISYMDM(1:NFMAT)           1           1

 ITDIIS, energy, error norm, change in energy, scr.thr., difden:
@ DIIS iter.   7    -361.204271491        2.30090D-03   -1.35D-05  -20    F

 (DIIS_RED) Control Parameters C2DIIS =         F NEVC =    7


 (DIIS_RED) B matrix:

               Column   1     Column   2     Column   3     Column   4     Column   5     Column   6
       1      16.26778917
       2       0.54667844     1.36834009
       3       0.82553502    -0.00695922     0.13775289
       4       0.05189306     0.07501855     0.00589454     0.00831803
       5       0.02394512     0.00730608     0.00585908     0.00069901     0.00095332
       6      -0.00448279    -0.00012493     0.00079024     0.00057686     0.00002258     0.00011753
       7       0.00030332     0.00020130    -0.00000489     0.00000476     0.00004929     0.00000206

               Column   7
       7       0.00000529
    ==== End of matrix output ====

 DIIS C vector; C2DIIS = F, LAMBDA = -1.23D-06
   -0.000251   -0.000859    0.005513    0.023899   -0.096905   -0.157320    1.225923
* Read MO coefficients from SIRIUS.RST with label "NEWORB  " and header info:  7Dec18  DIIS   7
      Virial theorem: -V/T =      2.003007
@    MULPOP   N      -0.36; H       0.31; H       0.31; H       0.26; H       0.30; O      -0.68; O      -0.64; O      -0.61; O      -0.66; H       0.34; 
@             H       0.39; H       0.35; H       0.33; H       0.37; H       0.30; H       0.36; H       0.33; 

 DIIS Fock eigenvalues in symmetry 1
      -20.64653      -20.63569      -20.61995      -20.61791      -15.70028
       -1.41025       -1.40391       -1.40126       -1.38881       -1.32717
       -0.80928       -0.80146       -0.77572       -0.76643       -0.75734
       -0.75065       -0.74038       -0.66872       -0.64950       -0.64106
       -0.63956       -0.59318       -0.58343       -0.57333       -0.56794
        0.06905        0.10677        0.11513        0.13645        0.17083
        0.18467        0.20159        0.22116        0.22960        0.25447
        0.28152        0.32324        0.35566        0.38826        0.39959
        0.46278        0.49838        0.50318        0.52571        0.53957
        0.55171        0.55984        0.58430        0.64349        0.83433
        0.84490        0.87377        0.89816        0.91499        0.93247
        0.95978        0.98602        1.02075        1.02703        1.03516
        1.05524        1.07425        1.08973        1.11033        1.15742
        1.18147        1.22240        1.28578        1.32448        1.38006
        1.39010        1.42383        1.43279        1.45816        1.46569
        1.47489        1.48227        1.50130        1.53531        1.60391
        1.63540        1.63938        1.66016        1.72948        1.76364
        1.77762        1.82067        1.82471        1.86900        1.91192
        1.97801        2.05266        2.10684        2.12124        2.14056
        2.16169        2.17766        2.25085        2.26584        2.30028
        2.31669        2.32028        2.33460        2.39527        2.53138
        2.54354        2.57723        2.58454        2.59104        2.62385
        2.69869        2.73516        2.74355        2.78523        2.79175
        2.79926        2.93052        2.97502        3.17093        3.26777
        3.28291        3.34359        3.37454        3.38868        3.40075
        3.41560        3.44307        3.45008        3.49550        3.52418
        3.55674        3.56851        3.59963        3.63409        3.88620
        3.90735        3.91202        3.92962        4.11392        4.14531
        4.16449        4.20234        5.05973        5.17115        5.20063
        5.27584        5.30435        5.31232        5.34796        5.66230
        5.73762        5.77072        5.82657        5.94464        5.97919
        5.98304        6.04251       36.95450       51.40425       51.43927
       51.44580       51.48336
 Time used in FCKEIG, thr_jaco:   2.28D-02  2.30D-02  9.83D-08
 CPU and wall times used in FCKEIG, THR_FCKEIG:   2.28D-02  2.30D-02  2.30D-05
 -----------------------------------------------------------------------------

 *** DIIS iteration number    8
 RDSUPM called. NFMAT, ISYMDM(1:NFMAT)           1           1

 ITDIIS, energy, error norm, change in energy, scr.thr., difden:
@ DIIS iter.   8    -361.204272083        3.55336D-04   -5.92D-07  -20    F

 (DIIS_RED) Control Parameters C2DIIS =         F NEVC =    8


 (DIIS_RED) B matrix:

               Column   1     Column   2     Column   3     Column   4     Column   5     Column   6
       1      16.26778917
       2       0.54667844     1.36834009
       3       0.82553502    -0.00695922     0.13775289
       4       0.05189306     0.07501855     0.00589454     0.00831803
       5       0.02394512     0.00730608     0.00585908     0.00069901     0.00095332
       6      -0.00448279    -0.00012493     0.00079024     0.00057686     0.00002258     0.00011753
       7       0.00030332     0.00020130    -0.00000489     0.00000476     0.00004929     0.00000206
       8       0.00010536    -0.00005160     0.00000886     0.00000162     0.00000014     0.00000160

               Column   7     Column   8
       7       0.00000529
       8       0.00000035     0.00000013
    ==== End of matrix output ====

 DIIS C vector; C2DIIS = F, LAMBDA = -5.82D-08
    0.000018    0.000059   -0.000894   -0.001566    0.018236   -0.000991   -0.243338    1.228476
* Read MO coefficients from SIRIUS.RST with label "NEWORB  " and header info:  7Dec18  DIIS   8
      Virial theorem: -V/T =      2.003023
@    MULPOP   N      -0.36; H       0.31; H       0.31; H       0.26; H       0.30; O      -0.68; O      -0.64; O      -0.61; O      -0.66; H       0.34; 
@             H       0.39; H       0.35; H       0.33; H       0.37; H       0.30; H       0.36; H       0.33; 

 DIIS Fock eigenvalues in symmetry 1
      -20.64652      -20.63575      -20.61996      -20.61789      -15.70032
       -1.41024       -1.40391       -1.40127       -1.38881       -1.32719
       -0.80929       -0.80148       -0.77574       -0.76642       -0.75734
       -0.75064       -0.74037       -0.66874       -0.64953       -0.64108
       -0.63958       -0.59317       -0.58345       -0.57333       -0.56794
        0.06905        0.10676        0.11513        0.13645        0.17083
        0.18467        0.20159        0.22116        0.22961        0.25447
        0.28151        0.32323        0.35565        0.38825        0.39957
        0.46279        0.49837        0.50317        0.52571        0.53957
        0.55170        0.55984        0.58430        0.64348        0.83431
        0.84489        0.87376        0.89815        0.91498        0.93246
        0.95977        0.98601        1.02075        1.02702        1.03516
        1.05524        1.07425        1.08973        1.11033        1.15741
        1.18146        1.22238        1.28578        1.32447        1.38005
        1.39010        1.42382        1.43279        1.45815        1.46569
        1.47489        1.48227        1.50129        1.53530        1.60390
        1.63539        1.63938        1.66015        1.72946        1.76363
        1.77761        1.82066        1.82471        1.86900        1.91191
        1.97800        2.05265        2.10683        2.12124        2.14055
        2.16169        2.17766        2.25084        2.26584        2.30028
        2.31668        2.32027        2.33459        2.39526        2.53137
        2.54354        2.57722        2.58452        2.59103        2.62384
        2.69867        2.73516        2.74354        2.78522        2.79175
        2.79926        2.93050        2.97500        3.17091        3.26775
        3.28289        3.34358        3.37454        3.38866        3.40075
        3.41559        3.44306        3.45008        3.49547        3.52417
        3.55674        3.56849        3.59963        3.63410        3.88620
        3.90733        3.91200        3.92962        4.11392        4.14530
        4.16448        4.20234        5.05971        5.17113        5.20061
        5.27581        5.30434        5.31232        5.34797        5.66230
        5.73760        5.77070        5.82657        5.94465        5.97916
        5.98303        6.04252       36.95447       51.40426       51.43923
       51.44578       51.48337
 Time used in FCKEIG, thr_jaco:   2.29D-02  2.30D-02  1.52D-08
 CPU and wall times used in FCKEIG, THR_FCKEIG:   2.39D-02  2.30D-02  3.55D-06
 -----------------------------------------------------------------------------

 *** DIIS iteration number    9
 RDSUPM called. NFMAT, ISYMDM(1:NFMAT)           1           1

 ITDIIS, energy, error norm, change in energy, scr.thr., difden:
@ DIIS iter.   9    -361.204272100        9.14076D-05   -1.72D-08  -20    F

 (DIIS_RED) Control Parameters C2DIIS =         F NEVC =    8


 (DIIS_RED) B matrix:

               Column   1     Column   2     Column   3     Column   4     Column   5     Column   6
       1       0.00000001
       2       0.00001185     1.36834009
       3      -0.00000304    -0.00695922     0.13775289
       4       0.00000033     0.07501855     0.00589454     0.00831803
       5       0.00000026     0.00730608     0.00585908     0.00069901     0.00095332
       6      -0.00000003    -0.00012493     0.00079024     0.00057686     0.00002258     0.00011753
       7       0.00000008     0.00020130    -0.00000489     0.00000476     0.00004929     0.00000206
       8       0.00000001    -0.00005160     0.00000886     0.00000162     0.00000014     0.00000160

               Column   7     Column   8
       7       0.00000529
       8       0.00000035     0.00000013
    ==== End of matrix output ====

 DIIS C vector; C2DIIS = F, LAMBDA = -6.42D-09
    1.024826    0.000014   -0.000077   -0.000536    0.002385    0.003566   -0.038159    0.007983
* Read MO coefficients from SIRIUS.RST with label "NEWORB  " and header info:  7Dec18  DIIS   9
      Virial theorem: -V/T =      2.003023
@    MULPOP   N      -0.36; H       0.31; H       0.31; H       0.26; H       0.30; O      -0.68; O      -0.64; O      -0.61; O      -0.66; H       0.34; 
@             H       0.39; H       0.35; H       0.33; H       0.37; H       0.30; H       0.36; H       0.33; 

 DIIS Fock eigenvalues in symmetry 1
      -20.64653      -20.63571      -20.61995      -20.61791      -15.70031
       -1.41025       -1.40391       -1.40126       -1.38881       -1.32719
       -0.80929       -0.80147       -0.77573       -0.76642       -0.75733
       -0.75064       -0.74037       -0.66874       -0.64953       -0.64109
       -0.63958       -0.59317       -0.58344       -0.57332       -0.56794
        0.06905        0.10676        0.11513        0.13645        0.17083
        0.18467        0.20159        0.22117        0.22961        0.25447
        0.28151        0.32324        0.35565        0.38825        0.39958
        0.46279        0.49838        0.50318        0.52571        0.53957
        0.55170        0.55984        0.58429        0.64348        0.83432
        0.84490        0.87377        0.89815        0.91499        0.93246
        0.95977        0.98601        1.02075        1.02703        1.03516
        1.05524        1.07425        1.08973        1.11033        1.15741
        1.18146        1.22239        1.28578        1.32447        1.38005
        1.39010        1.42382        1.43279        1.45815        1.46569
        1.47489        1.48227        1.50129        1.53530        1.60390
        1.63539        1.63938        1.66016        1.72946        1.76363
        1.77761        1.82066        1.82471        1.86900        1.91191
        1.97800        2.05266        2.10683        2.12124        2.14055
        2.16169        2.17766        2.25085        2.26584        2.30028
        2.31668        2.32027        2.33459        2.39526        2.53137
        2.54354        2.57723        2.58453        2.59104        2.62384
        2.69867        2.73516        2.74354        2.78523        2.79175
        2.79926        2.93051        2.97500        3.17091        3.26776
        3.28290        3.34358        3.37454        3.38867        3.40075
        3.41559        3.44306        3.45007        3.49549        3.52417
        3.55674        3.56850        3.59963        3.63409        3.88620
        3.90734        3.91201        3.92962        4.11392        4.14531
        4.16448        4.20233        5.05971        5.17113        5.20062
        5.27583        5.30434        5.31232        5.34795        5.66230
        5.73761        5.77071        5.82656        5.94464        5.97918
        5.98303        6.04250       36.95448       51.40425       51.43925
       51.44579       51.48335
 Time used in FCKEIG, thr_jaco:   2.29D-02  2.30D-02  3.90D-09
 CPU and wall times used in FCKEIG, THR_FCKEIG:   2.29D-02  2.30D-02  9.14D-07
 -----------------------------------------------------------------------------

 *** DIIS iteration number   10
 RDSUPM called. NFMAT, ISYMDM(1:NFMAT)           1           1

 ITDIIS, energy, error norm, change in energy, scr.thr., difden:
@ DIIS iter.  10    -361.204272101        3.94793D-05   -7.44D-10  -20    F

 (DIIS_RED) Control Parameters C2DIIS =         F NEVC =    8


 (DIIS_RED) B matrix:

               Column   1     Column   2     Column   3     Column   4     Column   5     Column   6
       1       0.00000001
       2      -0.00000000     0.00000000
       3      -0.00000304    -0.00000056     0.13775289
       4       0.00000033     0.00000004     0.00589454     0.00831803
       5       0.00000026    -0.00000007     0.00585908     0.00069901     0.00095332
       6      -0.00000003     0.00000002     0.00079024     0.00057686     0.00002258     0.00011753
       7       0.00000008     0.00000000    -0.00000489     0.00000476     0.00004929     0.00000206
       8       0.00000001     0.00000001     0.00000886     0.00000162     0.00000014     0.00000160

               Column   7     Column   8
       7       0.00000529
       8       0.00000035     0.00000013
    ==== End of matrix output ====

 DIIS C vector; C2DIIS = F, LAMBDA = -3.71D-10
    0.274352    0.847066    0.000057   -0.000065   -0.001062    0.001689    0.014114   -0.136151
* Read MO coefficients from SIRIUS.RST with label "NEWORB  " and header info:  7Dec18  DIIS  10
      Virial theorem: -V/T =      2.003023
@    MULPOP   N      -0.36; H       0.31; H       0.31; H       0.26; H       0.30; O      -0.68; O      -0.64; O      -0.61; O      -0.66; H       0.34; 
@             H       0.39; H       0.35; H       0.33; H       0.37; H       0.30; H       0.36; H       0.33; 

 DIIS Fock eigenvalues in symmetry 1
      -20.64653      -20.63573      -20.61995      -20.61790      -15.70031
       -1.41025       -1.40391       -1.40126       -1.38881       -1.32719
       -0.80929       -0.80147       -0.77573       -0.76642       -0.75733
       -0.75064       -0.74037       -0.66874       -0.64953       -0.64109
       -0.63958       -0.59317       -0.58344       -0.57332       -0.56794
        0.06905        0.10676        0.11513        0.13645        0.17083
        0.18467        0.20159        0.22117        0.22961        0.25447
        0.28151        0.32324        0.35565        0.38825        0.39958
        0.46279        0.49838        0.50318        0.52571        0.53957
        0.55170        0.55984        0.58429        0.64348        0.83432
        0.84490        0.87376        0.89815        0.91499        0.93246
        0.95977        0.98601        1.02075        1.02703        1.03516
        1.05524        1.07425        1.08973        1.11033        1.15741
        1.18146        1.22239        1.28578        1.32447        1.38005
        1.39010        1.42382        1.43279        1.45815        1.46569
        1.47489        1.48227        1.50129        1.53530        1.60390
        1.63539        1.63938        1.66016        1.72946        1.76363
        1.77761        1.82066        1.82471        1.86900        1.91191
        1.97800        2.05266        2.10683        2.12124        2.14055
        2.16169        2.17766        2.25085        2.26584        2.30028
        2.31668        2.32027        2.33459        2.39526        2.53137
        2.54354        2.57723        2.58453        2.59104        2.62384
        2.69867        2.73516        2.74354        2.78523        2.79175
        2.79926        2.93051        2.97500        3.17091        3.26776
        3.28290        3.34358        3.37454        3.38867        3.40075
        3.41559        3.44306        3.45008        3.49548        3.52417
        3.55674        3.56850        3.59963        3.63409        3.88620
        3.90733        3.91201        3.92962        4.11392        4.14530
        4.16448        4.20234        5.05971        5.17113        5.20062
        5.27583        5.30434        5.31232        5.34796        5.66230
        5.73761        5.77071        5.82657        5.94464        5.97917
        5.98303        6.04251       36.95448       51.40426       51.43924
       51.44579       51.48336
 Time used in FCKEIG, thr_jaco:   2.26D-02  2.30D-02  1.69D-09
 CPU and wall times used in FCKEIG, THR_FCKEIG:   2.26D-02  2.30D-02  3.95D-07
 -----------------------------------------------------------------------------

 *** DIIS iteration number   11
 RDSUPM called. NFMAT, ISYMDM(1:NFMAT)           1           1

 ITDIIS, energy, error norm, change in energy, scr.thr., difden:
@ DIIS iter.  11    -361.204272101        6.92837D-06   -1.04D-10  -20    F

 (DIIS_RED) Control Parameters C2DIIS =         F NEVC =    8


 (DIIS_RED) B matrix:

               Column   1     Column   2     Column   3     Column   4     Column   5     Column   6
       1       0.00000001
       2      -0.00000000     0.00000000
       3       0.00000000     0.00000000     0.00000000
       4       0.00000033     0.00000004     0.00000003     0.00831803
       5       0.00000026    -0.00000007    -0.00000004     0.00069901     0.00095332
       6      -0.00000003     0.00000002     0.00000001     0.00057686     0.00002258     0.00011753
       7       0.00000008     0.00000000    -0.00000000     0.00000476     0.00004929     0.00000206
       8       0.00000001     0.00000001     0.00000000     0.00000162     0.00000014     0.00000160

               Column   7     Column   8
       7       0.00000529
       8       0.00000035     0.00000013
    ==== End of matrix output ====

 DIIS C vector; C2DIIS = F, LAMBDA = -2.16D-11
   -0.075181   -0.036105    1.105229    0.000025   -0.000047   -0.000336    0.001874    0.004541
* Read MO coefficients from SIRIUS.RST with label "NEWORB  " and header info:  7Dec18  DIIS  11
      Virial theorem: -V/T =      2.003023
@    MULPOP   N      -0.36; H       0.31; H       0.31; H       0.26; H       0.30; O      -0.68; O      -0.64; O      -0.61; O      -0.66; H       0.34; 
@             H       0.39; H       0.35; H       0.33; H       0.37; H       0.30; H       0.36; H       0.33; 

 DIIS Fock eigenvalues in symmetry 1
      -20.64653      -20.63573      -20.61995      -20.61791      -15.70031
       -1.41025       -1.40391       -1.40126       -1.38881       -1.32719
       -0.80929       -0.80147       -0.77573       -0.76642       -0.75733
       -0.75064       -0.74036       -0.66874       -0.64953       -0.64109
       -0.63958       -0.59317       -0.58344       -0.57332       -0.56794
        0.06905        0.10676        0.11513        0.13645        0.17083
        0.18467        0.20159        0.22117        0.22961        0.25447
        0.28151        0.32324        0.35565        0.38825        0.39958
        0.46279        0.49838        0.50317        0.52571        0.53957
        0.55170        0.55984        0.58429        0.64348        0.83432
        0.84489        0.87376        0.89815        0.91498        0.93246
        0.95977        0.98601        1.02075        1.02703        1.03516
        1.05524        1.07425        1.08973        1.11033        1.15741
        1.18146        1.22239        1.28578        1.32447        1.38005
        1.39010        1.42382        1.43279        1.45815        1.46569
        1.47489        1.48227        1.50129        1.53530        1.60390
        1.63539        1.63938        1.66016        1.72946        1.76363
        1.77761        1.82066        1.82471        1.86900        1.91191
        1.97800        2.05266        2.10683        2.12124        2.14055
        2.16169        2.17766        2.25085        2.26584        2.30028
        2.31668        2.32027        2.33459        2.39526        2.53137
        2.54354        2.57723        2.58453        2.59104        2.62384
        2.69867        2.73516        2.74354        2.78523        2.79175
        2.79926        2.93051        2.97500        3.17091        3.26776
        3.28290        3.34358        3.37454        3.38867        3.40075
        3.41559        3.44306        3.45008        3.49548        3.52417
        3.55674        3.56850        3.59963        3.63409        3.88620
        3.90733        3.91201        3.92962        4.11392        4.14530
        4.16448        4.20234        5.05971        5.17113        5.20062
        5.27583        5.30434        5.31232        5.34796        5.66230
        5.73761        5.77071        5.82657        5.94464        5.97917
        5.98303        6.04251       36.95448       51.40426       51.43924
       51.44579       51.48336
 Time used in FCKEIG, thr_jaco:   2.40D-02  2.40D-02  3.42D-10
 CPU and wall times used in FCKEIG, THR_FCKEIG:   2.40D-02  2.40D-02  8.00D-08
 -----------------------------------------------------------------------------

 *** DIIS iteration number   12
 RDSUPM called. NFMAT, ISYMDM(1:NFMAT)           1           1

 ITDIIS, energy, error norm, change in energy, scr.thr., difden:
@ DIIS iter.  12    -361.204272101        1.50022D-06   -2.39D-12  -20    F

 (DIIS_RED) Control Parameters C2DIIS =         F NEVC =    8


 (DIIS_RED) B matrix:

               Column   1     Column   2     Column   3     Column   4     Column   5     Column   6
       1     8.355354D-09
       2    -5.852747D-10   1.558613D-09
       3     3.701976D-10   1.085049D-12   4.800231D-11
       4     1.464109D-11   2.228815D-11   5.964277D-12   2.250647D-12
       5     2.550964D-07  -7.212455D-08  -3.748974D-08  -3.262338D-09   9.533224D-04
       6    -2.780675D-08   1.696344D-08   1.217561D-08   1.455858D-09   2.257583D-05   1.175287D-04
       7     7.819784D-08   2.243605D-09  -2.396397D-09  -2.892310D-10   4.929310D-05   2.064092D-06
       8     1.481017D-08   6.544844D-09   5.757631D-10   6.023528D-11   1.357691D-07   1.597425D-06

               Column   7     Column   8
       7     5.294147D-06
       8     3.544024D-07   1.262635D-07
    ==== End of matrix output ====

 DIIS C vector; C2DIIS = F, LAMBDA = -1.38D-12
    0.001133   -0.022691   -0.147458    1.167269    0.000006   -0.000020   -0.000191    0.001951
* Read MO coefficients from SIRIUS.RST with label "NEWORB  " and header info:  7Dec18  DIIS  12
      Virial theorem: -V/T =      2.003023
@    MULPOP   N      -0.36; H       0.31; H       0.31; H       0.26; H       0.30; O      -0.68; O      -0.64; O      -0.61; O      -0.66; H       0.34; 
@             H       0.39; H       0.35; H       0.33; H       0.37; H       0.30; H       0.36; H       0.33; 

 DIIS Fock eigenvalues in symmetry 1
      -20.64653      -20.63573      -20.61995      -20.61791      -15.70031
       -1.41025       -1.40391       -1.40126       -1.38881       -1.32719
       -0.80929       -0.80147       -0.77573       -0.76642       -0.75733
       -0.75064       -0.74036       -0.66874       -0.64953       -0.64109
       -0.63958       -0.59317       -0.58344       -0.57332       -0.56794
        0.06905        0.10676        0.11513        0.13645        0.17083
        0.18467        0.20159        0.22117        0.22961        0.25447
        0.28151        0.32324        0.35565        0.38825        0.39958
        0.46279        0.49838        0.50317        0.52571        0.53957
        0.55170        0.55984        0.58429        0.64348        0.83432
        0.84489        0.87376        0.89815        0.91498        0.93246
        0.95977        0.98601        1.02075        1.02703        1.03516
        1.05524        1.07425        1.08973        1.11033        1.15741
[...]
       3      -0.55123270     0.11201548     0.82679807
    ==== End of matrix output ====


 CCSD  Transition strength matrix for state nr. 13 of symmetry 1
 CCSD  excitation energy:15.18689318

 Gauge: length

               Column   1     Column   2     Column   3
       1     5.089814D-05  -1.055048D-05   5.512765D-05
       2    -1.055048D-05   2.186968D-06  -1.142731D-05
       3     5.512765D-05  -1.142731D-05   5.970478D-05
    ==== End of matrix output ====

 Principal values of diagonalized transition strength matrix:

             a.u.               
 1      -0.00000000
 2      -0.00000000
 3       0.00011279

 Principal axis of diagonalized transition strength matrix:


               Column   1     Column   2     Column   3
       1       0.70424795     0.22971503     0.67176323
       2      -0.18452479     0.97291347    -0.13924794
       3      -0.68555483    -0.02589189     0.72756043
    ==== End of matrix output ====


 CCSD   oscillator strength matrix for state nr. 13 of symmetry 1
 CCSD  excitation energy:15.18689318


               Column   1     Column   2     Column   3
       1     5.153231D-04  -1.068194D-04   5.581451D-04
       2    -1.068194D-04   2.214216D-05  -1.156968D-04
       3     5.581451D-04  -1.156968D-04   6.044867D-04
    ==== End of matrix output ====

 Principal values of diagonalized oscillator strength matrix:

             a.u.               
 1      -0.00000002
 2      -0.00000000
 3       0.00114197

 Principal axis of diagonalized oscillator strength matrix:


               Column   1     Column   2     Column   3
       1       0.70424795     0.22971503     0.67176323
       2      -0.18452479     0.97291347    -0.13924794
       3      -0.68555483    -0.02589189     0.72756043
    ==== End of matrix output ====


 CCSD  Transition strength matrix for state nr. 14 of symmetry 1
 CCSD  excitation energy:15.20665977

 Gauge: length

               Column   1     Column   2     Column   3
       1     8.574162D-05   2.435913D-05   1.890304D-06
       2     2.435913D-05   6.920224D-06   5.375860D-07
       3     1.890304D-06   5.375860D-07   4.003787D-08
    ==== End of matrix output ====

 Principal values of diagonalized transition strength matrix:

             a.u.               
 1      -0.00000000
 2       0.00000000
 3       0.00009270

 Principal axis of diagonalized transition strength matrix:


               Column   1     Column   2     Column   3
       1       0.06480500    -0.26627156     0.96171709
       2      -0.30192065     0.91334182     0.27322268
       3       0.95112787     0.30806845     0.02120376
    ==== End of matrix output ====


 CCSD   oscillator strength matrix for state nr. 14 of symmetry 1
 CCSD  excitation energy:15.20665977


               Column   1     Column   2     Column   3
       1     8.692291D-04   2.469473D-04   1.916347D-05
       2     2.469473D-04   7.015567D-05   5.449925D-06
       3     1.916347D-05   5.449925D-06   4.058949D-07
    ==== End of matrix output ====

 Principal values of diagonalized oscillator strength matrix:

             a.u.               
 1      -0.00000002
 2      -0.00000000
 3       0.00093981

 Principal axis of diagonalized oscillator strength matrix:


               Column   1     Column   2     Column   3
       1       0.06480500    -0.26627156     0.96171709
       2      -0.30192065     0.91334182     0.27322268
       3       0.95112787     0.30806845     0.02120376
    ==== End of matrix output ====


 CCSD  Transition strength matrix for state nr. 15 of symmetry 1
 CCSD  excitation energy:15.21513504

 Gauge: length

               Column   1     Column   2     Column   3
       1     3.623210D-04  -6.344109D-05   2.604275D-04
       2    -6.344109D-05   1.110809D-05  -4.559960D-05
       3     2.604275D-04  -4.559960D-05   1.871885D-04
    ==== End of matrix output ====

 Principal values of diagonalized transition strength matrix:

             a.u.               
 1      -0.00000000
 2       0.00000000
 3       0.00056062

 Principal axis of diagonalized transition strength matrix:


               Column   1     Column   2     Column   3
       1       0.53059976    -0.26865420     0.80392090
       2       0.60863962     0.78086076    -0.14076324
       3      -0.58993365     0.56398705     0.57783812
    ==== End of matrix output ====


 CCSD   oscillator strength matrix for state nr. 15 of symmetry 1
 CCSD  excitation energy:15.21513504


               Column   1     Column   2     Column   3
       1       0.00367518    -0.00064351     0.00264163
       2      -0.00064351     0.00011267    -0.00046254
       3       0.00264163    -0.00046254     0.00189873
    ==== End of matrix output ====

 Principal values of diagonalized oscillator strength matrix:

             a.u.               
 1      -0.00000000
 2      -0.00000000
 3       0.00568659

 Principal axis of diagonalized oscillator strength matrix:


               Column   1     Column   2     Column   3
       1       0.53059976    -0.26865420     0.80392090
       2       0.60863962     0.78086076    -0.14076324
       3      -0.58993365     0.56398705     0.57783812
    ==== End of matrix output ====

  Total time for    135 linear response residues:       5.02 seconds.
  

 *******************************************************************************
 *******************************************************************************
 *                                                                             *
 *                                                                             *
 *                   SUMMARY OF COUPLED CLUSTER CALCULATION                    *
 *                                                                             *
 *                                                                             *
 *******************************************************************************
 *******************************************************************************

                                                                                
                                                                                
            Total SCF   energy:                  -361.2042721009                
            Total MP2   energy:                  -362.3121753728                
            Total CCSD  energy:                  -362.3533694656                
                                                                                
                                                                                
            Total SCF   energy:                  -361.2042721009                
            Total RSTAR energy:                  -362.3533694656                
            Total CCSD  energy:                  -362.3534085205                
                                                                                
                                                                                
            Total SCF   energy:                  -361.2042721009                
            Total RSTAR energy:                  -362.3534085205                
            Total CCSD  energy:                  -362.3534100530                
                                                                                
                                                                                
            Total SCF   energy:                  -361.2042721009                
            Total RSTAR energy:                  -362.3534100530                
            Total CCSD  energy:                  -362.3534101226                
                                                                                
                                                                                
            Total SCF   energy:                  -361.2042721009                
            Total RSTAR energy:                  -362.3534101226                
            Total CCSD  energy:                  -362.3534101259                
            CCSD Total  energy:                  -362.7592605563                
            CCSD E(PE-CC)     :                    -0.4023438123                
                                                                                
                                                                                
 +=============================================================================+
 |  sym. | Exci.  |        CCSD       Excitation energies            | ||T1||  |
 |(spin, |        +------------------------------------------------------------+
 | spat) |        |     Hartree    |       eV.      |     cm-1       |    %    |
 +=============================================================================+
 | ^1A   |    1   |    14.9276457  |     406.20190  |   3276239.513  |  88.79  |
 | ^1A   |    2   |    14.9889686  |     407.87058  |   3289698.338  |  89.06  |
 | ^1A   |    3   |    15.0075868  |     408.37721  |   3293784.547  |  89.04  |
 | ^1A   |    4   |    15.0219723  |     408.76866  |   3296941.804  |  88.98  |
 | ^1A   |    5   |    15.0682639  |     410.02832  |   3307101.632  |  88.23  |
 | ^1A   |    6   |    15.0975852  |     410.82619  |   3313536.923  |  88.15  |
 | ^1A   |    7   |    15.1080070  |     411.10978  |   3315824.246  |  88.14  |
 | ^1A   |    8   |    15.1145379  |     411.28750  |   3317257.609  |  88.40  |
 | ^1A   |    9   |    15.1271102  |     411.62961  |   3320016.895  |  88.22  |
 | ^1A   |   10   |    15.1399205  |     411.97819  |   3322828.448  |  88.27  |
 | ^1A   |   11   |    15.1591865  |     412.50245  |   3327056.844  |  88.19  |
 | ^1A   |   12   |    15.1722982  |     412.85924  |   3329934.527  |  88.13  |
 | ^1A   |   13   |    15.1868932  |     413.25639  |   3333137.752  |  87.93  |
 | ^1A   |   14   |    15.2066598  |     413.79426  |   3337476.016  |  88.03  |
 | ^1A   |   15   |    15.2151350  |     414.02489  |   3339336.124  |  88.48  |
 +=============================================================================+
                                                                                
                                                                                
     Total energies in Hartree:                                                 
             1 ^1A       -347.4292710142                                        
             2 ^1A       -347.3679480949                                        
             3 ^1A       -347.3493299584                                        
             4 ^1A       -347.3349444382                                        
             5 ^1A       -347.2886528528                                        
             6 ^1A       -347.2593315096                                        
             7 ^1A       -347.2489096996                                        
             8 ^1A       -347.2423788184                                        
             9 ^1A       -347.2298065843                                        
            10 ^1A       -347.2169962079                                        
            11 ^1A       -347.1977302198                                        
            12 ^1A       -347.1846185276                                        
            13 ^1A       -347.1700235618                                        
            14 ^1A       -347.1502569779                                        
            15 ^1A       -347.1417817001                                        
                                                                                
                                                                                
 +=============================================================================+
 |  sym. | Exci.  |        CCSD       Length   Gauge Oscillator Strength       |
 |(spin, |        +------------------------------------------------------------+
 | spat) |        | Dipole Strength(a.u.) | Oscillator strength  | Direction   |
 +=============================================================================+
 | ^1A   |    1   |        0.0003199      |      0.0031834       |  (Y,Z)      |
 | ^1A   |    2   |        0.0035164      |      0.0351382       |  (Y,Z)      |
 | ^1A   |    3   |        0.0033247      |      0.0332636       |  (Y,Z)      |
 | ^1A   |    4   |        0.0031988      |      0.0320353       |  (Y,Z)      |
 | ^1A   |    5   |        0.0006007      |      0.0060342       |  (Y,Z)      |
 | ^1A   |    6   |        0.0003536      |      0.0035594       |  (Y,Z)      |
 | ^1A   |    7   |        0.0001055      |      0.0010628       |  (Y,Z)      |
 | ^1A   |    8   |        0.0005151      |      0.0051905       |  (Y,Z)      |
 | ^1A   |    9   |        0.0010560      |      0.0106496       |  (Y,Z)      |
 | ^1A   |   10   |        0.0005591      |      0.0056430       |  (Y,Z)      |
 | ^1A   |   11   |        0.0002784      |      0.0028132       |  (Y,Z)      |
 | ^1A   |   12   |        0.0001392      |      0.0014080       |  (Y,Z)      |
 | ^1A   |   13   |        0.0001128      |      0.0011420       |  (Y,Z)      |
 | ^1A   |   14   |        0.0000927      |      0.0009398       |  (Y,Z)      |
 | ^1A   |   15   |        0.0005606      |      0.0056866       |  (Y,Z)      |
 +=============================================================================+

  1 a.u. =        27.21138 eV.  
  1 a.u. =    219474.62934 cm-1.
  

 *******************************************************************************
 *******************************************************************************
 *                                                                             *
 *                                                                             *
 *                      END OF COUPLED CLUSTER CALCULATION                     *
 *                                                                             *
 *                                                                             *
 *******************************************************************************
 *******************************************************************************


 CPU and wall time for CC :   76316.380   84391.202

 
     Date and time (Linux)  : Sat Dec  8 14:05:05 2018
     Host name              : s73p28.deic.sdu.dk                      


                      .-------------------------------------.
                      | End of Coupled Cluster Section (CC) |
                      `-------------------------------------'

  Total CPU  time used in DALTON:  21 hours 13 minutes 46 seconds
  Total wall time used in DALTON:  23 hours 28 minutes 24 seconds

 
     Date and time (Linux)  : Sat Dec  8 14:05:05 2018
     Host name              : s73p28.deic.sdu.dk                      
  

 +---------------------------------------------------------+ 
 | List of selected calculated molecular properties (a.u.) | 
 +---------------------------------------------------------+ 

  Properties are read from unit number            4

 CCSD       properties :
 #  1 1 PE-CCSD  Ground state Energy =    -362.7592605563
 #  2 1 E(PE-CC) Ground state Energy =      -0.4023438123
 #  3 1 Sy: 1 Sp: 1 Exc:  1 E_tot:   -347.4292710142 w:     14.9276457298 E_grs:   -362.3569167440
 #  4 1 Exctot   Excited state Energy =    -347.4292710142
 #  5 1 Sy: 1 Sp: 1 Exc:  2 E_tot:   -347.3679480949 w:     14.9889686491 E_grs:   -362.3569167440
 #  6 1 Exctot   Excited state Energy =    -347.3679480949
 #  7 1 Sy: 1 Sp: 1 Exc:  3 E_tot:   -347.3493299584 w:     15.0075867856 E_grs:   -362.3569167440
 #  8 1 Exctot   Excited state Energy =    -347.3493299584
 #  9 1 Sy: 1 Sp: 1 Exc:  4 E_tot:   -347.3349444382 w:     15.0219723058 E_grs:   -362.3569167440
 # 10 1 Exctot   Excited state Energy =    -347.3349444382
 # 11 1 Sy: 1 Sp: 1 Exc:  5 E_tot:   -347.2886528528 w:     15.0682638912 E_grs:   -362.3569167440
 # 12 1 Exctot   Excited state Energy =    -347.2886528528
 # 13 1 Sy: 1 Sp: 1 Exc:  6 E_tot:   -347.2593315096 w:     15.0975852344 E_grs:   -362.3569167440
 # 14 1 Exctot   Excited state Energy =    -347.2593315096
 # 15 1 Sy: 1 Sp: 1 Exc:  7 E_tot:   -347.2489096996 w:     15.1080070444 E_grs:   -362.3569167440
 # 16 1 Exctot   Excited state Energy =    -347.2489096996
 # 17 1 Sy: 1 Sp: 1 Exc:  8 E_tot:   -347.2423788184 w:     15.1145379256 E_grs:   -362.3569167440
 # 18 1 Exctot   Excited state Energy =    -347.2423788184
 # 19 1 Sy: 1 Sp: 1 Exc:  9 E_tot:   -347.2298065843 w:     15.1271101597 E_grs:   -362.3569167440
 # 20 1 Exctot   Excited state Energy =    -347.2298065843
 # 21 1 Sy: 1 Sp: 1 Exc: 10 E_tot:   -347.2169962079 w:     15.1399205361 E_grs:   -362.3569167440
 # 22 1 Exctot   Excited state Energy =    -347.2169962079
 # 23 1 Sy: 1 Sp: 1 Exc: 11 E_tot:   -347.1977302198 w:     15.1591865242 E_grs:   -362.3569167440
 # 24 1 Exctot   Excited state Energy =    -347.1977302198
 # 25 1 Sy: 1 Sp: 1 Exc: 12 E_tot:   -347.1846185276 w:     15.1722982164 E_grs:   -362.3569167440
 # 26 1 Exctot   Excited state Energy =    -347.1846185276
 # 27 1 Sy: 1 Sp: 1 Exc: 13 E_tot:   -347.1700235618 w:     15.1868931822 E_grs:   -362.3569167440
 # 28 1 Exctot   Excited state Energy =    -347.1700235618
 # 29 1 Sy: 1 Sp: 1 Exc: 14 E_tot:   -347.1502569779 w:     15.2066597661 E_grs:   -362.3569167440
 # 30 1 Exctot   Excited state Energy =    -347.1502569779
 # 31 1 Sy: 1 Sp: 1 Exc: 15 E_tot:   -347.1417817001 w:     15.2151350439 E_grs:   -362.3569167440
 # 32 1 Exctot   Excited state Energy =    -347.1417817001
 # 33 1 |<O|XDIPLEN |i(14.927646)>| =     0.00570507
 # 35 1 |<O|XDIPLEN |i(14.988969)>| =     0.00883732
 # 37 1 |<O|XDIPLEN |i(15.007587)>| =     0.05698732
 # 39 1 |<O|XDIPLEN |i(15.021972)>| =     0.01108881
 # 41 1 |<O|XDIPLEN |i(15.068264)>| =     0.01758367
 # 43 1 |<O|XDIPLEN |i(15.097585)>| =     0.01132627
 # 45 1 |<O|XDIPLEN |i(15.108007)>| =     0.00031266
 # 47 1 |<O|XDIPLEN |i(15.114538)>| =     0.00864634
 # 49 1 |<O|XDIPLEN |i(15.127110)>| =     0.00791482
 # 51 1 |<O|XDIPLEN |i(15.139921)>| =     0.02256841
 # 53 1 |<O|XDIPLEN |i(15.159187)>| =     0.00081990
 # 55 1 |<O|XDIPLEN |i(15.172298)>| =     0.00004627
 # 57 1 |<O|XDIPLEN |i(15.186893)>| =     0.00713429
 # 59 1 |<O|XDIPLEN |i(15.206660)>| =     0.00925968
 # 61 1 |<O|XDIPLEN |i(15.215135)>| =     0.01903473
 # 63 1 |<O|YDIPLEN |i(14.927646)>| =     0.01292520
 # 65 1 |<O|YDIPLEN |i(14.988969)>| =     0.05852425
 # 67 1 |<O|YDIPLEN |i(15.007587)>| =     0.00790539
 # 69 1 |<O|YDIPLEN |i(15.021972)>| =     0.00589462
 # 71 1 |<O|YDIPLEN |i(15.068264)>| =     0.00298864
 # 73 1 |<O|YDIPLEN |i(15.097585)>| =     0.01380434
 # 75 1 |<O|YDIPLEN |i(15.108007)>| =     0.00576289
 # 77 1 |<O|YDIPLEN |i(15.114538)>| =     0.02055422
 # 79 1 |<O|YDIPLEN |i(15.127110)>| =     0.00807930
 # 81 1 |<O|YDIPLEN |i(15.139921)>| =     0.00697009
 # 83 1 |<O|YDIPLEN |i(15.159187)>| =     0.01338615
 # 85 1 |<O|YDIPLEN |i(15.172298)>| =     0.00663630
 # 87 1 |<O|YDIPLEN |i(15.186893)>| =     0.00147884
 # 89 1 |<O|YDIPLEN |i(15.206660)>| =     0.00263063
 # 91 1 |<O|YDIPLEN |i(15.215135)>| =     0.00333288
 # 93 1 |<O|ZDIPLEN |i(14.927646)>| =     0.01096719
 # 95 1 |<O|ZDIPLEN |i(14.988969)>| =     0.00363528
 # 97 1 |<O|ZDIPLEN |i(15.007587)>| =     0.00382502
 # 99 1 |<O|ZDIPLEN |i(15.021972)>| =     0.05514645
 #101 1 |<O|ZDIPLEN |i(15.068264)>| =     0.01680971
 #103 1 |<O|ZDIPLEN |i(15.097585)>| =     0.00589892
 #105 1 |<O|ZDIPLEN |i(15.108007)>| =     0.00849803
 #107 1 |<O|ZDIPLEN |i(15.114538)>| =     0.00422914
 #109 1 |<O|ZDIPLEN |i(15.127110)>| =     0.03046456
 #111 1 |<O|ZDIPLEN |i(15.139921)>| =     0.00108297
 #113 1 |<O|ZDIPLEN |i(15.159187)>| =     0.00992490
 #115 1 |<O|ZDIPLEN |i(15.172298)>| =     0.00975473
 #117 1 |<O|ZDIPLEN |i(15.186893)>| =     0.00772689
 #119 1 |<O|ZDIPLEN |i(15.206660)>| =     0.00020009
 #121 1 |<O|ZDIPLEN |i(15.215135)>| =     0.01368168

 THE_END   
