

     ************************************************************************
     *************** Dalton - An Electronic Structure Program ***************
     ************************************************************************

    This is output from DALTON release Dalton2017.alpha (2016)
         ( Web site: http://daltonprogram.org )

   ----------------------------------------------------------------------------

    NOTE:
     
    Dalton is an experimental code for the evaluation of molecular
    properties using (MC)SCF, DFT, CI, and CC wave functions.
    The authors accept no responsibility for the performance of
    the code or for the correctness of the results.
     
    The code (in whole or part) is provided under a licence and
    is not to be reproduced for further distribution without
    the written permission of the authors or their representatives.
     
    See the home page "http://daltonprogram.org" for further information.
     
    If results obtained with this code are published,
    the appropriate citations would be both of:
     
       K. Aidas, C. Angeli, K. L. Bak, V. Bakken, R. Bast,
       L. Boman, O. Christiansen, R. Cimiraglia, S. Coriani,
       P. Dahle, E. K. Dalskov, U. Ekstroem,
       T. Enevoldsen, J. J. Eriksen, P. Ettenhuber, B. Fernandez,
       L. Ferrighi, H. Fliegl, L. Frediani, K. Hald, A. Halkier,
       C. Haettig, H. Heiberg, T. Helgaker, A. C. Hennum,
       H. Hettema, E. Hjertenaes, S. Hoest, I.-M. Hoeyvik,
       M. F. Iozzi, B. Jansik, H. J. Aa. Jensen, D. Jonsson,
       P. Joergensen, J. Kauczor, S. Kirpekar,
       T. Kjaergaard, W. Klopper, S. Knecht, R. Kobayashi, H. Koch,
       J. Kongsted, A. Krapp, K. Kristensen, A. Ligabue,
       O. B. Lutnaes, J. I. Melo, K. V. Mikkelsen, R. H. Myhre,
       C. Neiss, C. B. Nielsen, P. Norman, J. Olsen,
       J. M. H. Olsen, A. Osted, M. J. Packer, F. Pawlowski,
       T. B. Pedersen, P. F. Provasi, S. Reine, Z. Rinkevicius,
       T. A. Ruden, K. Ruud, V. Rybkin, P. Salek, C. C. M. Samson,
       A. Sanchez de Meras, T. Saue, S. P. A. Sauer,
       B. Schimmelpfennig, K. Sneskov, A. H. Steindal,
       K. O. Sylvester-Hvid, P. R. Taylor, A. M. Teale,
       E. I. Tellgren, D. P. Tew, A. J. Thorvaldsen, L. Thoegersen,
       O. Vahtras, M. A. Watson, D. J. D. Wilson, M. Ziolkowski
       and H. Agren,
       "The Dalton quantum chemistry program system",
       WIREs Comput. Mol. Sci. 2014, 4:269–284 (doi: 10.1002/wcms.1172)
     
    and
     
       Dalton, a Molecular Electronic Structure Program,
       Release Dalton2017.alpha (2016), see http://daltonprogram.org
   ----------------------------------------------------------------------------

    Authors in alphabetical order (major contribution(s) in parenthesis):

  Kestutis Aidas,           Vilnius University,           Lithuania   (QM/MM)
  Celestino Angeli,         University of Ferrara,        Italy       (NEVPT2)
  Keld L. Bak,              UNI-C,                        Denmark     (AOSOPPA, non-adiabatic coupling, magnetic properties)
  Vebjoern Bakken,          University of Oslo,           Norway      (DALTON; geometry optimizer, symmetry detection)
  Radovan Bast,             UiT The Arctic U. of Norway,  Norway      (DALTON installation and execution frameworks)
  Pablo Baudin,             University of Valencia,       Spain       (Cholesky excitation energies)
  Linus Boman,              NTNU,                         Norway      (Cholesky decomposition and subsystems)
  Ove Christiansen,         Aarhus University,            Denmark     (CC module)
  Renzo Cimiraglia,         University of Ferrara,        Italy       (NEVPT2)
  Sonia Coriani,            University of Trieste,        Italy       (CC module, MCD in RESPONS)
  Janusz Cukras,            University of Trieste,        Italy       (MChD in RESPONS)
  Paal Dahle,               University of Oslo,           Norway      (Parallelization)
  Erik K. Dalskov,          UNI-C,                        Denmark     (SOPPA)
  Thomas Enevoldsen,        Univ. of Southern Denmark,    Denmark     (SOPPA)
  Janus J. Eriksen,         Aarhus University,            Denmark     (Polarizable embedding model, TDA)
  Rasmus Faber,             University of Copenhagen,     Denmark     (Vib.avg. NMR with SOPPA, parallel AO-SOPPA)
  Berta Fernandez,          U. of Santiago de Compostela, Spain       (doublet spin, ESR in RESPONS)
  Lara Ferrighi,            Aarhus University,            Denmark     (PCM Cubic response)
  Heike Fliegl,             University of Oslo,           Norway      (CCSD(R12))
  Luca Frediani,            UiT The Arctic U. of Norway,  Norway      (PCM)
  Bin Gao,                  UiT The Arctic U. of Norway,  Norway      (Gen1Int library)
  Christof Haettig,         Ruhr-University Bochum,       Germany     (CC module)
  Kasper Hald,              Aarhus University,            Denmark     (CC module)
  Asger Halkier,            Aarhus University,            Denmark     (CC module)
  Frederik Beyer Hansen,    University of Copenhagen,     Denmark     (Parallel AO-SOPPA)
  Erik D. Hedegaard,        Univ. of Southern Denmark,    Denmark     (Polarizable embedding model, QM/MM)
  Hanne Heiberg,            University of Oslo,           Norway      (geometry analysis, selected one-electron integrals)
  Trygve Helgaker,          University of Oslo,           Norway      (DALTON; ABACUS, ERI, DFT modules, London, and much more)
  Alf Christian Hennum,     University of Oslo,           Norway      (Parity violation)
  Hinne Hettema,            University of Auckland,       New Zealand (quadratic response in RESPONS; SIRIUS supersymmetry)
  Eirik Hjertenaes,         NTNU,                         Norway      (Cholesky decomposition)
  Pi A. B. Haase,           University of Copenhagen,     Denmark     (Triplet AO-SOPPA)
  Maria Francesca Iozzi,    University of Oslo,           Norway      (RPA)
  Brano Jansik              Technical Univ. of Ostrava    Czech Rep.  (DFT cubic response)
  Hans Joergen Aa. Jensen,  Univ. of Southern Denmark,    Denmark     (DALTON; SIRIUS, RESPONS, ABACUS modules, London, and much more)
  Dan Jonsson,              UiT The Arctic U. of Norway,  Norway      (cubic response in RESPONS module)
  Poul Joergensen,          Aarhus University,            Denmark     (RESPONS, ABACUS, and CC modules)
  Maciej Kaminski,          University of Warsaw,         Poland      (CPPh in RESPONS)
  Joanna Kauczor,           Linkoeping University,        Sweden      (Complex polarization propagator (CPP) module)
  Sheela Kirpekar,          Univ. of Southern Denmark,    Denmark     (Mass-velocity & Darwin integrals)
  Wim Klopper,              KIT Karlsruhe,                Germany     (R12 code in CC, SIRIUS, and ABACUS modules)
  Stefan Knecht,            ETH Zurich,                   Switzerland (Parallel CI and MCSCF)
  Rika Kobayashi,           Australian National Univ.,    Australia   (DIIS in CC, London in MCSCF)
  Henrik Koch,              NTNU,                         Norway      (CC module, Cholesky decomposition)
  Jacob Kongsted,           Univ. of Southern Denmark,    Denmark     (Polarizable embedding model, QM/MM)
  Andrea Ligabue,           University of Modena,         Italy       (CTOCD, AOSOPPA)
  Nanna H. List             Univ. of Southern Denmark,    Denmark     (Polarizable embedding model)
  Ola B. Lutnaes,           University of Oslo,           Norway      (DFT Hessian)
  Juan I. Melo,             University of Buenos Aires,   Argentina   (LRESC, Relativistic Effects on NMR Shieldings)
  Kurt V. Mikkelsen,        University of Copenhagen,     Denmark     (MC-SCRF and QM/MM)
  Rolf H. Myhre,            NTNU,                         Norway      (Cholesky, subsystems and ECC2)
  Christian Neiss,          Univ. Erlangen-Nuernberg,     Germany     (CCSD(R12))
  Christian B. Nielsen,     University of Copenhagen,     Denmark     (QM/MM)
  Patrick Norman,           Linkoeping University,        Sweden      (Cubic response and complex frequency response in RESPONS)
  Jeppe Olsen,              Aarhus University,            Denmark     (SIRIUS CI/density modules)
  Jogvan Magnus H. Olsen,   Univ. of Southern Denmark,    Denmark     (Polarizable embedding model, QM/MM)
  Anders Osted,             Copenhagen University,        Denmark     (QM/MM)
  Martin J. Packer,         University of Sheffield,      UK          (SOPPA)
  Filip Pawlowski,          Kazimierz Wielki University,  Poland      (CC3)
  Morten N. Pedersen,       Univ. of Southern Denmark,    Denmark     (Polarizable embedding model)
  Thomas B. Pedersen,       University of Oslo,           Norway      (Cholesky decomposition)
  Patricio F. Provasi,      University of Northeastern,   Argentina   (Analysis of coupling constants in localized orbitals)
  Zilvinas Rinkevicius,     KTH Stockholm,                Sweden      (open-shell DFT, ESR)
  Elias Rudberg,            KTH Stockholm,                Sweden      (DFT grid and basis info)
  Torgeir A. Ruden,         University of Oslo,           Norway      (Numerical derivatives in ABACUS)
  Kenneth Ruud,             UiT The Arctic U. of Norway,  Norway      (DALTON; ABACUS magnetic properties and much more)
  Pawel Salek,              KTH Stockholm,                Sweden      (DALTON; DFT code)
  Claire C. M. Samson       University of Karlsruhe       Germany     (Boys localization, r12 integrals in ERI)
  Alfredo Sanchez de Meras, University of Valencia,       Spain       (CC module, Cholesky decomposition)
  Trond Saue,               Paul Sabatier University,     France      (direct Fock matrix construction)
  Stephan P. A. Sauer,      University of Copenhagen,     Denmark     (SOPPA(CCSD), SOPPA prop., AOSOPPA, vibrational g-factors)
  Bernd Schimmelpfennig,    Forschungszentrum Karlsruhe,  Germany     (AMFI module)
  Kristian Sneskov,         Aarhus University,            Denmark     (Polarizable embedding model, QM/MM)
  Arnfinn H. Steindal,      UiT The Arctic U. of Norway,  Norway      (parallel QM/MM, Polarizable embedding model)
  Casper Steinmann,         Univ. of Southern Denmark,    Denmark     (QFIT, Polarizable embedding model)
  K. O. Sylvester-Hvid,     University of Copenhagen,     Denmark     (MC-SCRF)
  Peter R. Taylor,          VLSCI/Univ. of Melbourne,     Australia   (Symmetry handling ABACUS, integral transformation)
  Andrew M. Teale,          University of Nottingham,     England     (DFT-AC, DFT-D)
  David P. Tew,             University of Bristol,        England     (CCSD(R12))
  Olav Vahtras,             KTH Stockholm,                Sweden      (triplet response, spin-orbit, ESR, TDDFT, open-shell DFT)
  David J. Wilson,          La Trobe University,          Australia   (DFT Hessian and DFT magnetizabilities)
  Hans Agren,               KTH Stockholm,                Sweden      (SIRIUS module, RESPONS, MC-SCRF solvation model)
 --------------------------------------------------------------------------------

     Date and time (Linux)  : Sun Dec  9 12:19:02 2018
     Host name              : s71p21.deic.sdu.dk                      

 * Work memory size             :  2048000000 = 15.259 gigabytes.

 * Directories for basis set searches:
   1) /work/sdujk/reinholdt/ECP-Sonia/6-311++G**
   2) /gpfs/gss1/work/sdujk/reinholdt/Programs/dalton-private/pe-cvs/basis


Compilation information
-----------------------

 Who compiled             | reinholdt
 Host                     | fe1.deic.sdu.dk
 System                   | Linux-3.10.0-327.36.3.el7.x86_64
 CMake generator          | Unix Makefiles
 Processor                | x86_64
 64-bit integers          | ON
 MPI                      | OFF
 Fortran compiler         | /opt/sys/apps/intel/2018.05/compilers_and_librarie
                          | s_2018.3.222/linux/bin/intel64/ifort
 Fortran compiler version | ifort (IFORT) 18.0.3 20180410
 C compiler               | /opt/sys/apps/intel/2018.05/compilers_and_librarie
                          | s_2018.3.222/linux/bin/intel64/icc
 C compiler version       | icc (ICC) 18.0.3 20180410
 C++ compiler             | /opt/sys/apps/intel/2018.05/compilers_and_librarie
                          | s_2018.3.222/linux/bin/intel64/icpc
 C++ compiler version     | icpc (ICC) 18.0.3 20180410
 Static linking           | OFF
 Last Git revision        | 252a54078a0f9a1f0a59b3262fa4a57829155fe9
 Git branch               | pe/cc-cvs
 Configuration time       | 2018-12-09 12:09:40.474621


   Content of the .dal input file
 ----------------------------------

**DALTON
.RUN WAVE FUNCTIONS
.PEQM
**INTEGRALS
.DIPLEN
**WAVE FUNCTIONS
.CC
*PRINT
!To check the origin of excit
.PRINTL
   0 11
*SCF INP
.THRESH
1.0D-7
*CC INP
.CCSD
.THRLEQ
 1.0D-9
.THRENR
 1.0D-10
.FROIMP
4
0
.PRINT
 1
.MAX IT
 1200
.MAXRED
 1200
.MXLRV
1199
*PECC
*CCEXCI
.NCCEXC
 15
.CVSEPARA
1
1
*CCLRSD
.DIPOLE
**END OF DALTON INPUT


   Content of the .mol file
 ----------------------------

ATOMBASIS


Atomtypes=4 Charge=0 Nosymm Angstrom
   7.00000    1    Basis=6-311++G**
N          0.000000        0.000000        0.000000
   1.00000    3    Basis=6-311++G**
H         -0.113818       -0.008972        0.990350
H         -0.436619       -0.825462       -0.358274
H          0.942070       -0.009928       -0.222225
   8.00000    4    Basis=6-311++G**
O         -0.788956       -1.460330       -2.897238
O         -0.665608        2.186449       -1.219983
O         -0.170838        0.979297        3.239601
O          2.660495        1.061438        0.091784
   1.00000    8    Basis=6-311++G**
H         -1.169333       -1.104885       -3.740086
H         -1.557012       -1.895931       -2.459296
H         -0.317428        1.968377       -2.114621
H         -0.449851        1.315757       -0.653535
H         -0.932131        0.380297        3.520217
H          0.175663        1.568757        3.961276
H          2.882927        2.011081       -0.120185
H          2.559537        0.873746        1.069939


       *******************************************************************
       *********** Output from DALTON general input processing ***********
       *******************************************************************

 --------------------------------------------------------------------------------
   Overall default print level:    0
   Print level for DALTON.STAT:    1

    HERMIT 1- and 2-electron integral sections will be executed
    "Old" integral transformation used (limited to max 255 basis functions)
    Wave function sections will be executed (SIRIUS module)
    Environment is modeled using polarizable embedding scheme (PE library)
 --------------------------------------------------------------------------------


   ****************************************************************************
   *************** Output of molecule and basis set information ***************
   ****************************************************************************


    The two title cards from your ".mol" input:
    ------------------------------------------------------------------------
 1:                                                                         
 2:                                                                         
    ------------------------------------------------------------------------

  Coordinates are entered in Angstrom and converted to atomic units.
          - Conversion factor : 1 bohr = 0.52917721 A

  Atomic type no.    1
  --------------------
  Nuclear charge:   7.00000
  Number of symmetry independent centers:    1
  Number of basis sets to read;    2
  The basis set is "6-311++G**" from the basis set library.
  Basis set file used for this atomic type with Z =   7 :
     "/gpfs/gss1/work/sdujk/reinholdt/Programs/dalton-private/pe-cvs/basis/6-311++G**"

  Info about the basis set file: your basis has no documentation.
  Basis set: 6-311++G**                                                                      

  Atomic type no.    2
  --------------------
  Nuclear charge:   1.00000
  Number of symmetry independent centers:    3
  Number of basis sets to read;    2
  The basis set is "6-311++G**" from the basis set library.
  Basis set file used for this atomic type with Z =   1 :
     "/gpfs/gss1/work/sdujk/reinholdt/Programs/dalton-private/pe-cvs/basis/6-311++G**"

  Info about the basis set file: your basis has no documentation.
  Basis set: 6-311++G**                                                                      

  Atomic type no.    3
  --------------------
  Nuclear charge:   8.00000
  Number of symmetry independent centers:    4
  Number of basis sets to read;    2
  The basis set is "6-311++G**" from the basis set library.
  Basis set file used for this atomic type with Z =   8 :
     "/gpfs/gss1/work/sdujk/reinholdt/Programs/dalton-private/pe-cvs/basis/6-311++G**"

  Info about the basis set file: your basis has no documentation.
  Basis set: 6-311++G**                                                                      

  Atomic type no.    4
  --------------------
  Nuclear charge:   1.00000
  Number of symmetry independent centers:    8
  Number of basis sets to read;    2
  The basis set is "6-311++G**" from the basis set library.
  Basis set file used for this atomic type with Z =   1 :
     "/gpfs/gss1/work/sdujk/reinholdt/Programs/dalton-private/pe-cvs/basis/6-311++G**"

  Info about the basis set file: your basis has no documentation.
  Basis set: 6-311++G**                                                                      


                         SYMGRP: Point group information
                         -------------------------------

@    Point group: C1 


                                 Isotopic Masses
                                 ---------------

                           N          14.003074
                           H           1.007825
                           H           1.007825
                           H           1.007825
                           O          15.994915
                           O          15.994915
                           O          15.994915
                           O          15.994915
                           H           1.007825
                           H           1.007825
                           H           1.007825
                           H           1.007825
                           H           1.007825
                           H           1.007825
                           H           1.007825
                           H           1.007825

                       Total mass:    89.068809 amu
                       Natural abundance:  98.514 %

 Center-of-mass coordinates (a.u.):    0.385135    1.030312   -0.269382


  Atoms and basis sets
  --------------------

  Number of atom types :    4
  Total number of atoms:   16

  label    atoms   charge   prim   cont     basis
  ----------------------------------------------------------------------
  N           1    7.0000    35    22      [12s6p1d|5s4p1d]                                   
  H           3    1.0000     9     7      [6s1p|4s1p]                                        
  O           4    8.0000    35    22      [12s6p1d|5s4p1d]                                   
  H           8    1.0000     9     7      [6s1p|4s1p]                                        
  ----------------------------------------------------------------------
  total:     16   50.0000   274   187
  ----------------------------------------------------------------------
  Spherical harmonic basis used.

  Threshold for neglecting AO integrals:  1.00D-12


  Cartesian Coordinates (a.u.)
  ----------------------------

  Total number of coordinates:   48
  N       :     1  x   0.0000000000    2  y   0.0000000000    3  z   0.0000000000
  H       :     4  x  -0.2150848481    5  y  -0.0169546228    6  z   1.8714902679
  H       :     7  x  -0.8250903310    8  y  -1.5598971066    9  z  -0.6770397377
  H       :    10  x   1.7802542906   11  y  -0.0187612010   12  z  -0.4199443881
  O       :    13  x  -1.4909107647   14  y  -2.7596237521   15  z  -5.4749863389
  O       :    16  x  -1.2578168266   17  y   4.1317897963   18  z  -2.3054337471
  O       :    19  x  -0.3228370317   20  y   1.8506031250   21  z   6.1219586443
  O       :    22  x   5.0276069069   23  y   2.0058271187   24  z   0.1734466227
  H       :    25  x  -2.2097191189   26  y  -2.0879300496   27  z  -7.0677382239
  H       :    28  x  -2.9423262533   29  y  -3.5827903419   30  z  -4.6473959003
  H       :    31  x  -0.5998519844   32  y   3.7196934407   33  z  -3.9960545482
  H       :    34  x  -0.8500951871   35  y   2.4864203770   36  z  -1.2350021631
  H       :    37  x  -1.7614723026   38  y   0.7186571762   39  z   6.6522460305
  H       :    40  x   0.3319549603   41  y   2.9645210867   42  z   7.4857267455
  H       :    43  x   5.4479424683   44  y   3.8003923052   45  z  -0.2271167343
  H       :    46  x   4.8368239368   47  y   1.6511406428   48  z   2.0218916804


   Interatomic separations (in Angstrom):
   --------------------------------------

            N           H           H           H           O           O     
            ------      ------      ------      ------      ------      ------
 N     :    0.000000
 H     :    0.996909    0.000000
 H     :    1.000192    1.609237    0.000000
 H     :    0.967976    1.607868    1.607603    0.000000
 O     :    3.339012    4.204235    2.640746    3.500830    0.000000
 O     :    2.590743    3.163845    3.141112    2.899004    4.015893    0.000000
 O     :    3.388690    2.457449    4.033919    3.768470    6.632846    4.646494
 O     :    2.865887    3.106447    3.654457    2.049247    5.214622    3.748245
 H     :    4.071407    4.969121    3.471541    4.246446    0.990667    4.175828
 H     :    3.473756    4.188494    2.610647    3.847974    0.985622    4.358477
 H     :    2.906353    3.686762    3.302196    3.013501    3.548360    0.984460
 H     :    1.536454    2.137799    2.161521    1.970003    3.585506    1.060905
 H     :    3.661342    2.687265    4.091709    4.203662    6.677734    5.079637
 H     :    4.264219    3.376304    4.976513    4.536662    7.559436    5.285331
 H     :    3.517124    3.780791    4.372876    2.803893    5.765886    3.719195
 H     :    2.908510    2.816443    3.728814    2.250948    5.691995    4.167552

            O           O           H           H           H           H     
            ------      ------      ------      ------      ------      ------
 O     :    0.000000
 O     :    4.234613    0.000000
 H     :    7.352336    5.834704    0.000000
 H     :    6.531909    5.748165    1.554501    0.000000
 H     :    5.446784    3.815598    3.579500    4.072867    0.000000
 H     :    3.917596    3.208494    3.987977    3.847274    1.605684    0.000000
 H     :    1.008520    5.012491    7.414447    6.428551    5.886532    4.304403
 H     :    0.994153    4.626525    8.262466    7.498665    6.108957    4.663878
 H     :    4.655988    0.998113    6.263684    6.359972    3.771190    3.446063
 H     :    3.489057    1.001103    6.399671    6.088726    4.429059    3.496020

            H           H           H           H     
            ------      ------      ------      ------
 H     :    0.000000
 H     :    1.683502    0.000000
 H     :    5.519660    4.917647    0.000000
 H     :    4.294077    3.811263    1.677649    0.000000


  Max    interatomic separation is    8.2625 Angstrom (   15.6138 Bohr)
  between atoms   14 and    9, "H     " and "H     ".

  Min HX interatomic separation is    0.9680 Angstrom (    1.8292 Bohr)

  Min YX interatomic separation is    2.5907 Angstrom (    4.8958 Bohr)


  Bond distances (Angstrom):
  --------------------------

                  atom 1     atom 2       distance
                  ------     ------       --------
  bond distance:  H          N            0.996909
  bond distance:  H          N            1.000192
  bond distance:  H          N            0.967976
  bond distance:  H          O            0.990667
  bond distance:  H          O            0.985622
  bond distance:  H          O            0.984460
  bond distance:  H          O            1.060905
  bond distance:  H          O            1.008520
  bond distance:  H          O            0.994153
  bond distance:  H          O            0.998113
  bond distance:  H          O            1.001103


  Bond angles (degrees):
  ----------------------

                  atom 1     atom 2     atom 3         angle
                  ------     ------     ------         -----
  bond angle:     H          N          H            107.372
  bond angle:     H          N          H            109.821
  bond angle:     H          N          H            109.521
  bond angle:     H          O          H            103.733
  bond angle:     H          O          H            103.385
  bond angle:     H          O          H            114.411
  bond angle:     H          O          H            114.102




 Principal moments of inertia (u*A**2) and principal axes
 --------------------------------------------------------

   IA     235.130813          0.228877    0.332333    0.914970
   IB     523.144408          0.880921    0.329258   -0.339952
   IC     570.294776         -0.414239    0.883823   -0.217400


 Rotational constants
 --------------------

               A                   B                   C

           2149.3525            966.0411            886.1716 MHz
            0.071695            0.032224            0.029560 cm-1


@  Nuclear repulsion energy :  185.617522540833 Hartree

  Reading potential input file for polarizable embedding calculation
 
    .------------------------------------------------.
    | Information from polarizable embedding library |
    `------------------------------------------------´

      Number of classical sites:    177

      Multipole moments upto 0th order.

      Dipole-dipole polarizabilities.

      Iterative solver for induced moments will be used
      with convergence threshold: 1.0E-08
      Total charge of classical region:    0.0000
 


                     .---------------------------------------.
                     | Starting in Integral Section (HERMIT) |
                     `---------------------------------------'



 ***************************************************************************************
 ****************** Output from **INTEGRALS input processing (HERMIT) ******************
 ***************************************************************************************



    *************************************************************************
    ****************** Output from HERMIT input processing ******************
    *************************************************************************


 Default print level:        1

 * Nuclear model: Point charge

 Calculation of one- and two-electron Hamiltonian integrals.

 The following one-electron property integrals are calculated as requested:
          - overlap integrals
          - dipole length integrals

 Center of mass  (bohr):      0.385134694563      1.030311607711     -0.269381534666
 Operator center (bohr):      0.000000000000      0.000000000000      0.000000000000
 Gauge origin    (bohr):      0.000000000000      0.000000000000      0.000000000000
 Dipole origin   (bohr):      0.000000000000      0.000000000000      0.000000000000


     ************************************************************************
     ************************** Output from HERINT **************************
     ************************************************************************



                      Nuclear contribution to dipole moments
                      --------------------------------------

                 au               Debye          C m (/(10**-30)

      x     18.64167390        47.38240581       158.05069322
      y     49.90326201       126.84143196       423.09747484
      z    -12.11905552       -30.80356463      -102.74963165


  Time used in OVERLAP    is       0.13 seconds
  Time used in POPOVLP    is       0.18 seconds
  Time used in QUADRUP    is       0.15 seconds
  Time used in KINENE     is       0.11 seconds

 Threshold for neglecting two-electron integrals:  1.00D-12
 HERMIT - Number of two-electron integrals written:    86145446 ( 55.8% )
 HERMIT - Megabytes written:                            986.406

  Time used in TWOINT     is      16.99 seconds
  Total CPU  time used in HERMIT:  17.80 seconds
  Total wall time used in HERMIT:   9.49 seconds


                        .----------------------------------.
                        | End of Integral Section (HERMIT) |
                        `----------------------------------'



                   .--------------------------------------------.
                   | Starting in Wave Function Section (SIRIUS) |
                   `--------------------------------------------'

 INPUT: SIMPLE =  F
NCCEXCI for singlet:   15
 CCSD_INPUT: core-val requested
 Requested number of core orbs per sym
                     1
 Indices of requested core orbs
                     1

 *** Output from Huckel module :

     Using EWMO model:          T
     Using EHT  model:          F
     Number of Huckel orbitals each symmetry:   36

 EWMO - Energy Weighted Maximum Overlap - is a Huckel type method,
        which normally is better than Extended Huckel Theory.
 Reference: Linderberg and Ohrn, Propagators in Quantum Chemistry (Wiley, 1973)

 Huckel EWMO eigenvalues for symmetry :  1
          -20.684516     -20.684419     -20.684305     -20.684062     -15.675136
           -1.763698      -1.595028      -1.577440      -1.570817      -1.451688
           -0.814194      -0.806779      -0.800425      -0.778485      -0.754556
           -0.721361      -0.698201      -0.688679      -0.664139      -0.647023
           -0.616183      -0.610691      -0.608511      -0.585827      -0.501427
           -0.260081      -0.246580      -0.242815      -0.221036      -0.179724
           -0.179344      -0.178466      -0.174385      -0.151105      -0.142363
           -0.132313

 **********************************************************************
 *SIRIUS* a direct, restricted step, second order MCSCF program       *
 **********************************************************************

 
     Date and time (Linux)  : Sun Dec  9 12:19:12 2018
     Host name              : s71p21.deic.sdu.dk                      

 Title lines from ".mol" input file:
                                                                             
                                                                             

 Print level on unit LUPRI =   2 is   0
 Print level on unit LUW4  =   2 is  11

@    (Integral direct) CC calculation.

@    This is a combination run starting with
@              a restricted, closed shell Hartree-Fock calculation


 Initial molecular orbitals are obtained according to
 ".MOSTART EWMO  " input option

@    QM part is embedded in an environment :

@         Model: PE

     Wave function specification
     ============================

     For the specification of the Coupled Cluster: see later.


     Wave function environment is modeled using the
     polarizable embedding model (PE library).

@    Wave function type        --- PE-CC ---
@    Number of closed shell electrons          50
@    Number of electrons in active shells       0
@    Total charge of the molecule               0

@    Spin multiplicity and 2 M_S                1         0
@    Total number of symmetries                 1 (point group: C1 )
@    Reference state symmetry                   1 (irrep name : A  )

     Orbital specifications
     ======================
@    Abelian symmetry species          All |    1
@                                          |  A  
                                       --- |  ---
@    Occupied SCF orbitals              25 |   25
@    Secondary orbitals                162 |  162
@    Total number of orbitals          187 |  187
@    Number of basis functions         187 |  187

     Optimization information
     ========================
@    Number of configurations                 1
@    Number of orbital rotations           4050
     ------------------------------------------
@    Total number of variables             4051

     Maximum number of Fock   iterations      0
     Maximum number of DIIS   iterations     60
     Maximum number of QC-SCF iterations     60
     Threshold for SCF convergence     1.00D-07


 Changes of defaults for CC:
 ---------------------------


 -Implicit frozen core calculation
 -Excitation energies calculated
 -One-photon absorption strengths will be calculated
 -Oscillator strengths calculated
  
* Read MO coefficients from SIRIUS.RST with label "NEWORB  " and header info:  9Dec18  REORTHO 


 ***********************************************
 ***** DIIS acceleration of SCF iterations *****
 ***********************************************

 C1-DIIS algorithm; max error vectors =    8
 -----------------------------------------------------------------------------

 *** DIIS iteration number    1
 RDSUPM called. NFMAT, ISYMDM(1:NFMAT)                     1
                     1

Calculating AOSUPINT
     (Precalculated AO two-electron integrals are transformed to P-supermatrix elements.
      Threshold for discarding integrals :  1.00D-12 )
  CPU  time used in FORMSUP    is   7.73 seconds
  WALL time used in FORMSUP    is  12.31 seconds

 ITDIIS, energy, error norm, change in energy, scr.thr., difden:
@ DIIS iter.   1    -359.937446266        3.86984D+00   -3.60D+02  -20    F

 (DIIS_RED) Control Parameters C2DIIS =         F NEVC =    1


 (DIIS_RED) B matrix:

               Column   1
       1      14.97565223
    ==== End of matrix output ====

 DIIS C vector; C2DIIS = F, LAMBDA = -1.50D+01
    1.000000
* Read MO coefficients from SIRIUS.RST with label "NEWORB  " and header info:  9Dec18  DIIS   1
      Virial theorem: -V/T =      1.998736
@    MULPOP   N      -0.39; H       0.20; H       0.20; H       0.22; O      -0.68; O      -0.94; O      -0.67; O      -0.67; H       0.34; H       0.34; 
@             H       0.34; H       0.35; H       0.34; H       0.34; H       0.33; H       0.35; 
   1  Level shift: doubly occupied orbital energies shifted by -2.00D-01

 DIIS Fock eigenvalues in symmetry 1
      -20.74446      -20.72493      -20.69626      -20.45447      -16.07432
       -1.54592       -1.54215       -1.51421       -1.50474       -1.41440
       -1.00970       -0.99370       -0.94042       -0.93890       -0.89347
       -0.89200       -0.79665       -0.78257       -0.76361       -0.76296
       -0.75032       -0.74624       -0.71232       -0.66452       -0.62668
        0.02509        0.06015        0.07022        0.09197        0.10133
        0.11182        0.12067        0.12929        0.14248        0.14920
        0.16093        0.19927        0.20584        0.22320        0.23547
        0.24012        0.25051        0.26708        0.27349        0.27578
        0.28280        0.28736        0.30215        0.30367        0.31443
        0.31582        0.32432        0.32677        0.33392        0.34389
        0.34796        0.35854        0.36519        0.36945        0.37847
        0.39612        0.41918        0.42963        0.46409        0.47552
        0.49699        0.50402        0.64432        0.66023        0.68602
        0.68941        0.70211        0.71417        0.71882        0.74162
        0.76535        0.80132        0.85247        0.94323        0.97809
        1.02125        1.19781        1.20283        1.21489        1.22867
        1.23946        1.24826        1.25348        1.26319        1.27690
        1.28855        1.29375        1.32530        1.34106        1.36600
        1.39653        1.43363        1.46471        1.47209        1.51280
        1.54040        1.58146        1.58985        1.60489        1.64231
        1.67866        1.71334        1.72562        1.75402        1.75883
        1.77670        1.78325        1.79557        1.80368        1.85544
        1.88128        1.90577        1.91755        2.02383        2.07267
        2.19214        2.23052        2.26451        2.27078        2.28431
        2.32946        2.34844        2.40188        2.41882        2.45367
        2.64998        2.72380        2.73867        2.75083        2.76085
        2.79887        2.82758        2.85640        2.86696        2.88929
        2.90623        2.93079        3.03178        3.13394        3.19030
        3.35036        3.36173        3.38287        3.39971        3.46848
        3.48024        3.50981        3.51152        3.54451        3.56324
        3.57710        3.60379        3.67131        3.75553        4.08087
        4.08361        4.10265        4.11901        4.20117        4.22469
        4.31329        4.32878        4.69097        5.06152        5.16226
        5.48179        5.55942        5.56661        5.69382        5.81463
        5.84092        5.90702        6.07262        6.11496        6.12277
        6.12572        6.33132       36.81438       51.57250       51.59957
       51.62776       51.88011
 Time used in FCKEIG, thr_jaco:   2.64D-01  7.10D-02  1.52D-04
 CPU and wall times used in FCKEIG, THR_FCKEIG:   2.65D-01  7.10D-02  3.87D-02
 -----------------------------------------------------------------------------

 *** DIIS iteration number    2
 RDSUPM called. NFMAT, ISYMDM(1:NFMAT)                     1
                     1

 ITDIIS, energy, error norm, change in energy, scr.thr., difden:
@ DIIS iter.   2    -360.749311262        1.06840D+00   -8.12D-01  -20    F

 (DIIS_RED) Control Parameters C2DIIS =         F NEVC =    2


 (DIIS_RED) B matrix:

               Column   1     Column   2
       1      14.97565223
       2       0.65372419     1.14147331
    ==== End of matrix output ====

 DIIS C vector; C2DIIS = F, LAMBDA = -1.13D+00
    0.032934    0.967066
* Read MO coefficients from SIRIUS.RST with label "NEWORB  " and header info:  9Dec18  DIIS   2
      Virial theorem: -V/T =      2.005099
@    MULPOP   N      -0.89; H       0.30; H       0.30; H       0.35; O      -0.59; O      -0.83; O      -0.68; O      -0.61; H       0.29; H       0.30; 
@             H       0.30; H       0.44; H       0.37; H       0.32; H       0.33; H       0.30; 
   2  Level shift: doubly occupied orbital energies shifted by -1.00D-01

 DIIS Fock eigenvalues in symmetry 1
      -20.76660      -20.70493      -20.69336      -20.65740      -15.50918
       -1.44704       -1.44275       -1.43970       -1.41091       -1.23060
       -0.82809       -0.82161       -0.79777       -0.77311       -0.74439
       -0.72603       -0.71291       -0.68671       -0.68433       -0.66539
       -0.64409       -0.64011       -0.63471       -0.59633       -0.51791
        0.03345        0.07058        0.08213        0.09783        0.10388
        0.11816        0.12096        0.13722        0.14690        0.15096
        0.17281        0.21797        0.22247        0.24270        0.25302
        0.25848        0.26415        0.28017        0.28290        0.29241
        0.29813        0.30219        0.31182        0.31669        0.32539
        0.33477        0.34147        0.35281        0.35442        0.35862
        0.36168        0.36542        0.37573        0.38719        0.39783
        0.42060        0.42531        0.44637        0.48826        0.50720
        0.51926        0.52507        0.69231        0.69710        0.72127
        0.72407        0.73019        0.73646        0.74972        0.78139
        0.80194        0.82578        0.90340        1.06288        1.10009
        1.13951        1.21922        1.22611        1.24142        1.24742
        1.25089        1.26957        1.27145        1.28428        1.29168
        1.30154        1.32136        1.33312        1.36370        1.41526
        1.47864        1.48446        1.50313        1.51441        1.56005
        1.56775        1.58188        1.60656        1.62283        1.67697
        1.70652        1.74704        1.75556        1.77251        1.80069
        1.81361        1.82082        1.83165        1.84695        1.90176
        1.93718        1.96562        1.98294        2.11434        2.14687
        2.30281        2.30881        2.31861        2.33826        2.36366
        2.37634        2.39323        2.41300        2.45735        2.55539
        2.74186        2.78792        2.80410        2.81651        2.82960
        2.86946        2.89137        2.91874        2.93836        2.95910
        3.07441        3.08986        3.10928        3.25697        3.31689
        3.37012        3.39812        3.42230        3.47494        3.48047
        3.50010        3.50822        3.52429        3.57485        3.58182
        3.60508        3.64365        3.64527        3.69043        4.02318
        4.09568        4.12109        4.12650        4.22227        4.23444
        4.24550        4.32637        4.85270        5.33895        5.43443
        5.46966        5.47992        5.54694        5.54809        5.81220
        5.82125        5.86782        5.90000        6.11963        6.12745
        6.13232        6.15647       37.26998       51.47523       51.52170
       51.52661       51.56883
 Time used in FCKEIG, thr_jaco:   1.92D-01  4.90D-02  4.20D-05
 CPU and wall times used in FCKEIG, THR_FCKEIG:   1.93D-01  4.90D-02  1.07D-02
 -----------------------------------------------------------------------------

 *** DIIS iteration number    3
 RDSUPM called. NFMAT, ISYMDM(1:NFMAT)                     1
                     1

 ITDIIS, energy, error norm, change in energy, scr.thr., difden:
@ DIIS iter.   3    -360.818686894        4.22105D-01   -6.94D-02  -20    F

 (DIIS_RED) Control Parameters C2DIIS =         F NEVC =    3


 (DIIS_RED) B matrix:

               Column   1     Column   2     Column   3
       1      14.97565223
       2       0.65372419     1.14147331
       3       0.84932401    -0.02035824     0.17817244
    ==== End of matrix output ====

 DIIS C vector; C2DIIS = F, LAMBDA = -1.16D-01
   -0.049912    0.146047    0.903865
* Read MO coefficients from SIRIUS.RST with label "NEWORB  " and header info:  9Dec18  DIIS   3
      Virial theorem: -V/T =      2.002270
@    MULPOP   N      -0.88; H       0.29; H       0.28; H       0.35; O      -0.63; O      -0.96; O      -0.74; O      -0.66; H       0.32; H       0.32; 
@             H       0.38; H       0.53; H       0.40; H       0.34; H       0.35; H       0.32; 
   3  Level shift: doubly occupied orbital energies shifted by -5.00D-02

 DIIS Fock eigenvalues in symmetry 1
      -20.61902      -20.61163      -20.57668      -20.53597      -15.59895
       -1.38285       -1.37989       -1.34955       -1.33089       -1.21572
       -0.76197       -0.76061       -0.71700       -0.71042       -0.70504
       -0.69418       -0.62501       -0.61731       -0.61317       -0.60120
       -0.57419       -0.56217       -0.52662       -0.52343       -0.47914
        0.03490        0.07272        0.08359        0.09874        0.10627
        0.11803        0.12265        0.13831        0.14831        0.15156
        0.17490        0.22225        0.22677        0.24621        0.25483
        0.26320        0.26967        0.28440        0.28812        0.29771
        0.30297        0.30700        0.31588        0.32081        0.32814
        0.33894        0.34631        0.35609        0.35786        0.36196
        0.36625        0.36853        0.38045        0.39320        0.40105
        0.42626        0.42743        0.44992        0.49049        0.51000
        0.52148        0.53873        0.69943        0.70240        0.72821
        0.73016        0.73840        0.74376        0.75511        0.78464
        0.80741        0.83468        0.90831        1.04943        1.08458
        1.13143        1.23109        1.23905        1.25874        1.26199
        1.27718        1.28404        1.29045        1.30113        1.30928
        1.31925        1.34650        1.34704        1.35945        1.41619
        1.47453        1.49440        1.51485        1.52567        1.57228
        1.59083        1.59171        1.62343        1.63262        1.68813
        1.71687        1.76130        1.76709        1.79238        1.81232
        1.83057        1.83345        1.84212        1.85690        1.91044
        1.94594        1.97354        1.98821        2.11945        2.15277
        2.31168        2.32092        2.32644        2.33775        2.35722
        2.39279        2.40845        2.43536        2.47124        2.56019
        2.75016        2.79829        2.81450        2.82814        2.83719
        2.88023        2.90080        2.92740        2.94508        2.96799
        3.05554        3.07248        3.11246        3.26292        3.30155
        3.38751        3.41985        3.48710        3.49649        3.51767
        3.52373        3.54290        3.54788        3.55866        3.59351
        3.60815        3.62920        3.70646        3.71308        4.07544
        4.11346        4.13810        4.15038        4.24077        4.25986
        4.30575        4.34617        4.81855        5.28539        5.38498
        5.49705        5.56400        5.57203        5.58728        5.83179
        5.85154        5.92066        5.96893        6.14813        6.15094
        6.15597        6.24993       37.13478       51.55015       51.56570
       51.59950       51.65425
 Time used in FCKEIG, thr_jaco:   1.60D-01  4.00D-02  1.66D-05
 CPU and wall times used in FCKEIG, THR_FCKEIG:   1.61D-01  4.00D-02  4.22D-03
 -----------------------------------------------------------------------------

 *** DIIS iteration number    4
 RDSUPM called. NFMAT, ISYMDM(1:NFMAT)                     1
                     1

 ITDIIS, energy, error norm, change in energy, scr.thr., difden:
@ DIIS iter.   4    -360.830567248        1.21025D-01   -1.19D-02  -20    F

 (DIIS_RED) Control Parameters C2DIIS =         F NEVC =    4


 (DIIS_RED) B matrix:

               Column   1     Column   2     Column   3     Column   4
       1      14.97565223
       2       0.65372419     1.14147331
       3       0.84932401    -0.02035824     0.17817244
       4       0.02846462     0.10174622    -0.00392742     0.01464709
    ==== End of matrix output ====

 DIIS C vector; C2DIIS = F, LAMBDA = -6.24D-03
   -0.000751   -0.085393    0.051647    1.034497
* Read MO coefficients from SIRIUS.RST with label "NEWORB  " and header info:  9Dec18  DIIS   4
      Virial theorem: -V/T =      2.003512
@    MULPOP   N      -0.95; H       0.31; H       0.29; H       0.37; O      -0.64; O      -0.95; O      -0.76; O      -0.67; H       0.32; H       0.32; 
@             H       0.37; H       0.54; H       0.41; H       0.35; H       0.36; H       0.32; 
   4  Level shift: doubly occupied orbital energies shifted by -2.50D-02

 DIIS Fock eigenvalues in symmetry 1
      -20.60008      -20.59503      -20.55792      -20.55755      -15.56110
       -1.36150       -1.35833       -1.32825       -1.32164       -1.18624
       -0.74006       -0.73909       -0.69508       -0.68829       -0.68186
       -0.66529       -0.60085       -0.59968       -0.59046       -0.57672
       -0.54743       -0.53583       -0.50949       -0.49949       -0.45219
        0.03458        0.07277        0.08348        0.09825        0.10670
        0.11772        0.12296        0.13829        0.14912        0.15140
        0.17529        0.22344        0.22746        0.24685        0.25566
        0.26383        0.26939        0.28461        0.28839        0.29707
        0.30358        0.30709        0.31550        0.32012        0.32825
        0.33839        0.34647        0.35660        0.35818        0.36287
        0.36631        0.36866        0.37971        0.39280        0.40150
        0.42635        0.42778        0.45058        0.49118        0.51152
        0.52222        0.53792        0.69992        0.70262        0.72685
        0.72917        0.73675        0.74250        0.75448        0.78506
        0.80597        0.83272        0.90938        1.05304        1.08872
        1.13459        1.23066        1.23859        1.25843        1.26144
        1.27305        1.28273        1.28875        1.29817        1.30617
        1.31679        1.34245        1.34604        1.36272        1.41884
        1.47619        1.49186        1.51344        1.52464        1.57078
        1.58680        1.59035        1.61964        1.63264        1.68711
        1.71617        1.75901        1.76486        1.78873        1.81117
        1.82910        1.82965        1.84081        1.85554        1.90992
        1.94581        1.97261        1.98838        2.12194        2.15403
        2.31281        2.31790        2.32465        2.33795        2.36078
        2.39053        2.40439        2.42790        2.46769        2.56232
        2.75112        2.79567        2.81189        2.82741        2.83842
        2.87774        2.89947        2.92657        2.94557        2.96559
        3.06091        3.07764        3.11401        3.26472        3.30562
        3.38577        3.41864        3.47387        3.49475        3.51591
        3.52139        3.53466        3.54138        3.56345        3.59496
        3.60724        3.63143        3.69502        3.70859        4.06361
        4.11167        4.13611        4.14855        4.23934        4.25849
        4.29236        4.34486        4.82108        5.29331        5.39263
        5.49419        5.54699        5.56824        5.57664        5.82906
        5.84817        5.91731        5.94563        6.14447        6.14684
        6.15222        6.22734       37.14763       51.54430       51.55767
       51.59282       51.60916
 Time used in FCKEIG, thr_jaco:   2.44D-01  6.30D-02  4.75D-06
 CPU and wall times used in FCKEIG, THR_FCKEIG:   2.45D-01  6.30D-02  1.21D-03
 -----------------------------------------------------------------------------

 *** DIIS iteration number    5
 RDSUPM called. NFMAT, ISYMDM(1:NFMAT)                     1
                     1

 ITDIIS, energy, error norm, change in energy, scr.thr., difden:
@ DIIS iter.   5    -360.832125841        3.30741D-02   -1.56D-03  -20    F

 (DIIS_RED) Control Parameters C2DIIS =         F NEVC =    5


 (DIIS_RED) B matrix:

               Column   1     Column   2     Column   3     Column   4     Column   5
       1      14.97565223
       2       0.65372419     1.14147331
       3       0.84932401    -0.02035824     0.17817244
       4       0.02846462     0.10174622    -0.00392742     0.01464709
       5       0.01617144     0.01100889     0.00630426     0.00166192     0.00109390
    ==== End of matrix output ====

 DIIS C vector; C2DIIS = F, LAMBDA = -7.86D-04
    0.001842   -0.010691   -0.043243   -0.007456    1.059549
* Read MO coefficients from SIRIUS.RST with label "NEWORB  " and header info:  9Dec18  DIIS   5
      Virial theorem: -V/T =      2.003066
@    MULPOP   N      -0.96; H       0.31; H       0.29; H       0.38; O      -0.65; O      -0.97; O      -0.77; O      -0.68; H       0.33; H       0.33; 
@             H       0.39; H       0.55; H       0.42; H       0.36; H       0.36; H       0.33; 
   5  Level shift: doubly occupied orbital energies shifted by -1.25D-02

 DIIS Fock eigenvalues in symmetry 1
      -20.58764      -20.58164      -20.54581      -20.53549      -15.53734
       -1.34949       -1.34571       -1.31612       -1.30605       -1.17054
       -0.72859       -0.72726       -0.68074       -0.67629       -0.66719
       -0.65053       -0.58831       -0.58501       -0.57756       -0.56480
       -0.53397       -0.52195       -0.49295       -0.48610       -0.43607
        0.03443        0.07277        0.08341        0.09811        0.10694
        0.11759        0.12311        0.13829        0.14929        0.15138
        0.17536        0.22373        0.22765        0.24709        0.25590
        0.26395        0.26939        0.28471        0.28867        0.29707
        0.30379        0.30728        0.31547        0.32003        0.32823
        0.33840        0.34657        0.35671        0.35814        0.36309
        0.36643        0.36863        0.37966        0.39294        0.40165
        0.42666        0.42805        0.45088        0.49134        0.51218
        0.52245        0.53918        0.70000        0.70304        0.72640
        0.72884        0.73636        0.74226        0.75466        0.78539
        0.80570        0.83303        0.91024        1.05481        1.09067
        1.13647        1.23037        1.23889        1.25876        1.26147
        1.27416        1.28282        1.28885        1.29837        1.30714
        1.31775        1.34376        1.34632        1.36424        1.42019
        1.47730        1.49091        1.51298        1.52432        1.57054
        1.58763        1.59040        1.61969        1.63254        1.68705
        1.71600        1.75853        1.76469        1.78903        1.81096
        1.82867        1.83023        1.84024        1.85513        1.91048
        1.94585        1.97249        1.98944        2.12285        2.15471
        2.31309        2.31698        2.32386        2.33846        2.36248
        2.39012        2.40363        2.42843        2.46693        2.56374
        2.75211        2.79488        2.81071        2.82696        2.83857
        2.87746        2.89864        2.92631        2.94557        2.96472
        3.06341        3.08002        3.11468        3.26608        3.30807
        3.38534        3.41899        3.47699        3.49470        3.51531
        3.52273        3.53710        3.54090        3.56616        3.59634
        3.60724        3.63349        3.69778        3.70839        4.06711
        4.11117        4.13546        4.14855        4.23888        4.25866
        4.29591        4.34441        4.82644        5.29845        5.39765
        5.49413        5.55143        5.56823        5.57814        5.82872
        5.84861        5.91712        5.95044        6.14389        6.14693
        6.15167        6.23212       37.15861       51.54425       51.55851
       51.59279       51.61823
 Time used in FCKEIG, thr_jaco:   2.39D-01  6.00D-02  1.30D-06
 CPU and wall times used in FCKEIG, THR_FCKEIG:   2.39D-01  6.00D-02  3.31D-04
 -----------------------------------------------------------------------------

 *** DIIS iteration number    6
 RDSUPM called. NFMAT, ISYMDM(1:NFMAT)                     1
                     1

 ITDIIS, energy, error norm, change in energy, scr.thr., difden:
@ DIIS iter.   6    -360.832287804        1.35404D-02   -1.62D-04  -20    F

 (DIIS_RED) Control Parameters C2DIIS =         F NEVC =    6


 (DIIS_RED) B matrix:

               Column   1     Column   2     Column   3     Column   4     Column   5     Column   6
       1      14.97565223
       2       0.65372419     1.14147331
       3       0.84932401    -0.02035824     0.17817244
       4       0.02846462     0.10174622    -0.00392742     0.01464709
       5       0.01617144     0.01100889     0.00630426     0.00166192     0.00109390
       6      -0.00232480     0.00104353     0.00094006     0.00088400     0.00011767     0.00018334
    ==== End of matrix output ====

 DIIS C vector; C2DIIS = F, LAMBDA = -6.06D-05
    0.000736    0.010597   -0.016159   -0.153449    0.156344    1.001930
* Read MO coefficients from SIRIUS.RST with label "NEWORB  " and header info:  9Dec18  DIIS   6
      Virial theorem: -V/T =      2.003257
@    MULPOP   N      -0.95; H       0.31; H       0.29; H       0.38; O      -0.66; O      -0.97; O      -0.78; O      -0.69; H       0.33; H       0.33; 
@             H       0.39; H       0.55; H       0.42; H       0.36; H       0.36; H       0.33; 

 DIIS Fock eigenvalues in symmetry 1
      -20.57559      -20.56948      -20.53329      -20.52655      -15.53003
       -1.33730       -1.33338       -1.30366       -1.29480       -1.15982
       -0.71678       -0.71531       -0.66966       -0.66426       -0.65624
       -0.63953       -0.57636       -0.57367       -0.56550       -0.55264
       -0.52121       -0.50928       -0.48102       -0.47327       -0.42513
        0.03432        0.07272        0.08332        0.09803        0.10695
        0.11751        0.12312        0.13825        0.14931        0.15133
        0.17531        0.22368        0.22757        0.24703        0.25576
        0.26387        0.26925        0.28460        0.28864        0.29688
        0.30365        0.30716        0.31532        0.31989        0.32813
        0.33826        0.34645        0.35649        0.35795        0.36294
        0.36633        0.36846        0.37948        0.39268        0.40143
        0.42644        0.42780        0.45065        0.49112        0.51178
        0.52227        0.53830        0.69965        0.70259        0.72601
        0.72850        0.73611        0.74194        0.75424        0.78495
        0.80541        0.83256        0.90967        1.05366        1.08940
        1.13552        1.23008        1.23855        1.25858        1.26123
        1.27361        1.28257        1.28856        1.29796        1.30664
        1.31727        1.34309        1.34621        1.36325        1.41937
        1.47634        1.49033        1.51266        1.52393        1.57009
        1.58699        1.58989        1.61911        1.63217        1.68671
        1.71569        1.75797        1.76410        1.78844        1.81049
        1.82828        1.82956        1.83973        1.85461        1.90968
        1.94529        1.97192        1.98847        2.12211        2.15396
        2.31237        2.31657        2.32315        2.33754        2.36123
        2.38971        2.40301        2.42746        2.46660        2.56275
        2.75118        2.79434        2.81004        2.82639        2.83794
        2.87675        2.89801        2.92561        2.94483        2.96420
        3.06181        3.07849        3.11379        3.26505        3.30659
        3.38493        3.41865        3.47558        3.49440        3.51485
        3.52190        3.53587        3.54069        3.56449        3.59543
        3.60659        3.63220        3.69645        3.70809        4.06548
        4.11099        4.13500        4.14822        4.23846        4.25838
        4.29429        4.34426        4.82373        5.29576        5.39500
        5.49381        5.54983        5.56815        5.57757        5.82830
        5.84830        5.91693        5.94842        6.14340        6.14659
        6.15148        6.23000       37.15353       51.54380       51.55817
       51.59271       51.61480
 Time used in FCKEIG, thr_jaco:   2.03D-01  5.10D-02  5.32D-07
 CPU and wall times used in FCKEIG, THR_FCKEIG:   2.03D-01  5.10D-02  1.35D-04
 -----------------------------------------------------------------------------

 *** DIIS iteration number    7
 RDSUPM called. NFMAT, ISYMDM(1:NFMAT)                     1
                     1

 ITDIIS, energy, error norm, change in energy, scr.thr., difden:
@ DIIS iter.   7    -360.832310471        2.72721D-03   -2.27D-05  -20    F

 (DIIS_RED) Control Parameters C2DIIS =         F NEVC =    7


 (DIIS_RED) B matrix:

               Column   1     Column   2     Column   3     Column   4     Column   5     Column   6
       1      14.97565223
       2       0.65372419     1.14147331
       3       0.84932401    -0.02035824     0.17817244
       4       0.02846462     0.10174622    -0.00392742     0.01464709
       5       0.01617144     0.01100889     0.00630426     0.00166192     0.00109390
       6      -0.00232480     0.00104353     0.00094006     0.00088400     0.00011767     0.00018334
       7       0.00012627     0.00003317     0.00001449     0.00002976     0.00005794     0.00000789

               Column   7
       7       0.00000744
    ==== End of matrix output ====

 DIIS C vector; C2DIIS = F, LAMBDA = -2.27D-06
   -0.000285   -0.001080    0.006510    0.028546   -0.113528   -0.135526    1.215364
* Read MO coefficients from SIRIUS.RST with label "NEWORB  " and header info:  9Dec18  DIIS   7
      Virial theorem: -V/T =      2.003227
@    MULPOP   N      -0.96; H       0.31; H       0.29; H       0.38; O      -0.66; O      -0.98; O      -0.78; O      -0.69; H       0.33; H       0.33; 
@             H       0.39; H       0.55; H       0.42; H       0.36; H       0.36; H       0.33; 

 DIIS Fock eigenvalues in symmetry 1
      -20.57577      -20.56968      -20.53354      -20.52610      -15.52956
       -1.33736       -1.33342       -1.30372       -1.29458       -1.15967
       -0.71693       -0.71542       -0.66955       -0.66435       -0.65616
       -0.63947       -0.57650       -0.57357       -0.56561       -0.55280
       -0.52115       -0.50922       -0.48069       -0.47323       -0.42493
        0.03430        0.07271        0.08332        0.09804        0.10697
        0.11750        0.12314        0.13824        0.14932        0.15133
        0.17531        0.22369        0.22758        0.24704        0.25577
        0.26388        0.26925        0.28461        0.28867        0.29689
        0.30365        0.30718        0.31531        0.31989        0.32813
        0.33826        0.34645        0.35649        0.35793        0.36294
        0.36634        0.36846        0.37949        0.39270        0.40142
        0.42646        0.42781        0.45067        0.49112        0.51181
        0.52229        0.53842        0.69964        0.70265        0.72596
        0.72848        0.73609        0.74192        0.75425        0.78498
        0.80540        0.83261        0.90974        1.05374        1.08950
        1.13559        1.23005        1.23855        1.25856        1.26120
        1.27369        1.28254        1.28855        1.29794        1.30671
        1.31731        1.34317        1.34620        1.36331        1.41941
        1.47643        1.49023        1.51261        1.52388        1.57007
        1.58707        1.58989        1.61914        1.63215        1.68669
        1.71567        1.75792        1.76412        1.78846        1.81045
        1.82824        1.82961        1.83968        1.85457        1.90974
        1.94529        1.97191        1.98854        2.12214        2.15402
        2.31235        2.31649        2.32307        2.33753        2.36130
        2.38963        2.40292        2.42750        2.46651        2.56282
        2.75123        2.79429        2.80994        2.82635        2.83792
        2.87675        2.89793        2.92557        2.94481        2.96414
        3.06193        3.07861        3.11393        3.26516        3.30669
        3.38484        3.41860        3.47577        3.49433        3.51477
        3.52193        3.53602        3.54061        3.56460        3.59546
        3.60654        3.63226        3.69664        3.70804        4.06570
        4.11090        4.13491        4.14816        4.23839        4.25833
        4.29451        4.34419        4.82402        5.29598        5.39522
        5.49371        5.55003        5.56803        5.57754        5.82819
        5.84820        5.91681        5.94868        6.14329        6.14648
        6.15135        6.23029       37.15399       51.54362       51.55797
       51.59248       51.61523
 Time used in FCKEIG, thr_jaco:   2.41D-01  6.00D-02  1.07D-07
 CPU and wall times used in FCKEIG, THR_FCKEIG:   2.41D-01  6.00D-02  2.73D-05
 -----------------------------------------------------------------------------

 *** DIIS iteration number    8
 RDSUPM called. NFMAT, ISYMDM(1:NFMAT)                     1
                     1

 ITDIIS, energy, error norm, change in energy, scr.thr., difden:
@ DIIS iter.   8    -360.832311564        5.71614D-04   -1.09D-06  -20    F

 (DIIS_RED) Control Parameters C2DIIS =         F NEVC =    8


 (DIIS_RED) B matrix:

               Column   1     Column   2     Column   3     Column   4     Column   5     Column   6
       1      14.97565223
       2       0.65372419     1.14147331
       3       0.84932401    -0.02035824     0.17817244
       4       0.02846462     0.10174622    -0.00392742     0.01464709
       5       0.01617144     0.01100889     0.00630426     0.00166192     0.00109390
       6      -0.00232480     0.00104353     0.00094006     0.00088400     0.00011767     0.00018334
       7       0.00012627     0.00003317     0.00001449     0.00002976     0.00005794     0.00000789
       8       0.00026226    -0.00001315     0.00000277     0.00000340     0.00000131     0.00000260

               Column   7     Column   8
       7       0.00000744
       8       0.00000069     0.00000033
    ==== End of matrix output ====

 DIIS C vector; C2DIIS = F, LAMBDA = -2.44D-07
   -0.000040   -0.000245    0.000356    0.003456    0.000814   -0.029713   -0.055355    1.080728
* Read MO coefficients from SIRIUS.RST with label "NEWORB  " and header info:  9Dec18  DIIS   8
      Virial theorem: -V/T =      2.003237
@    MULPOP   N      -0.95; H       0.31; H       0.29; H       0.38; O      -0.66; O      -0.98; O      -0.78; O      -0.69; H       0.33; H       0.33; 
@             H       0.39; H       0.55; H       0.42; H       0.36; H       0.36; H       0.33; 

 DIIS Fock eigenvalues in symmetry 1
      -20.57569      -20.56952      -20.53338      -20.52616      -15.52956
       -1.33733       -1.33335       -1.30365       -1.29461       -1.15967
       -0.71690       -0.71537       -0.66957       -0.66430       -0.65617
       -0.63948       -0.57651       -0.57359       -0.56558       -0.55277
       -0.52111       -0.50916       -0.48069       -0.47316       -0.42495
        0.03430        0.07271        0.08331        0.09804        0.10697
        0.11750        0.12314        0.13824        0.14932        0.15133
        0.17531        0.22369        0.22759        0.24704        0.25577
        0.26388        0.26926        0.28461        0.28867        0.29689
        0.30365        0.30718        0.31531        0.31990        0.32814
        0.33827        0.34645        0.35649        0.35793        0.36294
        0.36634        0.36846        0.37949        0.39270        0.40142
        0.42646        0.42781        0.45067        0.49112        0.51181
        0.52229        0.53840        0.69965        0.70264        0.72596
        0.72849        0.73611        0.74193        0.75426        0.78498
        0.80541        0.83261        0.90973        1.05374        1.08949
        1.13559        1.23007        1.23857        1.25859        1.26122
        1.27369        1.28256        1.28857        1.29795        1.30672
        1.31732        1.34317        1.34623        1.36331        1.41941
        1.47642        1.49023        1.51263        1.52389        1.57008
        1.58707        1.58990        1.61914        1.63216        1.68671
        1.71569        1.75792        1.76411        1.78846        1.81046
        1.82826        1.82961        1.83968        1.85458        1.90973
        1.94529        1.97192        1.98853        2.12214        2.15400
        2.31236        2.31652        2.32307        2.33753        2.36129
        2.38965        2.40293        2.42750        2.46654        2.56281
        2.75122        2.79430        2.80993        2.82635        2.83792
        2.87675        2.89793        2.92557        2.94480        2.96414
        3.06192        3.07860        3.11389        3.26514        3.30668
        3.38487        3.41865        3.47575        3.49439        3.51480
        3.52196        3.53601        3.54067        3.56460        3.59549
        3.60656        3.63229        3.69662        3.70809        4.06567
        4.11096        4.13494        4.14821        4.23842        4.25839
        4.29449        4.34426        4.82401        5.29597        5.39521
        5.49375        5.55002        5.56812        5.57761        5.82823
        5.84828        5.91690        5.94865        6.14333        6.14657
        6.15144        6.23025       37.15399       51.54370       51.55813
       51.59264       51.61517
 Time used in FCKEIG, thr_jaco:   1.40D-01  3.50D-02  2.25D-08
 CPU and wall times used in FCKEIG, THR_FCKEIG:   1.40D-01  3.60D-02  5.72D-06
 -----------------------------------------------------------------------------

 *** DIIS iteration number    9
 RDSUPM called. NFMAT, ISYMDM(1:NFMAT)                     1
                     1

 ITDIIS, energy, error norm, change in energy, scr.thr., difden:
@ DIIS iter.   9    -360.832311602        2.39370D-04   -3.77D-08  -20    F

 (DIIS_RED) Control Parameters C2DIIS =         F NEVC =    8


 (DIIS_RED) B matrix:

               Column   1     Column   2     Column   3     Column   4     Column   5     Column   6
       1       0.00000006
       2      -0.00001318     1.14147331
       3       0.00000028    -0.02035824     0.17817244
       4       0.00000075     0.10174622    -0.00392742     0.01464709
       5       0.00000038     0.01100889     0.00630426     0.00166192     0.00109390
       6       0.00000031     0.00104353     0.00094006     0.00088400     0.00011767     0.00018334
       7       0.00000022     0.00003317     0.00001449     0.00002976     0.00005794     0.00000789
       8       0.00000000    -0.00001315     0.00000277     0.00000340     0.00000131     0.00000260

               Column   7     Column   8
       7       0.00000744
       8       0.00000069     0.00000033
    ==== End of matrix output ====

 DIIS C vector; C2DIIS = F, LAMBDA = -2.63D-08
    0.831003    0.000073   -0.000356   -0.001696    0.008790    0.003658   -0.110949    0.269477
* Read MO coefficients from SIRIUS.RST with label "NEWORB  " and header info:  9Dec18  DIIS   9
      Virial theorem: -V/T =      2.003240
@    MULPOP   N      -0.95; H       0.31; H       0.29; H       0.38; O      -0.66; O      -0.98; O      -0.78; O      -0.69; H       0.33; H       0.33; 
@             H       0.39; H       0.55; H       0.42; H       0.36; H       0.36; H       0.33; 

 DIIS Fock eigenvalues in symmetry 1
      -20.57572      -20.56959      -20.53345      -20.52614      -15.52958
       -1.33734       -1.33338       -1.30367       -1.29460       -1.15968
       -0.71691       -0.71539       -0.66957       -0.66432       -0.65618
       -0.63949       -0.57652       -0.57359       -0.56561       -0.55279
       -0.52112       -0.50918       -0.48067       -0.47318       -0.42495
        0.03430        0.07271        0.08331        0.09804        0.10697
        0.11750        0.12314        0.13824        0.14932        0.15133
        0.17531        0.22369        0.22759        0.24704        0.25577
        0.26388        0.26926        0.28461        0.28867        0.29688
        0.30365        0.30718        0.31531        0.31989        0.32814
        0.33827        0.34645        0.35649        0.35793        0.36294
        0.36634        0.36846        0.37949        0.39270        0.40142
        0.42646        0.42781        0.45067        0.49112        0.51181
        0.52229        0.53840        0.69964        0.70264        0.72596
        0.72848        0.73610        0.74192        0.75425        0.78497
        0.80540        0.83261        0.90973        1.05373        1.08948
        1.13558        1.23006        1.23856        1.25858        1.26121
        1.27369        1.28255        1.28856        1.29795        1.30672
        1.31731        1.34317        1.34622        1.36330        1.41940
        1.47642        1.49023        1.51263        1.52389        1.57007
        1.58707        1.58989        1.61914        1.63215        1.68670
        1.71568        1.75792        1.76411        1.78846        1.81045
        1.82825        1.82960        1.83968        1.85457        1.90973
        1.94529        1.97192        1.98853        2.12213        2.15400
        2.31235        2.31651        2.32306        2.33752        2.36129
        2.38964        2.40292        2.42750        2.46653        2.56280
        2.75121        2.79430        2.80993        2.82635        2.83791
        2.87675        2.89793        2.92557        2.94480        2.96414
        3.06191        3.07859        3.11389        3.26513        3.30667
        3.38485        3.41862        3.47575        3.49437        3.51478
        3.52195        3.53601        3.54065        3.56459        3.59547
        3.60655        3.63227        3.69663        3.70807        4.06568
        4.11094        4.13492        4.14819        4.23841        4.25836
        4.29450        4.34423        4.82400        5.29596        5.39520
        5.49373        5.55003        5.56808        5.57758        5.82821
        5.84824        5.91686        5.94866        6.14331        6.14653
        6.15140        6.23026       37.15397       51.54367       51.55806
       51.59257       51.61519
 Time used in FCKEIG, thr_jaco:   2.29D-01  5.80D-02  9.40D-09
 CPU and wall times used in FCKEIG, THR_FCKEIG:   2.30D-01  5.80D-02  2.39D-06
 -----------------------------------------------------------------------------

 *** DIIS iteration number   10
 RDSUPM called. NFMAT, ISYMDM(1:NFMAT)                     1
                     1

 ITDIIS, energy, error norm, change in energy, scr.thr., difden:
@ DIIS iter.  10    -360.832311606        6.53198D-05   -4.54D-09  -20    F

 (DIIS_RED) Control Parameters C2DIIS =         F NEVC =    8


 (DIIS_RED) B matrix:

               Column   1     Column   2     Column   3     Column   4     Column   5     Column   6
       1       0.00000006
       2      -0.00000000     0.00000000
       3       0.00000028    -0.00000025     0.17817244
       4       0.00000075    -0.00000047    -0.00392742     0.01464709
       5       0.00000038    -0.00000003     0.00630426     0.00166192     0.00109390
       6       0.00000031     0.00000000     0.00094006     0.00088400     0.00011767     0.00018334
       7       0.00000022     0.00000004     0.00001449     0.00002976     0.00005794     0.00000789
       8       0.00000000     0.00000003     0.00000277     0.00000340     0.00000131     0.00000260

               Column   7     Column   8
       7       0.00000744
       8       0.00000069     0.00000033
    ==== End of matrix output ====

 DIIS C vector; C2DIIS = F, LAMBDA = -1.34D-09
   -0.012076    1.132321    0.000022    0.000042   -0.000766    0.001585    0.011356   -0.132485
* Read MO coefficients from SIRIUS.RST with label "NEWORB  " and header info:  9Dec18  DIIS  10
      Virial theorem: -V/T =      2.003239
@    MULPOP   N      -0.95; H       0.31; H       0.29; H       0.38; O      -0.66; O      -0.98; O      -0.78; O      -0.69; H       0.33; H       0.33; 
@             H       0.39; H       0.55; H       0.42; H       0.36; H       0.36; H       0.33; 

 DIIS Fock eigenvalues in symmetry 1
      -20.57572      -20.56958      -20.53343      -20.52614      -15.52958
       -1.33734       -1.33337       -1.30367       -1.29460       -1.15968
       -0.71690       -0.71538       -0.66956       -0.66431       -0.65617
       -0.63949       -0.57652       -0.57358       -0.56561       -0.55279
       -0.52112       -0.50917       -0.48067       -0.47318       -0.42495
        0.03430        0.07271        0.08331        0.09804        0.10697
        0.11750        0.12314        0.13824        0.14932        0.15133
        0.17531        0.22369        0.22759        0.24704        0.25577
        0.26388        0.26926        0.28461        0.28867        0.29689
        0.30365        0.30718        0.31531        0.31989        0.32814
        0.33827        0.34645        0.35649        0.35793        0.36294
        0.36634        0.36846        0.37949        0.39270        0.40142
        0.42646        0.42781        0.45067        0.49112        0.51181
        0.52229        0.53840        0.69965        0.70264        0.72596
        0.72848        0.73610        0.74192        0.75425        0.78497
        0.80540        0.83261        0.90973        1.05373        1.08949
        1.13558        1.23006        1.23856        1.25858        1.26122
        1.27369        1.28255        1.28857        1.29795        1.30672
        1.31732        1.34317        1.34622        1.36330        1.41940
        1.47642        1.49023        1.51263        1.52389        1.57008
        1.58707        1.58990        1.61915        1.63215        1.68670
        1.71569        1.75792        1.76411        1.78846        1.81045
        1.82825        1.82961        1.83968        1.85457        1.90973
        1.94529        1.97192        1.98853        2.12213        2.15400
        2.31235        2.31651        2.32306        2.33753        2.36129
        2.38964        2.40292        2.42750        2.46653        2.56280
        2.75121        2.79430        2.80993        2.82635        2.83791
        2.87676        2.89793        2.92557        2.94480        2.96414
        3.06191        3.07859        3.11389        3.26514        3.30667
        3.38486        3.41863        3.47576        3.49437        3.51478
        3.52195        3.53602        3.54066        3.56459        3.59547
        3.60655        3.63227        3.69663        3.70808        4.06568
        4.11094        4.13493        4.14819        4.23841        4.25837
        4.29450        4.34424        4.82400        5.29596        5.39520
        5.49373        5.55003        5.56809        5.57759        5.82821
        5.84825        5.91687        5.94866        6.14331        6.14654
        6.15141        6.23026       37.15397       51.54367       51.55807
       51.59258       51.61519
 Time used in FCKEIG, thr_jaco:   1.48D-01  3.80D-02  2.57D-09
 CPU and wall times used in FCKEIG, THR_FCKEIG:   1.48D-01  3.80D-02  6.53D-07
 -----------------------------------------------------------------------------

 *** DIIS iteration number   11
 RDSUPM called. NFMAT, ISYMDM(1:NFMAT)                     1
                     1

 ITDIIS, energy, error norm, change in energy, scr.thr., difden:
@ DIIS iter.  11    -360.832311607        1.30681D-05   -5.25D-10  -20    F

 (DIIS_RED) Control Parameters C2DIIS =         F NEVC =    8


 (DIIS_RED) B matrix:

               Column   1     Column   2     Column   3     Column   4     Column   5     Column   6
       1       0.00000006
       2      -0.00000000     0.00000000
       3       0.00000000     0.00000000     0.00000000
       4       0.00000075    -0.00000047     0.00000015     0.01464709
       5       0.00000038    -0.00000003    -0.00000003     0.00166192     0.00109390
       6       0.00000031     0.00000000     0.00000002     0.00088400     0.00011767     0.00018334
       7       0.00000022     0.00000004    -0.00000000     0.00002976     0.00005794     0.00000789
       8       0.00000000     0.00000003     0.00000000     0.00000340     0.00000131     0.00000260

               Column   7     Column   8
       7       0.00000744
       8       0.00000069     0.00000033
    ==== End of matrix output ====

 DIIS C vector; C2DIIS = F, LAMBDA = -9.30D-11
   -0.042437   -0.035646    1.078989   -0.000001   -0.000113   -0.000031    0.003216   -0.003977
* Read MO coefficients from SIRIUS.RST with label "NEWORB  " and header info:  9Dec18  DIIS  11
      Virial theorem: -V/T =      2.003239
@    MULPOP   N      -0.95; H       0.31; H       0.29; H       0.38; O      -0.66; O      -0.98; O      -0.78; O      -0.69; H       0.33; H       0.33; 
@             H       0.39; H       0.55; H       0.42; H       0.36; H       0.36; H       0.33; 

 DIIS Fock eigenvalues in symmetry 1
[...]
       3      -0.39360117    -0.57564186     0.71673884
    ==== End of matrix output ====


 CCSD  Transition strength matrix for state nr. 13 of symmetry 1
 CCSD  excitation energy:14.98054566

 Gauge: length

               Column   1     Column   2     Column   3
       1     5.010622D-05  -5.149322D-05  -1.630322D-05
       2    -5.149322D-05   5.291373D-05   1.676064D-05
       3    -1.630322D-05   1.676064D-05   5.296906D-06
    ==== End of matrix output ====

 Principal values of diagonalized transition strength matrix:

             a.u.               
 1      -0.00000001
 2       0.00000000
 3       0.00010833

 Principal axis of diagonalized transition strength matrix:


               Column   1     Column   2     Column   3
       1      -0.18437793     0.70955049    -0.68010505
       2      -0.45524164     0.55161290     0.69891220
       3       0.87106821     0.43847613     0.22131168
    ==== End of matrix output ====


 CCSD   oscillator strength matrix for state nr. 13 of symmetry 1
 CCSD  excitation energy:14.98054566


               Column   1     Column   2     Column   3
       1     5.004124D-04  -5.142644D-04  -1.628207D-04
       2    -5.142644D-04   5.284511D-04   1.673891D-04
       3    -1.628207D-04   1.673891D-04   5.290036D-05
    ==== End of matrix output ====

 Principal values of diagonalized oscillator strength matrix:

             a.u.               
 1      -0.00000012
 2       0.00000000
 3       0.00108188

 Principal axis of diagonalized oscillator strength matrix:


               Column   1     Column   2     Column   3
       1      -0.18437793     0.70955049    -0.68010505
       2      -0.45524164     0.55161290     0.69891220
       3       0.87106821     0.43847613     0.22131168
    ==== End of matrix output ====


 CCSD  Transition strength matrix for state nr. 14 of symmetry 1
 CCSD  excitation energy:14.99696179

 Gauge: length

               Column   1     Column   2     Column   3
       1     1.747844D-04   1.303462D-04  -1.708833D-04
       2     1.303462D-04   9.717940D-05  -1.274033D-04
       3    -1.708833D-04  -1.274033D-04   1.670270D-04
    ==== End of matrix output ====

 Principal values of diagonalized transition strength matrix:

             a.u.               
 1      -0.00000003
 2       0.00000000
 3       0.00043902

 Principal axis of diagonalized transition strength matrix:


               Column   1     Column   2     Column   3
       1       0.77532789     0.02652206     0.63100178
       2      -0.40964897     0.78155041     0.47049621
       3       0.48068117     0.62327806    -0.61682256
    ==== End of matrix output ====


 CCSD   oscillator strength matrix for state nr. 14 of symmetry 1
 CCSD  excitation energy:14.99696179


               Column   1     Column   2     Column   3
       1       0.00174749     0.00130320    -0.00170849
       2       0.00130320     0.00097160    -0.00127377
       3      -0.00170849    -0.00127377     0.00166993
    ==== End of matrix output ====

 Principal values of diagonalized oscillator strength matrix:

             a.u.               
 1      -0.00000028
 2       0.00000000
 3       0.00438929

 Principal axis of diagonalized oscillator strength matrix:


               Column   1     Column   2     Column   3
       1       0.77532789     0.02652206     0.63100178
       2      -0.40964897     0.78155041     0.47049621
       3       0.48068117     0.62327806    -0.61682256
    ==== End of matrix output ====


 CCSD  Transition strength matrix for state nr. 15 of symmetry 1
 CCSD  excitation energy:15.00673937

 Gauge: length

               Column   1     Column   2     Column   3
       1     5.726850D-04  -3.258478D-04  -4.185920D-05
       2    -3.258478D-04   1.854017D-04   2.381717D-05
       3    -4.185920D-05   2.381717D-05   3.059480D-06
    ==== End of matrix output ====

 Principal values of diagonalized transition strength matrix:

             a.u.               
 1      -0.00000000
 2      -0.00000000
 3       0.00076115

 Principal axis of diagonalized transition strength matrix:


               Column   1     Column   2     Column   3
       1       0.00830146     0.49752696     0.86740879
       2      -0.11304451     0.86234488    -0.49354052
       3       0.99355525     0.09395869    -0.06340141
    ==== End of matrix output ====


 CCSD   oscillator strength matrix for state nr. 15 of symmetry 1
 CCSD  excitation energy:15.00673937


               Column   1     Column   2     Column   3
       1       0.00572942    -0.00325994    -0.00041878
       2      -0.00325994     0.00185485     0.00023828
       3      -0.00041878     0.00023828     0.00003061
    ==== End of matrix output ====

 Principal values of diagonalized oscillator strength matrix:

             a.u.               
 1      -0.00000000
 2       0.00000000
 3       0.00761488

 Principal axis of diagonalized oscillator strength matrix:


               Column   1     Column   2     Column   3
       1       0.00830146     0.49752696     0.86740879
       2      -0.11304451     0.86234488    -0.49354052
       3       0.99355525     0.09395869    -0.06340141
    ==== End of matrix output ====

  Total time for    135 linear response residues:      28.41 seconds.
  

 *******************************************************************************
 *******************************************************************************
 *                                                                             *
 *                                                                             *
 *                   SUMMARY OF COUPLED CLUSTER CALCULATION                    *
 *                                                                             *
 *                                                                             *
 *******************************************************************************
 *******************************************************************************

                                                                                
                                                                                
            Total SCF   energy:                  -360.8323116070                
            Total MP2   energy:                  -361.9579691083                
            Total CCSD  energy:                  -361.9920194939                
                                                                                
                                                                                
            Total SCF   energy:                  -360.8323116070                
            Total RSTAR energy:                  -361.9920194939                
            Total CCSD  energy:                  -361.9920796805                
                                                                                
                                                                                
            Total SCF   energy:                  -360.8323116070                
            Total RSTAR energy:                  -361.9920796805                
            Total CCSD  energy:                  -361.9920824292                
                                                                                
                                                                                
            Total SCF   energy:                  -360.8323116070                
            Total RSTAR energy:                  -361.9920824292                
            Total CCSD  energy:                  -361.9920825771                
                                                                                
                                                                                
            Total SCF   energy:                  -360.8323116070                
            Total RSTAR energy:                  -361.9920825771                
            Total CCSD  energy:                  -361.9920825856                
            CCSD Total  energy:                  -362.4419980478                
            CCSD E(PE-CC)     :                    -0.4457347785                
                                                                                
                                                                                
 +=============================================================================+
 |  sym. | Exci.  |        CCSD       Excitation energies            | ||T1||  |
 |(spin, |        +------------------------------------------------------------+
 | spat) |        |     Hartree    |       eV.      |     cm-1       |    %    |
 +=============================================================================+
 | ^1A   |    1   |    14.8131107  |     403.08525  |   3251101.982  |  88.55  |
 | ^1A   |    2   |    14.8617673  |     404.40926  |   3261780.874  |  88.49  |
 | ^1A   |    3   |    14.8800740  |     404.90741  |   3265798.719  |  88.65  |
 | ^1A   |    4   |    14.8894212  |     405.16176  |   3267850.203  |  88.55  |
 | ^1A   |    5   |    14.8950789  |     405.31572  |   3269091.930  |  88.47  |
 | ^1A   |    6   |    14.9157052  |     405.87698  |   3273618.865  |  88.37  |
 | ^1A   |    7   |    14.9368535  |     406.45246  |   3278260.385  |  88.44  |
 | ^1A   |    8   |    14.9389019  |     406.50820  |   3278709.968  |  88.38  |
 | ^1A   |    9   |    14.9460131  |     406.70171  |   3280270.691  |  88.33  |
 | ^1A   |   10   |    14.9545709  |     406.93457  |   3282148.895  |  88.33  |
 | ^1A   |   11   |    14.9584090  |     407.03902  |   3282991.275  |  88.31  |
 | ^1A   |   12   |    14.9702113  |     407.36017  |   3285581.575  |  88.47  |
 | ^1A   |   13   |    14.9805457  |     407.64138  |   3287849.705  |  88.34  |
 | ^1A   |   14   |    14.9969618  |     408.08809  |   3291452.631  |  88.34  |
 | ^1A   |   15   |    15.0067394  |     408.35415  |   3293598.561  |  88.57  |
 +=============================================================================+
                                                                                
                                                                                
     Total energies in Hartree:                                                 
             1 ^1A       -347.1831525605                                        
             2 ^1A       -347.1344959506                                        
             3 ^1A       -347.1161892978                                        
             4 ^1A       -347.1068420505                                        
             5 ^1A       -347.1011843268                                        
             6 ^1A       -347.0805580947                                        
             7 ^1A       -347.0594097694                                        
             8 ^1A       -347.0573613226                                        
             9 ^1A       -347.0502501436                                        
            10 ^1A       -347.0416924138                                        
            11 ^1A       -347.0378542489                                        
            12 ^1A       -347.0260519731                                        
            13 ^1A       -347.0157176143                                        
            14 ^1A       -346.9993014761                                        
            15 ^1A       -346.9895238970                                        
                                                                                
                                                                                
 +=============================================================================+
 |  sym. | Exci.  |        CCSD       Length   Gauge Oscillator Strength       |
 |(spin, |        +------------------------------------------------------------+
 | spat) |        | Dipole Strength(a.u.) | Oscillator strength  | Direction   |
 +=============================================================================+
 | ^1A   |    1   |        0.0005685      |      0.0056138       |  (Y,Z)      |
 | ^1A   |    2   |        0.0008380      |      0.0083032       |  (Y,Z)      |
 | ^1A   |    3   |        0.0013579      |      0.0134706       |  (Y,Z)      |
 | ^1A   |    4   |        0.0013854      |      0.0137520       |  (Y,Z)      |
 | ^1A   |    5   |        0.0008323      |      0.0082651       |  (Y,Z)      |
 | ^1A   |    6   |        0.0001907      |      0.0018962       |  (Y,Z)      |
 | ^1A   |    7   |        0.0007923      |      0.0078898       |  (Y,Z)      |
 | ^1A   |    8   |        0.0002092      |      0.0020832       |  (Y,Z)      |
 | ^1A   |    9   |        0.0000132      |      0.0001311       |  (Y,Z)      |
 | ^1A   |   10   |        0.0001070      |      0.0010671       |  (Y,Z)      |
 | ^1A   |   11   |        0.0000572      |      0.0005707       |  (Y,Z)      |
 | ^1A   |   12   |        0.0003897      |      0.0038893       |  (Y,Z)      |
 | ^1A   |   13   |        0.0001083      |      0.0010818       |  (Y,Z)      |
 | ^1A   |   14   |        0.0004390      |      0.0043890       |  (Y,Z)      |
 | ^1A   |   15   |        0.0007611      |      0.0076149       |  (Y,Z)      |
 +=============================================================================+

  1 a.u. =        27.21138 eV.  
  1 a.u. =    219474.62934 cm-1.
  

 *******************************************************************************
 *******************************************************************************
 *                                                                             *
 *                                                                             *
 *                      END OF COUPLED CLUSTER CALCULATION                     *
 *                                                                             *
 *                                                                             *
 *******************************************************************************
 *******************************************************************************


 CPU and wall time for CC :  446417.310  154825.830

 
     Date and time (Linux)  : Tue Dec 11 07:22:13 2018
     Host name              : s71p21.deic.sdu.dk                      


                      .-------------------------------------.
                      | End of Coupled Cluster Section (CC) |
                      `-------------------------------------'

  Total CPU  time used in DALTON: 124 hours  6 minutes  2 seconds
  Total wall time used in DALTON:  43 hours  3 minutes 11 seconds

 
     Date and time (Linux)  : Tue Dec 11 07:22:13 2018
     Host name              : s71p21.deic.sdu.dk                      
  

 +---------------------------------------------------------+ 
 | List of selected calculated molecular properties (a.u.) | 
 +---------------------------------------------------------+ 

  Properties are read from unit number                      4

 CCSD       properties :
 #  1 1 PE-CCSD  Ground state Energy =    -362.4419980478
 #  2 1 E(PE-CC) Ground state Energy =      -0.4457347785
 #  3 1 Sy: 1 Sp: 1 Exc:  1 E_tot:   -347.1831525605 w:     14.8131107088 E_grs:   -361.9962632693
 #  4 1 Exctot   Excited state Energy =    -347.1831525605
 #  5 1 Sy: 1 Sp: 1 Exc:  2 E_tot:   -347.1344959506 w:     14.8617673187 E_grs:   -361.9962632693
 #  6 1 Exctot   Excited state Energy =    -347.1344959506
 #  7 1 Sy: 1 Sp: 1 Exc:  3 E_tot:   -347.1161892978 w:     14.8800739715 E_grs:   -361.9962632693
 #  8 1 Exctot   Excited state Energy =    -347.1161892978
 #  9 1 Sy: 1 Sp: 1 Exc:  4 E_tot:   -347.1068420505 w:     14.8894212188 E_grs:   -361.9962632693
 # 10 1 Exctot   Excited state Energy =    -347.1068420505
 # 11 1 Sy: 1 Sp: 1 Exc:  5 E_tot:   -347.1011843268 w:     14.8950789425 E_grs:   -361.9962632693
 # 12 1 Exctot   Excited state Energy =    -347.1011843268
 # 13 1 Sy: 1 Sp: 1 Exc:  6 E_tot:   -347.0805580947 w:     14.9157051746 E_grs:   -361.9962632693
 # 14 1 Exctot   Excited state Energy =    -347.0805580947
 # 15 1 Sy: 1 Sp: 1 Exc:  7 E_tot:   -347.0594097694 w:     14.9368535000 E_grs:   -361.9962632693
 # 16 1 Exctot   Excited state Energy =    -347.0594097694
 # 17 1 Sy: 1 Sp: 1 Exc:  8 E_tot:   -347.0573613226 w:     14.9389019467 E_grs:   -361.9962632693
 # 18 1 Exctot   Excited state Energy =    -347.0573613226
 # 19 1 Sy: 1 Sp: 1 Exc:  9 E_tot:   -347.0502501436 w:     14.9460131257 E_grs:   -361.9962632693
 # 20 1 Exctot   Excited state Energy =    -347.0502501436
 # 21 1 Sy: 1 Sp: 1 Exc: 10 E_tot:   -347.0416924138 w:     14.9545708556 E_grs:   -361.9962632693
 # 22 1 Exctot   Excited state Energy =    -347.0416924138
 # 23 1 Sy: 1 Sp: 1 Exc: 11 E_tot:   -347.0378542489 w:     14.9584090205 E_grs:   -361.9962632693
 # 24 1 Exctot   Excited state Energy =    -347.0378542489
 # 25 1 Sy: 1 Sp: 1 Exc: 12 E_tot:   -347.0260519731 w:     14.9702112963 E_grs:   -361.9962632693
 # 26 1 Exctot   Excited state Energy =    -347.0260519731
 # 27 1 Sy: 1 Sp: 1 Exc: 13 E_tot:   -347.0157176143 w:     14.9805456551 E_grs:   -361.9962632693
 # 28 1 Exctot   Excited state Energy =    -347.0157176143
 # 29 1 Sy: 1 Sp: 1 Exc: 14 E_tot:   -346.9993014761 w:     14.9969617932 E_grs:   -361.9962632693
 # 30 1 Exctot   Excited state Energy =    -346.9993014761
 # 31 1 Sy: 1 Sp: 1 Exc: 15 E_tot:   -346.9895238970 w:     15.0067393724 E_grs:   -361.9962632693
 # 32 1 Exctot   Excited state Energy =    -346.9895238970
 # 33 1 |<O|XDIPLEN |i(14.813111)>| =     0.00324924
 # 35 1 |<O|XDIPLEN |i(14.861767)>| =     0.01058718
 # 37 1 |<O|XDIPLEN |i(14.880074)>| =     0.01834725
 # 39 1 |<O|XDIPLEN |i(14.889421)>| =     0.01971324
 # 41 1 |<O|XDIPLEN |i(14.895079)>| =     0.01781207
 # 43 1 |<O|XDIPLEN |i(14.915705)>| =     0.01322813
 # 45 1 |<O|XDIPLEN |i(14.936853)>| =     0.01738512
 # 47 1 |<O|XDIPLEN |i(14.938902)>| =     0.00751333
 # 49 1 |<O|XDIPLEN |i(14.946013)>| =     0.00100322
 # 51 1 |<O|XDIPLEN |i(14.954571)>| =     0.00456738
 # 53 1 |<O|XDIPLEN |i(14.958409)>| =     0.00640544
 # 55 1 |<O|XDIPLEN |i(14.970211)>| =     0.00859611
 # 57 1 |<O|XDIPLEN |i(14.980546)>| =     0.00707857
 # 59 1 |<O|XDIPLEN |i(14.996962)>| =     0.01322060
 # 61 1 |<O|XDIPLEN |i(15.006739)>| =     0.02393084
 # 63 1 |<O|YDIPLEN |i(14.813111)>| =     0.02034695
 # 65 1 |<O|YDIPLEN |i(14.861767)>| =     0.02277181
 # 67 1 |<O|YDIPLEN |i(14.880074)>| =     0.01578704
 # 69 1 |<O|YDIPLEN |i(14.889421)>| =     0.00564675
 # 71 1 |<O|YDIPLEN |i(14.895079)>| =     0.02181972
 # 73 1 |<O|YDIPLEN |i(14.915705)>| =     0.00392215
 # 75 1 |<O|YDIPLEN |i(14.936853)>| =     0.00097464
 # 77 1 |<O|YDIPLEN |i(14.938902)>| =     0.00863126
 # 79 1 |<O|YDIPLEN |i(14.946013)>| =     0.00295137
 # 81 1 |<O|YDIPLEN |i(14.954571)>| =     0.00734021
 # 83 1 |<O|YDIPLEN |i(14.958409)>| =     0.00053815
 # 85 1 |<O|YDIPLEN |i(14.970211)>| =     0.01075216
 # 87 1 |<O|YDIPLEN |i(14.980546)>| =     0.00727418
 # 89 1 |<O|YDIPLEN |i(14.996962)>| =     0.00985796
 # 91 1 |<O|YDIPLEN |i(15.006739)>| =     0.01361623
 # 93 1 |<O|ZDIPLEN |i(14.813111)>| =     0.01199601
 # 95 1 |<O|ZDIPLEN |i(14.861767)>| =     0.01440144
 # 97 1 |<O|ZDIPLEN |i(14.880074)>| =     0.02778602
 # 99 1 |<O|ZDIPLEN |i(14.889421)>| =     0.03106315
 #101 1 |<O|ZDIPLEN |i(14.895079)>| =     0.00624215
 #103 1 |<O|ZDIPLEN |i(14.915705)>| =     0.00056839
 #105 1 |<O|ZDIPLEN |i(14.936853)>| =     0.02211608
 #107 1 |<O|ZDIPLEN |i(14.938902)>| =     0.00884435
 #109 1 |<O|ZDIPLEN |i(14.946013)>| =     0.00185411
 #111 1 |<O|ZDIPLEN |i(14.954571)>| =     0.00568242
 #113 1 |<O|ZDIPLEN |i(14.958409)>| =     0.00398927
 #115 1 |<O|ZDIPLEN |i(14.970211)>| =     0.01414942
 #117 1 |<O|ZDIPLEN |i(14.980546)>| =     0.00230150
 #119 1 |<O|ZDIPLEN |i(14.996962)>| =     0.01292389
 #121 1 |<O|ZDIPLEN |i(15.006739)>| =     0.00174914

 THE_END   
