

     ************************************************************************
     *************** Dalton - An Electronic Structure Program ***************
     ************************************************************************

    This is output from DALTON release Dalton2017.alpha (2016)
         ( Web site: http://daltonprogram.org )

   ----------------------------------------------------------------------------

    NOTE:
     
    Dalton is an experimental code for the evaluation of molecular
    properties using (MC)SCF, DFT, CI, and CC wave functions.
    The authors accept no responsibility for the performance of
    the code or for the correctness of the results.
     
    The code (in whole or part) is provided under a licence and
    is not to be reproduced for further distribution without
    the written permission of the authors or their representatives.
     
    See the home page "http://daltonprogram.org" for further information.
     
    If results obtained with this code are published,
    the appropriate citations would be both of:
     
       K. Aidas, C. Angeli, K. L. Bak, V. Bakken, R. Bast,
       L. Boman, O. Christiansen, R. Cimiraglia, S. Coriani,
       P. Dahle, E. K. Dalskov, U. Ekstroem,
       T. Enevoldsen, J. J. Eriksen, P. Ettenhuber, B. Fernandez,
       L. Ferrighi, H. Fliegl, L. Frediani, K. Hald, A. Halkier,
       C. Haettig, H. Heiberg, T. Helgaker, A. C. Hennum,
       H. Hettema, E. Hjertenaes, S. Hoest, I.-M. Hoeyvik,
       M. F. Iozzi, B. Jansik, H. J. Aa. Jensen, D. Jonsson,
       P. Joergensen, J. Kauczor, S. Kirpekar,
       T. Kjaergaard, W. Klopper, S. Knecht, R. Kobayashi, H. Koch,
       J. Kongsted, A. Krapp, K. Kristensen, A. Ligabue,
       O. B. Lutnaes, J. I. Melo, K. V. Mikkelsen, R. H. Myhre,
       C. Neiss, C. B. Nielsen, P. Norman, J. Olsen,
       J. M. H. Olsen, A. Osted, M. J. Packer, F. Pawlowski,
       T. B. Pedersen, P. F. Provasi, S. Reine, Z. Rinkevicius,
       T. A. Ruden, K. Ruud, V. Rybkin, P. Salek, C. C. M. Samson,
       A. Sanchez de Meras, T. Saue, S. P. A. Sauer,
       B. Schimmelpfennig, K. Sneskov, A. H. Steindal,
       K. O. Sylvester-Hvid, P. R. Taylor, A. M. Teale,
       E. I. Tellgren, D. P. Tew, A. J. Thorvaldsen, L. Thoegersen,
       O. Vahtras, M. A. Watson, D. J. D. Wilson, M. Ziolkowski
       and H. Agren,
       "The Dalton quantum chemistry program system",
       WIREs Comput. Mol. Sci. 2014, 4:269–284 (doi: 10.1002/wcms.1172)
     
    and
     
       Dalton, a Molecular Electronic Structure Program,
       Release Dalton2017.alpha (2016), see http://daltonprogram.org
   ----------------------------------------------------------------------------

    Authors in alphabetical order (major contribution(s) in parenthesis):

  Kestutis Aidas,           Vilnius University,           Lithuania   (QM/MM)
  Celestino Angeli,         University of Ferrara,        Italy       (NEVPT2)
  Keld L. Bak,              UNI-C,                        Denmark     (AOSOPPA, non-adiabatic coupling, magnetic properties)
  Vebjoern Bakken,          University of Oslo,           Norway      (DALTON; geometry optimizer, symmetry detection)
  Radovan Bast,             UiT The Arctic U. of Norway,  Norway      (DALTON installation and execution frameworks)
  Pablo Baudin,             University of Valencia,       Spain       (Cholesky excitation energies)
  Linus Boman,              NTNU,                         Norway      (Cholesky decomposition and subsystems)
  Ove Christiansen,         Aarhus University,            Denmark     (CC module)
  Renzo Cimiraglia,         University of Ferrara,        Italy       (NEVPT2)
  Sonia Coriani,            University of Trieste,        Italy       (CC module, MCD in RESPONS)
  Janusz Cukras,            University of Trieste,        Italy       (MChD in RESPONS)
  Paal Dahle,               University of Oslo,           Norway      (Parallelization)
  Erik K. Dalskov,          UNI-C,                        Denmark     (SOPPA)
  Thomas Enevoldsen,        Univ. of Southern Denmark,    Denmark     (SOPPA)
  Janus J. Eriksen,         Aarhus University,            Denmark     (Polarizable embedding model, TDA)
  Rasmus Faber,             University of Copenhagen,     Denmark     (Vib.avg. NMR with SOPPA, parallel AO-SOPPA)
  Berta Fernandez,          U. of Santiago de Compostela, Spain       (doublet spin, ESR in RESPONS)
  Lara Ferrighi,            Aarhus University,            Denmark     (PCM Cubic response)
  Heike Fliegl,             University of Oslo,           Norway      (CCSD(R12))
  Luca Frediani,            UiT The Arctic U. of Norway,  Norway      (PCM)
  Bin Gao,                  UiT The Arctic U. of Norway,  Norway      (Gen1Int library)
  Christof Haettig,         Ruhr-University Bochum,       Germany     (CC module)
  Kasper Hald,              Aarhus University,            Denmark     (CC module)
  Asger Halkier,            Aarhus University,            Denmark     (CC module)
  Frederik Beyer Hansen,    University of Copenhagen,     Denmark     (Parallel AO-SOPPA)
  Erik D. Hedegaard,        Univ. of Southern Denmark,    Denmark     (Polarizable embedding model, QM/MM)
  Hanne Heiberg,            University of Oslo,           Norway      (geometry analysis, selected one-electron integrals)
  Trygve Helgaker,          University of Oslo,           Norway      (DALTON; ABACUS, ERI, DFT modules, London, and much more)
  Alf Christian Hennum,     University of Oslo,           Norway      (Parity violation)
  Hinne Hettema,            University of Auckland,       New Zealand (quadratic response in RESPONS; SIRIUS supersymmetry)
  Eirik Hjertenaes,         NTNU,                         Norway      (Cholesky decomposition)
  Pi A. B. Haase,           University of Copenhagen,     Denmark     (Triplet AO-SOPPA)
  Maria Francesca Iozzi,    University of Oslo,           Norway      (RPA)
  Brano Jansik              Technical Univ. of Ostrava    Czech Rep.  (DFT cubic response)
  Hans Joergen Aa. Jensen,  Univ. of Southern Denmark,    Denmark     (DALTON; SIRIUS, RESPONS, ABACUS modules, London, and much more)
  Dan Jonsson,              UiT The Arctic U. of Norway,  Norway      (cubic response in RESPONS module)
  Poul Joergensen,          Aarhus University,            Denmark     (RESPONS, ABACUS, and CC modules)
  Maciej Kaminski,          University of Warsaw,         Poland      (CPPh in RESPONS)
  Joanna Kauczor,           Linkoeping University,        Sweden      (Complex polarization propagator (CPP) module)
  Sheela Kirpekar,          Univ. of Southern Denmark,    Denmark     (Mass-velocity & Darwin integrals)
  Wim Klopper,              KIT Karlsruhe,                Germany     (R12 code in CC, SIRIUS, and ABACUS modules)
  Stefan Knecht,            ETH Zurich,                   Switzerland (Parallel CI and MCSCF)
  Rika Kobayashi,           Australian National Univ.,    Australia   (DIIS in CC, London in MCSCF)
  Henrik Koch,              NTNU,                         Norway      (CC module, Cholesky decomposition)
  Jacob Kongsted,           Univ. of Southern Denmark,    Denmark     (Polarizable embedding model, QM/MM)
  Andrea Ligabue,           University of Modena,         Italy       (CTOCD, AOSOPPA)
  Nanna H. List             Univ. of Southern Denmark,    Denmark     (Polarizable embedding model)
  Ola B. Lutnaes,           University of Oslo,           Norway      (DFT Hessian)
  Juan I. Melo,             University of Buenos Aires,   Argentina   (LRESC, Relativistic Effects on NMR Shieldings)
  Kurt V. Mikkelsen,        University of Copenhagen,     Denmark     (MC-SCRF and QM/MM)
  Rolf H. Myhre,            NTNU,                         Norway      (Cholesky, subsystems and ECC2)
  Christian Neiss,          Univ. Erlangen-Nuernberg,     Germany     (CCSD(R12))
  Christian B. Nielsen,     University of Copenhagen,     Denmark     (QM/MM)
  Patrick Norman,           Linkoeping University,        Sweden      (Cubic response and complex frequency response in RESPONS)
  Jeppe Olsen,              Aarhus University,            Denmark     (SIRIUS CI/density modules)
  Jogvan Magnus H. Olsen,   Univ. of Southern Denmark,    Denmark     (Polarizable embedding model, QM/MM)
  Anders Osted,             Copenhagen University,        Denmark     (QM/MM)
  Martin J. Packer,         University of Sheffield,      UK          (SOPPA)
  Filip Pawlowski,          Kazimierz Wielki University,  Poland      (CC3)
  Morten N. Pedersen,       Univ. of Southern Denmark,    Denmark     (Polarizable embedding model)
  Thomas B. Pedersen,       University of Oslo,           Norway      (Cholesky decomposition)
  Patricio F. Provasi,      University of Northeastern,   Argentina   (Analysis of coupling constants in localized orbitals)
  Zilvinas Rinkevicius,     KTH Stockholm,                Sweden      (open-shell DFT, ESR)
  Elias Rudberg,            KTH Stockholm,                Sweden      (DFT grid and basis info)
  Torgeir A. Ruden,         University of Oslo,           Norway      (Numerical derivatives in ABACUS)
  Kenneth Ruud,             UiT The Arctic U. of Norway,  Norway      (DALTON; ABACUS magnetic properties and much more)
  Pawel Salek,              KTH Stockholm,                Sweden      (DALTON; DFT code)
  Claire C. M. Samson       University of Karlsruhe       Germany     (Boys localization, r12 integrals in ERI)
  Alfredo Sanchez de Meras, University of Valencia,       Spain       (CC module, Cholesky decomposition)
  Trond Saue,               Paul Sabatier University,     France      (direct Fock matrix construction)
  Stephan P. A. Sauer,      University of Copenhagen,     Denmark     (SOPPA(CCSD), SOPPA prop., AOSOPPA, vibrational g-factors)
  Bernd Schimmelpfennig,    Forschungszentrum Karlsruhe,  Germany     (AMFI module)
  Kristian Sneskov,         Aarhus University,            Denmark     (Polarizable embedding model, QM/MM)
  Arnfinn H. Steindal,      UiT The Arctic U. of Norway,  Norway      (parallel QM/MM, Polarizable embedding model)
  Casper Steinmann,         Univ. of Southern Denmark,    Denmark     (QFIT, Polarizable embedding model)
  K. O. Sylvester-Hvid,     University of Copenhagen,     Denmark     (MC-SCRF)
  Peter R. Taylor,          VLSCI/Univ. of Melbourne,     Australia   (Symmetry handling ABACUS, integral transformation)
  Andrew M. Teale,          University of Nottingham,     England     (DFT-AC, DFT-D)
  David P. Tew,             University of Bristol,        England     (CCSD(R12))
  Olav Vahtras,             KTH Stockholm,                Sweden      (triplet response, spin-orbit, ESR, TDDFT, open-shell DFT)
  David J. Wilson,          La Trobe University,          Australia   (DFT Hessian and DFT magnetizabilities)
  Hans Agren,               KTH Stockholm,                Sweden      (SIRIUS module, RESPONS, MC-SCRF solvation model)
 --------------------------------------------------------------------------------

     Date and time (Linux)  : Sun Dec  9 12:19:02 2018
     Host name              : s71p21.deic.sdu.dk                      

 * Work memory size             :  2048000000 = 15.259 gigabytes.

 * Directories for basis set searches:
   1) /work/sdujk/reinholdt/ECP-Sonia/6-311++G**
   2) /gpfs/gss1/work/sdujk/reinholdt/Programs/dalton-private/pe-cvs/basis


Compilation information
-----------------------

 Who compiled             | reinholdt
 Host                     | fe1.deic.sdu.dk
 System                   | Linux-3.10.0-327.36.3.el7.x86_64
 CMake generator          | Unix Makefiles
 Processor                | x86_64
 64-bit integers          | ON
 MPI                      | OFF
 Fortran compiler         | /opt/sys/apps/intel/2018.05/compilers_and_librarie
                          | s_2018.3.222/linux/bin/intel64/ifort
 Fortran compiler version | ifort (IFORT) 18.0.3 20180410
 C compiler               | /opt/sys/apps/intel/2018.05/compilers_and_librarie
                          | s_2018.3.222/linux/bin/intel64/icc
 C compiler version       | icc (ICC) 18.0.3 20180410
 C++ compiler             | /opt/sys/apps/intel/2018.05/compilers_and_librarie
                          | s_2018.3.222/linux/bin/intel64/icpc
 C++ compiler version     | icpc (ICC) 18.0.3 20180410
 Static linking           | OFF
 Last Git revision        | 252a54078a0f9a1f0a59b3262fa4a57829155fe9
 Git branch               | pe/cc-cvs
 Configuration time       | 2018-12-09 12:09:40.474621


   Content of the .dal input file
 ----------------------------------

**DALTON
.RUN WAVE FUNCTIONS
.PEQM
**INTEGRALS
.DIPLEN
**WAVE FUNCTIONS
.CC
*PRINT
!To check the origin of excit
.PRINTL
   0 11
*SCF INP
.THRESH
1.0D-7
*CC INP
.CCSD
.THRLEQ
 1.0D-9
.THRENR
 1.0D-10
.FROIMP
4
0
.PRINT
 1
.MAX IT
 1200
.MAXRED
 1200
.MXLRV
1199
*PECC
*CCEXCI
.NCCEXC
 15
.CVSEPARA
1
1
*CCLRSD
.DIPOLE
**END OF DALTON INPUT


   Content of the .mol file
 ----------------------------

ATOMBASIS


Atomtypes=4 Charge=1 Nosymm Angstrom
   7.00000    1    Basis=6-311++G**
N          0.000000        0.000000        0.000000
   1.00000    4    Basis=6-311++G**
H         -0.986798        0.158192        0.209252
H          0.099905        0.008150       -1.036203
H          0.306136       -0.830246        0.456604
H          0.602571        0.778264        0.308939
   8.00000    4    Basis=6-311++G**
O         -2.851387        0.280971       -0.395421
O          1.557405        2.243639        0.898477
O          0.027701        0.430319       -2.700204
O          2.086789       -1.795203        1.452611
   1.00000    8    Basis=6-311++G**
H         -3.332311       -0.400096        0.142368
H         -3.514301        1.053183       -0.434516
H          1.432841        3.232280        1.052153
H          2.267997        2.159980        0.184844
H          0.867235        0.355314       -3.217866
H         -0.496919       -0.303537       -3.061090
H          1.766803       -2.435519        2.169424
H          2.362806       -0.979235        1.975913


       *******************************************************************
       *********** Output from DALTON general input processing ***********
       *******************************************************************

 --------------------------------------------------------------------------------
   Overall default print level:    0
   Print level for DALTON.STAT:    1

    HERMIT 1- and 2-electron integral sections will be executed
    "Old" integral transformation used (limited to max 255 basis functions)
    Wave function sections will be executed (SIRIUS module)
    Environment is modeled using polarizable embedding scheme (PE library)
 --------------------------------------------------------------------------------


   ****************************************************************************
   *************** Output of molecule and basis set information ***************
   ****************************************************************************


    The two title cards from your ".mol" input:
    ------------------------------------------------------------------------
 1:                                                                         
 2:                                                                         
    ------------------------------------------------------------------------

  Coordinates are entered in Angstrom and converted to atomic units.
          - Conversion factor : 1 bohr = 0.52917721 A

  Atomic type no.    1
  --------------------
  Nuclear charge:   7.00000
  Number of symmetry independent centers:    1
  Number of basis sets to read;    2
  The basis set is "6-311++G**" from the basis set library.
  Basis set file used for this atomic type with Z =   7 :
     "/gpfs/gss1/work/sdujk/reinholdt/Programs/dalton-private/pe-cvs/basis/6-311++G**"

  Info about the basis set file: your basis has no documentation.
  Basis set: 6-311++G**                                                                      

  Atomic type no.    2
  --------------------
  Nuclear charge:   1.00000
  Number of symmetry independent centers:    4
  Number of basis sets to read;    2
  The basis set is "6-311++G**" from the basis set library.
  Basis set file used for this atomic type with Z =   1 :
     "/gpfs/gss1/work/sdujk/reinholdt/Programs/dalton-private/pe-cvs/basis/6-311++G**"

  Info about the basis set file: your basis has no documentation.
  Basis set: 6-311++G**                                                                      

  Atomic type no.    3
  --------------------
  Nuclear charge:   8.00000
  Number of symmetry independent centers:    4
  Number of basis sets to read;    2
  The basis set is "6-311++G**" from the basis set library.
  Basis set file used for this atomic type with Z =   8 :
     "/gpfs/gss1/work/sdujk/reinholdt/Programs/dalton-private/pe-cvs/basis/6-311++G**"

  Info about the basis set file: your basis has no documentation.
  Basis set: 6-311++G**                                                                      

  Atomic type no.    4
  --------------------
  Nuclear charge:   1.00000
  Number of symmetry independent centers:    8
  Number of basis sets to read;    2
  The basis set is "6-311++G**" from the basis set library.
  Basis set file used for this atomic type with Z =   1 :
     "/gpfs/gss1/work/sdujk/reinholdt/Programs/dalton-private/pe-cvs/basis/6-311++G**"

  Info about the basis set file: your basis has no documentation.
  Basis set: 6-311++G**                                                                      


                         SYMGRP: Point group information
                         -------------------------------

@    Point group: C1 


                                 Isotopic Masses
                                 ---------------

                           N          14.003074
                           H           1.007825
                           H           1.007825
                           H           1.007825
                           H           1.007825
                           O          15.994915
                           O          15.994915
                           O          15.994915
                           O          15.994915
                           H           1.007825
                           H           1.007825
                           H           1.007825
                           H           1.007825
                           H           1.007825
                           H           1.007825
                           H           1.007825
                           H           1.007825

                       Total mass:    90.076634 amu
                       Natural abundance:  98.500 %

 Center-of-mass coordinates (a.u.):    0.304421    0.448288   -0.276269


  Atoms and basis sets
  --------------------

  Number of atom types :    4
  Total number of atoms:   17

  label    atoms   charge   prim   cont     basis
  ----------------------------------------------------------------------
  N           1    7.0000    35    22      [12s6p1d|5s4p1d]                                   
  H           4    1.0000     9     7      [6s1p|4s1p]                                        
  O           4    8.0000    35    22      [12s6p1d|5s4p1d]                                   
  H           8    1.0000     9     7      [6s1p|4s1p]                                        
  ----------------------------------------------------------------------
  total:     17   51.0000   283   194
  ----------------------------------------------------------------------
  Spherical harmonic basis used.

  Threshold for neglecting AO integrals:  1.00D-12


  Cartesian Coordinates (a.u.)
  ----------------------------

  Total number of coordinates:   51
  N       :     1  x   0.0000000000    2  y   0.0000000000    3  z   0.0000000000
  H       :     4  x  -1.8647779607    5  y   0.2989395552    6  z   0.3954289711
  H       :     7  x   0.1887930885    8  y   0.0154012679    9  z  -1.9581398799
  H       :    10  x   0.5785131970   11  y  -1.5689375564   12  z   0.8628565076
  H       :    13  x   1.1386941609   14  y   1.4707058129   15  z   0.5838100993
  O       :    16  x  -5.3883405064   17  y   0.5309582391   18  z  -0.7472373941
  O       :    19  x   2.9430689157   20  y   4.2398632334   21  z   1.6978754596
  O       :    22  x   0.0523473034   23  y   0.8131850564   24  z  -5.1026460416
  O       :    25  x   3.9434596906   26  y  -3.3924420088   27  z   2.7450369562
  H       :    28  x  -6.2971551533   29  y  -0.7560718637   30  z   0.2690365290
  H       :    31  x  -6.6410664108   32  y   1.9902274295   33  z  -0.8211162369
  H       :    34  x   2.7076770707   35  y   6.1081239593   36  z   1.9882810116
  H       :    37  x   4.2858931823   38  y   4.0817706355   39  z   0.3493045358
  H       :    40  x   1.6388366360   41  y   0.6714461484   42  z  -6.0808854469
  H       :    43  x  -0.9390408163   44  y  -0.5736017988   45  z  -5.7846217440
  H       :    46  x   3.3387737868   47  y  -4.6024638822   48  z   4.0996172090
  H       :    49  x   4.4650562265   50  y  -1.8504859620   51  z   3.7339344168

  Max    interatomic separation is    6.8441 Angstrom (   12.9335 Bohr)
  between atoms   16 and   11, "H     " and "H     ".

  Min HX interatomic separation is    0.9716 Angstrom (    1.8361 Bohr)

  Min YX interatomic separation is    2.7344 Angstrom (    5.1673 Bohr)


  Bond distances (Angstrom):
  --------------------------

                  atom 1     atom 2       distance
                  ------     ------       --------
  bond distance:  H          N            1.021069
  bond distance:  H          N            1.041040
  bond distance:  H          N            0.995748
  bond distance:  H          N            1.031615
  bond distance:  H          O            0.992148
  bond distance:  H          O            1.018477
  bond distance:  H          O            1.008238
  bond distance:  H          O            1.010550
  bond distance:  H          O            0.989150
  bond distance:  H          O            0.971602
  bond distance:  H          O            1.013023
  bond distance:  H          O            1.007886


  Bond angles (degrees):
  ----------------------

                  atom 1     atom 2     atom 3         angle
                  ------     ------     ------         -----
  bond angle:     H          N          H            107.188
  bond angle:     H          N          H            109.410
  bond angle:     H          N          H            112.721
  bond angle:     H          N          H            115.686
  bond angle:     H          N          H            103.658
  bond angle:     H          N          H            108.187
  bond angle:     H          O          H            103.048
  bond angle:     H          O          H            106.003
  bond angle:     H          O          H            101.924
  bond angle:     H          O          H            103.346




 Principal moments of inertia (u*A**2) and principal axes
 --------------------------------------------------------

   IA     278.928570          0.813318   -0.168257    0.556959
   IB     471.571523          0.378648    0.879879   -0.287122
   IC     508.953087         -0.441746    0.444413    0.779332


 Rotational constants
 --------------------

               A                   B                   C

           1811.8582           1071.6911            992.9776 MHz
            0.060437            0.035748            0.033122 cm-1


@  Nuclear repulsion energy :  197.867445360576 Hartree

  Reading potential input file for polarizable embedding calculation
 
    .------------------------------------------------.
    | Information from polarizable embedding library |
    `------------------------------------------------´

      Number of classical sites:    177

      Multipole moments upto 0th order.

      Dipole-dipole polarizabilities.

      Iterative solver for induced moments will be used
      with convergence threshold: 1.0E-08
      Total charge of classical region:    0.0000
 


                     .---------------------------------------.
                     | Starting in Integral Section (HERMIT) |
                     `---------------------------------------'



 ***************************************************************************************
 ****************** Output from **INTEGRALS input processing (HERMIT) ******************
 ***************************************************************************************



    *************************************************************************
    ****************** Output from HERMIT input processing ******************
    *************************************************************************


 Default print level:        1

 * Nuclear model: Point charge

 Calculation of one- and two-electron Hamiltonian integrals.

 The following one-electron property integrals are calculated as requested:
          - overlap integrals
          - dipole length integrals

 Center of mass  (bohr):      0.304421072511      0.448288259817     -0.276268787024
 Operator center (bohr):      0.000000000000      0.000000000000      0.000000000000
 Gauge origin    (bohr):      0.000000000000      0.000000000000      0.000000000000
 Dipole origin   (bohr):      0.000000000000      0.000000000000      0.000000000000


     ************************************************************************
     ************************** Output from HERINT **************************
     ************************************************************************



                      Nuclear contribution to dipole moments
                      --------------------------------------

                 au               Debye          C m (/(10**-30)

      x     15.00448023        38.13758224       127.21328111
      y     22.81756991        57.99647406       193.45541394
      z    -13.61826219       -34.61416763      -115.46043507


  Time used in OVERLAP    is       0.12 seconds
  Time used in POPOVLP    is       0.18 seconds
  Time used in QUADRUP    is       0.15 seconds
  Time used in KINENE     is       0.12 seconds

 Threshold for neglecting two-electron integrals:  1.00D-12
 HERMIT - Number of two-electron integrals written:   102615510 ( 57.4% )
 HERMIT - Megabytes written:                           1174.995

  Time used in TWOINT     is      20.13 seconds
  Total CPU  time used in HERMIT:  20.93 seconds
  Total wall time used in HERMIT:  10.90 seconds


                        .----------------------------------.
                        | End of Integral Section (HERMIT) |
                        `----------------------------------'



                   .--------------------------------------------.
                   | Starting in Wave Function Section (SIRIUS) |
                   `--------------------------------------------'

 INPUT: SIMPLE =  F
NCCEXCI for singlet:   15
 CCSD_INPUT: core-val requested
 Requested number of core orbs per sym
                     1
 Indices of requested core orbs
                     1

 *** Output from Huckel module :

     Using EWMO model:          T
     Using EHT  model:          F
     Number of Huckel orbitals each symmetry:   37

 EWMO - Energy Weighted Maximum Overlap - is a Huckel type method,
        which normally is better than Extended Huckel Theory.
 Reference: Linderberg and Ohrn, Propagators in Quantum Chemistry (Wiley, 1973)

 Huckel EWMO eigenvalues for symmetry :  1
          -20.684757     -20.684307     -20.684301     -20.684188     -15.676261
           -1.810613      -1.610149      -1.595077      -1.580492      -1.500336
           -0.832820      -0.801479      -0.775950      -0.773554      -0.760814
           -0.755893      -0.739108      -0.690751      -0.673016      -0.666928
           -0.648013      -0.613096      -0.582336      -0.581044      -0.555657
           -0.262605      -0.247434      -0.244364      -0.236639      -0.185256
           -0.184603      -0.183498      -0.176039      -0.173574      -0.144605
           -0.139775      -0.136468

 **********************************************************************
 *SIRIUS* a direct, restricted step, second order MCSCF program       *
 **********************************************************************

 
     Date and time (Linux)  : Sun Dec  9 12:19:13 2018
     Host name              : s71p21.deic.sdu.dk                      

 Title lines from ".mol" input file:
                                                                             
                                                                             

 Print level on unit LUPRI =   2 is   0
 Print level on unit LUW4  =   2 is  11

@    (Integral direct) CC calculation.

@    This is a combination run starting with
@              a restricted, closed shell Hartree-Fock calculation


 Initial molecular orbitals are obtained according to
 ".MOSTART EWMO  " input option

@    QM part is embedded in an environment :

@         Model: PE

     Wave function specification
     ============================

     For the specification of the Coupled Cluster: see later.


     Wave function environment is modeled using the
     polarizable embedding model (PE library).

@    Wave function type        --- PE-CC ---
@    Number of closed shell electrons          50
@    Number of electrons in active shells       0
@    Total charge of the molecule               1

@    Spin multiplicity and 2 M_S                1         0
@    Total number of symmetries                 1 (point group: C1 )
@    Reference state symmetry                   1 (irrep name : A  )

     Orbital specifications
     ======================
@    Abelian symmetry species          All |    1
@                                          |  A  
                                       --- |  ---
@    Occupied SCF orbitals              25 |   25
@    Secondary orbitals                169 |  169
@    Total number of orbitals          194 |  194
@    Number of basis functions         194 |  194

     Optimization information
     ========================
@    Number of configurations                 1
@    Number of orbital rotations           4225
     ------------------------------------------
@    Total number of variables             4226

     Maximum number of Fock   iterations      0
     Maximum number of DIIS   iterations     60
     Maximum number of QC-SCF iterations     60
     Threshold for SCF convergence     1.00D-07


 Changes of defaults for CC:
 ---------------------------


 -Implicit frozen core calculation
 -Excitation energies calculated
 -One-photon absorption strengths will be calculated
 -Oscillator strengths calculated
  
* Read MO coefficients from SIRIUS.RST with label "NEWORB  " and header info:  9Dec18  REORTHO 


 ***********************************************
 ***** DIIS acceleration of SCF iterations *****
 ***********************************************

 C1-DIIS algorithm; max error vectors =    8
 -----------------------------------------------------------------------------

 *** DIIS iteration number    1
 RDSUPM called. NFMAT, ISYMDM(1:NFMAT)                     1
                     1

Calculating AOSUPINT
     (Precalculated AO two-electron integrals are transformed to P-supermatrix elements.
      Threshold for discarding integrals :  1.00D-12 )
  CPU  time used in FORMSUP    is   9.32 seconds
  WALL time used in FORMSUP    is  13.23 seconds

 ITDIIS, energy, error norm, change in energy, scr.thr., difden:
@ DIIS iter.   1    -360.203255314        4.07014D+00   -3.60D+02  -20    F

 (DIIS_RED) Control Parameters C2DIIS =         F NEVC =    1


 (DIIS_RED) B matrix:

               Column   1
       1      16.56602350
    ==== End of matrix output ====

 DIIS C vector; C2DIIS = F, LAMBDA = -1.66D+01
    1.000000
* Read MO coefficients from SIRIUS.RST with label "NEWORB  " and header info:  9Dec18  DIIS   1
      Virial theorem: -V/T =      2.004087
@    MULPOP   N      -0.00; H       0.22; H       0.25; H       0.21; H       0.23; O      -0.65; O      -0.65; O      -0.64; O      -0.67; H       0.34; 
@             H       0.33; H       0.33; H       0.34; H       0.33; H       0.34; H       0.34; H       0.34; 
   1  Level shift: doubly occupied orbital energies shifted by -2.00D-01

 DIIS Fock eigenvalues in symmetry 1
      -20.82315      -20.82252      -20.81827      -20.80697      -16.48832
       -1.74756       -1.63834       -1.63210       -1.62214       -1.61189
       -1.23290       -1.21766       -1.19992       -1.00902       -1.00394
       -1.00184       -0.98115       -0.89035       -0.88140       -0.87496
       -0.86728       -0.84454       -0.83865       -0.83501       -0.82732
       -0.04099       -0.00959        0.00129        0.00852        0.02413
        0.03119        0.04478        0.04759        0.05098        0.06186
        0.07052        0.07975        0.10194        0.12226        0.13312
        0.14460        0.15463        0.16980        0.17306        0.18208
        0.18497        0.19238        0.19867        0.20754        0.21511
        0.22090        0.22599        0.23143        0.23713        0.24223
        0.25158        0.26593        0.27086        0.27260        0.27585
        0.28696        0.29972        0.32681        0.33153        0.35031
        0.36451        0.39594        0.42906        0.43182        0.53299
        0.54993        0.56833        0.59167        0.62206        0.63102
        0.64014        0.64379        0.65253        0.67090        0.68610
        0.76743        0.79881        0.80995        0.85511        0.98842
        1.04666        1.10343        1.11253        1.14307        1.14613
        1.15452        1.16779        1.17371        1.18263        1.18959
        1.19558        1.21661        1.23088        1.25986        1.34366
        1.36701        1.38585        1.40191        1.41464        1.41888
        1.43479        1.45806        1.47211        1.50673        1.53595
        1.56915        1.63431        1.63969        1.67157        1.67591
        1.71357        1.71764        1.75187        1.77025        1.78110
        1.82040        1.84298        1.92421        2.01886        2.08844
        2.11202        2.14415        2.15954        2.17544        2.19957
        2.21301        2.25051        2.25973        2.26831        2.29019
        2.34817        2.56644        2.61017        2.62702        2.64844
        2.64948        2.66815        2.70259        2.73409        2.74350
        2.78379        2.79475        2.83273        2.83877        2.85028
        3.07903        3.09725        3.12571        3.15493        3.32415
        3.33617        3.35760        3.36287        3.38788        3.39571
        3.42903        3.44203        3.51641        3.52560        3.55365
        3.58076        3.94139        3.96453        3.96820        3.97637
        4.16403        4.19468        4.20925        4.24175        4.74910
        4.84921        4.89473        5.45589        5.46023        5.46705
        5.47974        5.76053        5.81568        5.84206        5.87803
        5.94347        5.97691        5.98499        6.02495       36.43539
       51.49295       51.51163       51.51625       51.52659
 Time used in FCKEIG, thr_jaco:   3.31D-01  8.20D-02  1.57D-04
 CPU and wall times used in FCKEIG, THR_FCKEIG:   3.31D-01  8.20D-02  4.07D-02
 -----------------------------------------------------------------------------

 *** DIIS iteration number    2
 RDSUPM called. NFMAT, ISYMDM(1:NFMAT)                     1
                     1

 ITDIIS, energy, error norm, change in energy, scr.thr., difden:
@ DIIS iter.   2    -361.130852614        1.18245D+00   -9.28D-01  -20    F

 (DIIS_RED) Control Parameters C2DIIS =         F NEVC =    2


 (DIIS_RED) B matrix:

               Column   1     Column   2
       1      16.56602350
       2       0.59971107     1.39819120
    ==== End of matrix output ====

 DIIS C vector; C2DIIS = F, LAMBDA = -1.36D+00
    0.047628    0.952372
* Read MO coefficients from SIRIUS.RST with label "NEWORB  " and header info:  9Dec18  DIIS   2
      Virial theorem: -V/T =      2.003019
@    MULPOP   N      -0.75; H       0.40; H       0.41; H       0.38; H       0.40; O      -0.65; O      -0.61; O      -0.56; O      -0.61; H       0.32; 
@             H       0.36; H       0.34; H       0.32; H       0.35; H       0.28; H       0.33; H       0.30; 
   2  Level shift: doubly occupied orbital energies shifted by -1.00D-01

 DIIS Fock eigenvalues in symmetry 1
      -20.79578      -20.78754      -20.76751      -20.76535      -15.63322
       -1.53438       -1.53051       -1.52772       -1.51194       -1.39553
       -0.90191       -0.89706       -0.89003       -0.87980       -0.87525
       -0.86197       -0.85846       -0.79506       -0.77610       -0.76606
       -0.76276       -0.72977       -0.72052       -0.70894       -0.70176
       -0.01763        0.00142        0.01161        0.01860        0.03258
        0.03749        0.04982        0.05376        0.05891        0.06719
        0.08590        0.09679        0.13956        0.15508        0.16258
        0.18226        0.18397        0.19022        0.19990        0.20419
        0.21281        0.21877        0.22507        0.23288        0.24018
        0.24403        0.24652        0.25665        0.26887        0.27684
        0.28244        0.28803        0.29406        0.30628        0.31276
        0.32783        0.34125        0.34638        0.36486        0.37783
        0.40061        0.42950        0.44616        0.45425        0.58487
        0.60971        0.62273        0.64080        0.65351        0.65676
        0.66725        0.67197        0.68180        0.69910        0.71897
        0.84337        0.95900        0.97015        1.01135        1.12407
        1.14315        1.14904        1.16444        1.16977        1.17404
        1.17837        1.19594        1.20223        1.21611        1.21926
        1.24161        1.24988        1.27151        1.33833        1.40078
        1.41839        1.43314        1.45089        1.47121        1.47292
        1.49106        1.51109        1.53607        1.55903        1.58170
        1.64498        1.68090        1.70183        1.71360        1.73495
        1.77062        1.78878        1.82023        1.82371        1.83507
        1.88116        1.90907        2.04956        2.12475        2.15153
        2.16917        2.19784        2.20841        2.22339        2.29689
        2.30576        2.33482        2.34901        2.36173        2.38013
        2.46429        2.66281        2.68818        2.70639        2.71770
        2.75821        2.79511        2.82815        2.84346        2.87211
        2.87911        2.90669        2.92946        2.96614        3.00821
        3.24370        3.30088        3.31355        3.33553        3.36012
        3.36570        3.38555        3.39980        3.41535        3.45757
        3.51388        3.53052        3.53593        3.55599        3.57285
        3.61095        3.95056        3.97140        3.97994        3.99590
        4.17281        4.20342        4.22280        4.26068        5.14823
        5.24999        5.29548        5.44213        5.44345        5.46213
        5.47765        5.74706        5.80325        5.83751        5.87983
        5.94177        5.97457        5.98951        6.04044       37.17212
       51.42352       51.44456       51.46007       51.48303
 Time used in FCKEIG, thr_jaco:   2.19D-01  5.50D-02  4.55D-05
 CPU and wall times used in FCKEIG, THR_FCKEIG:   2.19D-01  5.50D-02  1.18D-02
 -----------------------------------------------------------------------------

 *** DIIS iteration number    3
 RDSUPM called. NFMAT, ISYMDM(1:NFMAT)                     1
                     1

 ITDIIS, energy, error norm, change in energy, scr.thr., difden:
@ DIIS iter.   3    -361.210428212        3.79362D-01   -7.96D-02  -20    F

 (DIIS_RED) Control Parameters C2DIIS =         F NEVC =    3


 (DIIS_RED) B matrix:

               Column   1     Column   2     Column   3
       1      16.56602350
       2       0.59971107     1.39819120
       3       0.84227886    -0.00134067     0.14391576
    ==== End of matrix output ====

 DIIS C vector; C2DIIS = F, LAMBDA = -9.86D-02
   -0.045889    0.091139    0.954749
* Read MO coefficients from SIRIUS.RST with label "NEWORB  " and header info:  9Dec18  DIIS   3
      Virial theorem: -V/T =      2.003618
@    MULPOP   N      -0.68; H       0.38; H       0.42; H       0.36; H       0.40; O      -0.71; O      -0.68; O      -0.61; O      -0.67; H       0.34; 
@             H       0.40; H       0.36; H       0.34; H       0.38; H       0.29; H       0.36; H       0.32; 
   3  Level shift: doubly occupied orbital energies shifted by -5.00D-02

 DIIS Fock eigenvalues in symmetry 1
      -20.70173      -20.68718      -20.67374      -20.66787      -15.78760
       -1.46628       -1.45833       -1.45609       -1.44427       -1.39393
       -0.87504       -0.86651       -0.84058       -0.82237       -0.81349
       -0.80550       -0.79543       -0.72495       -0.70559       -0.69746
       -0.69558       -0.65319       -0.64171       -0.63265       -0.62645
       -0.01496        0.00293        0.01319        0.02005        0.03347
        0.03923        0.05105        0.05465        0.06036        0.06853
        0.08804        0.09973        0.14299        0.15925        0.16808
        0.18673        0.18862        0.19530        0.20326        0.20954
        0.21753        0.22418        0.23129        0.23818        0.24602
        0.25028        0.25185        0.26122        0.27266        0.28332
        0.28781        0.29386        0.29917        0.31053        0.31702
        0.32945        0.34560        0.34821        0.36606        0.38160
        0.40070        0.43235        0.44913        0.45739        0.59044
        0.61163        0.62592        0.64340        0.66232        0.66655
        0.67735        0.68167        0.69160        0.70755        0.73111
        0.84710        0.94110        0.95129        0.99480        1.14000
        1.14625        1.15851        1.17982        1.18548        1.18840
        1.19464        1.20988        1.21337        1.21966        1.23499
        1.25424        1.26754        1.28602        1.33891        1.41322
        1.43164        1.44718        1.46418        1.48486        1.48539
        1.50700        1.52313        1.54732        1.57208        1.59411
        1.65357        1.69369        1.71422        1.72538        1.74789
        1.77849        1.79836        1.82875        1.83552        1.84614
        1.89086        1.92249        2.04798        2.12838        2.16721
        2.18138        2.21274        2.21781        2.24373        2.31479
        2.32256        2.34529        2.35797        2.36178        2.37931
        2.46671        2.67335        2.70078        2.71947        2.72837
        2.76338        2.80097        2.83630        2.85205        2.88121
        2.89095        2.91419        2.93402        2.94572        2.98224
        3.24426        3.29809        3.30509        3.35308        3.38203
        3.38521        3.39814        3.41587        3.44277        3.45303
        3.51435        3.54536        3.55803        3.56942        3.59802
        3.63851        3.97516        3.99941        4.00430        4.02552
        4.19988        4.23369        4.24937        4.29271        5.07113
        5.17380        5.22099        5.47320        5.47872        5.48969
        5.51391        5.77863        5.83922        5.86926        5.91598
        5.97414        6.01115        6.02096        6.07798       36.97421
       51.46771       51.49461       51.50197       51.53252
 Time used in FCKEIG, thr_jaco:   1.85D-01  4.70D-02  1.46D-05
 CPU and wall times used in FCKEIG, THR_FCKEIG:   1.86D-01  4.70D-02  3.79D-03
 -----------------------------------------------------------------------------

 *** DIIS iteration number    4
 RDSUPM called. NFMAT, ISYMDM(1:NFMAT)                     1
                     1

 ITDIIS, energy, error norm, change in energy, scr.thr., difden:
@ DIIS iter.   4    -361.221337374        1.01039D-01   -1.09D-02  -20    F

 (DIIS_RED) Control Parameters C2DIIS =         F NEVC =    4


 (DIIS_RED) B matrix:

               Column   1     Column   2     Column   3     Column   4
       1      16.56602350
       2       0.59971107     1.39819120
       3       0.84227886    -0.00134067     0.14391576
       4       0.05569923     0.08174130     0.00670915     0.01020880
    ==== End of matrix output ====

 DIIS C vector; C2DIIS = F, LAMBDA = -6.08D-03
   -0.001047   -0.057164   -0.001583    1.059793
* Read MO coefficients from SIRIUS.RST with label "NEWORB  " and header info:  9Dec18  DIIS   4
      Virial theorem: -V/T =      2.003827
@    MULPOP   N      -0.73; H       0.40; H       0.43; H       0.37; H       0.41; O      -0.73; O      -0.69; O      -0.62; O      -0.68; H       0.35; 
@             H       0.41; H       0.37; H       0.35; H       0.38; H       0.29; H       0.37; H       0.32; 
   4  Level shift: doubly occupied orbital energies shifted by -2.50D-02

 DIIS Fock eigenvalues in symmetry 1
      -20.69200      -20.68209      -20.66528      -20.66219      -15.73382
       -1.44720       -1.43951       -1.43807       -1.42545       -1.35849
       -0.84048       -0.83334       -0.80776       -0.80209       -0.79208
       -0.78479       -0.77566       -0.70328       -0.68469       -0.67558
       -0.67380       -0.62948       -0.61904       -0.60886       -0.60257
       -0.01477        0.00277        0.01288        0.02000        0.03340
        0.03929        0.05104        0.05475        0.06061        0.06874
        0.08831        0.10014        0.14421        0.16071        0.16897
        0.18727        0.18978        0.19663        0.20419        0.21009
        0.21750        0.22469        0.23093        0.23845        0.24520
        0.24945        0.25139        0.26112        0.27336        0.28336
        0.28755        0.29359        0.29857        0.31160        0.31821
        0.33228        0.34661        0.34962        0.36942        0.38253
        0.40327        0.43411        0.45002        0.45853        0.59146
        0.61442        0.62788        0.64556        0.66078        0.66520
        0.67574        0.67908        0.68924        0.70482        0.72883
        0.85143        0.94793        0.95861        1.00176        1.13874
        1.15263        1.15773        1.17856        1.18321        1.18732
        1.19286        1.20880        1.21761        1.21933        1.23360
        1.25264        1.26636        1.28340        1.34020        1.41193
        1.43075        1.44549        1.46261        1.48225        1.48330
        1.50490        1.52233        1.54783        1.57102        1.59268
        1.65603        1.69233        1.71424        1.72553        1.74759
        1.77995        1.79984        1.82864        1.83417        1.84492
        1.88972        1.92206        2.05352        2.13216        2.16351
        2.18051        2.20839        2.21913        2.23997        2.31055
        2.31904        2.34540        2.35837        2.36553        2.38381
        2.46939        2.67375        2.69873        2.71697        2.72735
        2.76908        2.80682        2.83700        2.85171        2.88096
        2.89029        2.91587        2.93823        2.95321        2.99105
        3.24914        3.30207        3.30980        3.35130        3.37869
        3.38342        3.39678        3.41291        3.43891        3.45285
        3.51551        3.54642        3.55417        3.56475        3.59330
        3.63402        3.97060        3.99344        3.99924        4.02020
        4.19539        4.22787        4.24462        4.28746        5.08672
        5.18951        5.23641        5.46555        5.46858        5.48200
        5.50451        5.77108        5.82935        5.86088        5.90684
        5.96583        6.00067        6.01194        6.06811       37.00269
       51.45266       51.47530       51.48576       51.51369
 Time used in FCKEIG, thr_jaco:   1.72D-01  4.30D-02  3.89D-06
 CPU and wall times used in FCKEIG, THR_FCKEIG:   1.72D-01  4.30D-02  1.01D-03
 -----------------------------------------------------------------------------

 *** DIIS iteration number    5
 RDSUPM called. NFMAT, ISYMDM(1:NFMAT)                     1
                     1

 ITDIIS, energy, error norm, change in energy, scr.thr., difden:
@ DIIS iter.   5    -361.222570323        3.57442D-02   -1.23D-03  -20    F

 (DIIS_RED) Control Parameters C2DIIS =         F NEVC =    5


 (DIIS_RED) B matrix:

               Column   1     Column   2     Column   3     Column   4     Column   5
       1      16.56602350
       2       0.59971107     1.39819120
       3       0.84227886    -0.00134067     0.14391576
       4       0.05569923     0.08174130     0.00670915     0.01020880
       5       0.02534729     0.00992029     0.00691111     0.00109129     0.00127765
    ==== End of matrix output ====

 DIIS C vector; C2DIIS = F, LAMBDA = -8.68D-04
    0.001415   -0.013920   -0.053394    0.123029    0.942870
* Read MO coefficients from SIRIUS.RST with label "NEWORB  " and header info:  9Dec18  DIIS   5
      Virial theorem: -V/T =      2.003360
@    MULPOP   N      -0.72; H       0.40; H       0.43; H       0.37; H       0.42; O      -0.75; O      -0.70; O      -0.63; O      -0.69; H       0.35; 
@             H       0.41; H       0.38; H       0.35; H       0.39; H       0.30; H       0.37; H       0.33; 
   5  Level shift: doubly occupied orbital energies shifted by -1.25D-02

 DIIS Fock eigenvalues in symmetry 1
      -20.67301      -20.66042      -20.64573      -20.64011      -15.71621
       -1.43256       -1.42383       -1.42247       -1.41073       -1.34405
       -0.82614       -0.81905       -0.79333       -0.78827       -0.77754
       -0.76996       -0.76182       -0.68905       -0.66989       -0.66093
       -0.65896       -0.61378       -0.60247       -0.59291       -0.58592
       -0.01460        0.00279        0.01289        0.02007        0.03343
        0.03941        0.05111        0.05482        0.06074        0.06886
        0.08849        0.10041        0.14472        0.16121        0.16951
        0.18770        0.19031        0.19723        0.20459        0.21054
        0.21793        0.22516        0.23139        0.23885        0.24548
        0.24979        0.25178        0.26134        0.27371        0.28386
        0.28789        0.29395        0.29884        0.31221        0.31882
        0.33314        0.34711        0.35009        0.37048        0.38297
        0.40398        0.43473        0.45038        0.45902        0.59202
        0.61512        0.62855        0.64621        0.66134        0.66577
        0.67640        0.67938        0.68958        0.70497        0.72954
        0.85234        0.94917        0.95993        1.00308        1.14023
        1.15406        1.15940        1.18006        1.18479        1.18880
        1.19447        1.21015        1.21917        1.22115        1.23543
        1.25418        1.26851        1.28477        1.34139        1.41253
        1.43162        1.44618        1.46329        1.48237        1.48402
        1.50547        1.52328        1.54937        1.57254        1.59364
        1.65727        1.69314        1.71532        1.72642        1.74862
        1.78063        1.80051        1.82904        1.83438        1.84506
        1.88980        1.92249        2.05473        2.13336        2.16397
        2.18153        2.20877        2.22025        2.24119        2.31134
        2.32012        2.34629        2.35966        2.36691        2.38520
        2.47073        2.67408        2.69858        2.71673        2.72745
        2.77014        2.80787        2.83725        2.85186        2.88102
        2.89032        2.91623        2.93913        2.95457        2.99264
        3.25084        3.30462        3.31229        3.35373        3.38169
        3.38584        3.39906        3.41530        3.44221        3.45523
        3.51826        3.54920        3.55655        3.56775        3.59557
        3.63733        3.97282        3.99647        4.00151        4.02356
        4.19782        4.23120        4.24713        4.29111        5.08949
        5.19230        5.23921        5.46951        5.47392        5.48608
        5.51010        5.77466        5.83432        5.86484        5.91191
        5.96915        6.00536        6.01550        6.07309       37.00769
       51.45915       51.48426       51.49276       51.52310
 Time used in FCKEIG, thr_jaco:   1.59D-01  4.00D-02  1.37D-06
 CPU and wall times used in FCKEIG, THR_FCKEIG:   1.59D-01  4.00D-02  3.57D-04
 -----------------------------------------------------------------------------

 *** DIIS iteration number    6
 RDSUPM called. NFMAT, ISYMDM(1:NFMAT)                     1
                     1

 ITDIIS, energy, error norm, change in energy, scr.thr., difden:
@ DIIS iter.   6    -361.222718162        1.41445D-02   -1.48D-04  -20    F

 (DIIS_RED) Control Parameters C2DIIS =         F NEVC =    6


 (DIIS_RED) B matrix:

               Column   1     Column   2     Column   3     Column   4     Column   5     Column   6
       1      16.56602350
       2       0.59971107     1.39819120
       3       0.84227886    -0.00134067     0.14391576
       4       0.05569923     0.08174130     0.00670915     0.01020880
       5       0.02534729     0.00992029     0.00691111     0.00109129     0.00127765
       6      -0.00480800     0.00059637     0.00101091     0.00094165     0.00006594     0.00020007
    ==== End of matrix output ====

 DIIS C vector; C2DIIS = F, LAMBDA = -5.14D-05
    0.000890    0.008565   -0.008902   -0.172004    0.095624    1.075826
* Read MO coefficients from SIRIUS.RST with label "NEWORB  " and header info:  9Dec18  DIIS   6
      Virial theorem: -V/T =      2.003675
@    MULPOP   N      -0.72; H       0.40; H       0.43; H       0.37; H       0.42; O      -0.75; O      -0.71; O      -0.63; O      -0.69; H       0.35; 
@             H       0.41; H       0.38; H       0.35; H       0.39; H       0.30; H       0.37; H       0.33; 

 DIIS Fock eigenvalues in symmetry 1
      -20.66261      -20.65100      -20.63570      -20.63049      -15.70639
       -1.42077       -1.41233       -1.41101       -1.39915       -1.33243
       -0.81449       -0.80748       -0.78173       -0.77665       -0.76612
       -0.75846       -0.75040       -0.67751       -0.65874       -0.64970
       -0.64771       -0.60149       -0.59048       -0.58069       -0.57389
       -0.01465        0.00273        0.01280        0.02001        0.03338
        0.03938        0.05108        0.05479        0.06070        0.06885
        0.08841        0.10035        0.14463        0.16114        0.16944
        0.18762        0.19022        0.19714        0.20447        0.21040
        0.21773        0.22503        0.23121        0.23875        0.24524
        0.24947        0.25152        0.26118        0.27359        0.28368
        0.28763        0.29376        0.29852        0.31197        0.31863
        0.33273        0.34695        0.34987        0.37007        0.38283
        0.40371        0.43449        0.45019        0.45887        0.59175
        0.61488        0.62829        0.64596        0.66088        0.66538
        0.67599        0.67892        0.68913        0.70445        0.72914
        0.85207        0.94857        0.95934        1.00251        1.13979
        1.15358        1.15886        1.17944        1.18406        1.18821
        1.19387        1.20953        1.21862        1.22068        1.23497
        1.25346        1.26800        1.28413        1.34081        1.41201
        1.43106        1.44558        1.46268        1.48172        1.48337
        1.50492        1.52267        1.54879        1.57193        1.59300
        1.65677        1.69260        1.71475        1.72582        1.74806
        1.78013        1.80005        1.82849        1.83380        1.84455
        1.88922        1.92205        2.05428        2.13287        2.16324
        2.18081        2.20788        2.21970        2.24043        2.31061
        2.31931        2.34552        2.35900        2.36638        2.38465
        2.47007        2.67352        2.69793        2.71606        2.72686
        2.76984        2.80752        2.83668        2.85128        2.88042
        2.88977        2.91564        2.93855        2.95392        2.99181
        3.25021        3.30357        3.31116        3.35280        3.38048
        3.38481        3.39809        3.41418        3.44103        3.45416
        3.51715        3.54812        3.55559        3.56652        3.59445
        3.63616        3.97191        3.99517        4.00038        4.02240
        4.19690        4.22990        4.24600        4.28989        5.08808
        5.19088        5.23784        5.46826        5.47216        5.48469
        5.50846        5.77340        5.83251        5.86329        5.91025
        5.96785        6.00351        6.01393        6.07141       37.00505
       51.45705       51.48124       51.49030       51.52026
 Time used in FCKEIG, thr_jaco:   1.58D-01  3.90D-02  5.44D-07
 CPU and wall times used in FCKEIG, THR_FCKEIG:   1.58D-01  3.90D-02  1.41D-04
 -----------------------------------------------------------------------------

 *** DIIS iteration number    7
 RDSUPM called. NFMAT, ISYMDM(1:NFMAT)                     1
                     1

 ITDIIS, energy, error norm, change in energy, scr.thr., difden:
@ DIIS iter.   7    -361.222743542        2.61848D-03   -2.54D-05  -20    F

 (DIIS_RED) Control Parameters C2DIIS =         F NEVC =    7


 (DIIS_RED) B matrix:

               Column   1     Column   2     Column   3     Column   4     Column   5     Column   6
       1      16.56602350
       2       0.59971107     1.39819120
       3       0.84227886    -0.00134067     0.14391576
       4       0.05569923     0.08174130     0.00670915     0.01020880
       5       0.02534729     0.00992029     0.00691111     0.00109129     0.00127765
       6      -0.00480800     0.00059637     0.00101091     0.00094165     0.00006594     0.00020007
       7       0.00033104     0.00025259    -0.00004095     0.00001966     0.00006072     0.00000498

               Column   7
       7       0.00000686
    ==== End of matrix output ====

 DIIS C vector; C2DIIS = F, LAMBDA = -1.85D-06
   -0.000312   -0.000917    0.006472    0.026741   -0.092881   -0.153724    1.214622
* Read MO coefficients from SIRIUS.RST with label "NEWORB  " and header info:  9Dec18  DIIS   7
      Virial theorem: -V/T =      2.003605
@    MULPOP   N      -0.71; H       0.40; H       0.43; H       0.37; H       0.42; O      -0.75; O      -0.71; O      -0.64; O      -0.70; H       0.36; 
@             H       0.41; H       0.38; H       0.35; H       0.39; H       0.30; H       0.38; H       0.33; 

 DIIS Fock eigenvalues in symmetry 1
      -20.66243      -20.65067      -20.63550      -20.63031      -15.70589
       -1.42068       -1.41222       -1.41090       -1.39907       -1.33220
       -0.81432       -0.80731       -0.78157       -0.77664       -0.76604
       -0.75841       -0.75039       -0.67754       -0.65873       -0.64970
       -0.64771       -0.60132       -0.59024       -0.58048       -0.57370
       -0.01463        0.00273        0.01280        0.02002        0.03339
        0.03939        0.05108        0.05480        0.06071        0.06886
        0.08843        0.10038        0.14467        0.16118        0.16948
        0.18765        0.19026        0.19719        0.20450        0.21043
        0.21776        0.22506        0.23123        0.23877        0.24525
        0.24948        0.25154        0.26119        0.27361        0.28370
        0.28765        0.29378        0.29853        0.31200        0.31868
        0.33279        0.34699        0.34991        0.37015        0.38286
        0.40379        0.43454        0.45022        0.45890        0.59180
        0.61496        0.62836        0.64603        0.66091        0.66541
        0.67602        0.67893        0.68914        0.70444        0.72915
        0.85218        0.94872        0.95950        1.00266        1.13984
        1.15372        1.15895        1.17950        1.18413        1.18827
        1.19395        1.20960        1.21872        1.22081        1.23505
        1.25352        1.26808        1.28415        1.34090        1.41202
        1.43109        1.44560        1.46269        1.48168        1.48339
        1.50491        1.52271        1.54888        1.57202        1.59304
        1.65686        1.69264        1.71480        1.72588        1.74811
        1.78019        1.80011        1.82851        1.83380        1.84456
        1.88921        1.92206        2.05440        2.13297        2.16323
        2.18085        2.20786        2.21977        2.24043        2.31061
        2.31933        2.34553        2.35908        2.36649        2.38477
        2.47016        2.67354        2.69790        2.71603        2.72684
        2.76994        2.80764        2.83668        2.85129        2.88041
        2.88975        2.91566        2.93866        2.95408        2.99200
        3.25035        3.30373        3.31135        3.35290        3.38061
        3.38492        3.39820        3.41428        3.44113        3.45430
        3.51732        3.54827        3.55569        3.56666        3.59454
        3.63627        3.97198        3.99529        4.00045        4.02247
        4.19699        4.23004        4.24610        4.29000        5.08839
        5.19119        5.23813        5.46838        5.47236        5.48482
        5.50859        5.77350        5.83270        5.86341        5.91036
        5.96795        6.00369        6.01404        6.07152       37.00553
       51.45722       51.48156       51.49050       51.52044
 Time used in FCKEIG, thr_jaco:   1.58D-01  4.00D-02  1.01D-07
 CPU and wall times used in FCKEIG, THR_FCKEIG:   1.58D-01  4.00D-02  2.62D-05
 -----------------------------------------------------------------------------

 *** DIIS iteration number    8
 RDSUPM called. NFMAT, ISYMDM(1:NFMAT)                     1
                     1

 ITDIIS, energy, error norm, change in energy, scr.thr., difden:
@ DIIS iter.   8    -361.222744414        4.44813D-04   -8.72D-07  -20    F

 (DIIS_RED) Control Parameters C2DIIS =         F NEVC =    8


 (DIIS_RED) B matrix:

               Column   1     Column   2     Column   3     Column   4     Column   5     Column   6
       1      16.56602350
       2       0.59971107     1.39819120
       3       0.84227886    -0.00134067     0.14391576
       4       0.05569923     0.08174130     0.00670915     0.01020880
       5       0.02534729     0.00992029     0.00691111     0.00109129     0.00127765
       6      -0.00480800     0.00059637     0.00101091     0.00094165     0.00006594     0.00020007
       7       0.00033104     0.00025259    -0.00004095     0.00001966     0.00006072     0.00000498
       8       0.00022165    -0.00008070     0.00001259     0.00000139     0.00000106     0.00000217

               Column   7     Column   8
       7       0.00000686
       8       0.00000059     0.00000020
    ==== End of matrix output ====

 DIIS C vector; C2DIIS = F, LAMBDA = -1.03D-07
    0.000011    0.000069   -0.000884   -0.001181    0.014930   -0.001841   -0.225837    1.214733
* Read MO coefficients from SIRIUS.RST with label "NEWORB  " and header info:  9Dec18  DIIS   8
      Virial theorem: -V/T =      2.003623
@    MULPOP   N      -0.71; H       0.40; H       0.43; H       0.37; H       0.41; O      -0.75; O      -0.71; O      -0.64; O      -0.70; H       0.36; 
@             H       0.41; H       0.38; H       0.35; H       0.39; H       0.30; H       0.38; H       0.33; 

 DIIS Fock eigenvalues in symmetry 1
      -20.66244      -20.65074      -20.63553      -20.63023      -15.70594
       -1.42068       -1.41222       -1.41090       -1.39907       -1.33222
       -0.81433       -0.80733       -0.78159       -0.77663       -0.76605
       -0.75839       -0.75040       -0.67756       -0.65877       -0.64973
       -0.64773       -0.60131       -0.59025       -0.58048       -0.57367
       -0.01463        0.00273        0.01280        0.02002        0.03339
        0.03938        0.05108        0.05480        0.06071        0.06886
        0.08843        0.10037        0.14467        0.16118        0.16948
        0.18765        0.19026        0.19719        0.20450        0.21043
        0.21776        0.22506        0.23123        0.23877        0.24525
        0.24948        0.25153        0.26119        0.27361        0.28370
        0.28765        0.29378        0.29853        0.31200        0.31867
        0.33278        0.34699        0.34990        0.37014        0.38286
        0.40378        0.43453        0.45021        0.45890        0.59180
        0.61495        0.62835        0.64602        0.66090        0.66541
        0.67602        0.67892        0.68913        0.70444        0.72916
        0.85217        0.94870        0.95948        1.00264        1.13984
        1.15370        1.15894        1.17950        1.18411        1.18827
        1.19394        1.20960        1.21871        1.22080        1.23505
        1.25350        1.26809        1.28415        1.34089        1.41202
        1.43109        1.44559        1.46269        1.48167        1.48338
        1.50491        1.52270        1.54887        1.57200        1.59303
        1.65685        1.69263        1.71479        1.72587        1.74810
        1.78018        1.80010        1.82851        1.83379        1.84455
        1.88921        1.92206        2.05438        2.13296        2.16323
        2.18084        2.20785        2.21976        2.24044        2.31060
        2.31931        2.34552        2.35907        2.36647        2.38476
        2.47015        2.67353        2.69789        2.71602        2.72684
        2.76992        2.80762        2.83668        2.85129        2.88040
        2.88974        2.91565        2.93864        2.95405        2.99197
        3.25033        3.30372        3.31132        3.35289        3.38059
        3.38491        3.39819        3.41427        3.44114        3.45428
        3.51730        3.54826        3.55569        3.56663        3.59453
        3.63629        3.97197        3.99526        4.00043        4.02249
        4.19699        4.23002        4.24609        4.29003        5.08835
        5.19116        5.23810        5.46837        5.47232        5.48480
        5.50863        5.77350        5.83266        5.86339        5.91039
        5.96794        6.00365        6.01402        6.07156       37.00549
       51.45721       51.48149       51.49047       51.52051
 Time used in FCKEIG, thr_jaco:   2.70D-01  6.80D-02  1.71D-08
 CPU and wall times used in FCKEIG, THR_FCKEIG:   2.70D-01  6.80D-02  4.45D-06
 -----------------------------------------------------------------------------

 *** DIIS iteration number    9
 RDSUPM called. NFMAT, ISYMDM(1:NFMAT)                     1
                     1

 ITDIIS, energy, error norm, change in energy, scr.thr., difden:
@ DIIS iter.   9    -361.222744442        1.44711D-04   -2.77D-08  -20    F

 (DIIS_RED) Control Parameters C2DIIS =         F NEVC =    8


 (DIIS_RED) B matrix:

               Column   1     Column   2     Column   3     Column   4     Column   5     Column   6
       1       0.00000002
       2       0.00000732     1.39819120
       3      -0.00000348    -0.00134067     0.14391576
       4       0.00000003     0.08174130     0.00670915     0.01020880
       5       0.00000038     0.00992029     0.00691111     0.00109129     0.00127765
       6      -0.00000007     0.00059637     0.00101091     0.00094165     0.00006594     0.00020007
       7       0.00000013     0.00025259    -0.00004095     0.00001966     0.00006072     0.00000498
       8       0.00000002    -0.00008070     0.00001259     0.00000139     0.00000106     0.00000217

               Column   7     Column   8
       7       0.00000686
       8       0.00000059     0.00000020
    ==== End of matrix output ====

 DIIS C vector; C2DIIS = F, LAMBDA = -1.38D-08
    0.873691    0.000036   -0.000236   -0.000886    0.004850    0.003840   -0.077982    0.196688
* Read MO coefficients from SIRIUS.RST with label "NEWORB  " and header info:  9Dec18  DIIS   9
      Virial theorem: -V/T =      2.003622
@    MULPOP   N      -0.71; H       0.40; H       0.43; H       0.37; H       0.42; O      -0.75; O      -0.71; O      -0.64; O      -0.70; H       0.36; 
@             H       0.41; H       0.38; H       0.35; H       0.39; H       0.30; H       0.38; H       0.33; 

 DIIS Fock eigenvalues in symmetry 1
      -20.66244      -20.65070      -20.63551      -20.63029      -15.70593
       -1.42068       -1.41222       -1.41090       -1.39906       -1.33222
       -0.81433       -0.80733       -0.78159       -0.77663       -0.76604
       -0.75840       -0.75039       -0.67756       -0.65876       -0.64973
       -0.64774       -0.60130       -0.59023       -0.58047       -0.57368
       -0.01463        0.00273        0.01280        0.02002        0.03339
        0.03938        0.05108        0.05480        0.06071        0.06886
        0.08843        0.10038        0.14467        0.16118        0.16948
        0.18765        0.19026        0.19719        0.20450        0.21043
        0.21776        0.22506        0.23123        0.23877        0.24525
        0.24948        0.25153        0.26119        0.27361        0.28370
        0.28765        0.29378        0.29853        0.31200        0.31867
        0.33278        0.34699        0.34990        0.37014        0.38286
        0.40378        0.43453        0.45021        0.45890        0.59180
        0.61495        0.62836        0.64602        0.66091        0.66541
        0.67602        0.67892        0.68914        0.70444        0.72915
        0.85217        0.94871        0.95948        1.00265        1.13984
        1.15370        1.15894        1.17950        1.18412        1.18827
        1.19395        1.20960        1.21871        1.22080        1.23506
        1.25351        1.26808        1.28415        1.34089        1.41202
        1.43109        1.44559        1.46269        1.48167        1.48338
        1.50491        1.52270        1.54887        1.57201        1.59304
        1.65685        1.69263        1.71480        1.72587        1.74810
        1.78018        1.80010        1.82851        1.83380        1.84455
        1.88921        1.92206        2.05438        2.13296        2.16323
        2.18084        2.20785        2.21976        2.24043        2.31061
        2.31932        2.34553        2.35907        2.36647        2.38476
        2.47014        2.67353        2.69790        2.71602        2.72684
        2.76992        2.80762        2.83668        2.85129        2.88040
        2.88974        2.91565        2.93864        2.95406        2.99198
        3.25033        3.30372        3.31133        3.35290        3.38060
        3.38491        3.39820        3.41428        3.44113        3.45428
        3.51730        3.54826        3.55569        3.56665        3.59454
        3.63627        3.97198        3.99528        4.00044        4.02248
        4.19700        4.23003        4.24610        4.29001        5.08835
        5.19116        5.23811        5.46838        5.47235        5.48481
        5.50860        5.77350        5.83268        5.86340        5.91037
        5.96795        6.00367        6.01403        6.07153       37.00550
       51.45722       51.48154       51.49049       51.52046
 Time used in FCKEIG, thr_jaco:   2.56D-01  6.40D-02  5.57D-09
 CPU and wall times used in FCKEIG, THR_FCKEIG:   2.56D-01  6.40D-02  1.45D-06
 -----------------------------------------------------------------------------

 *** DIIS iteration number   10
 RDSUPM called. NFMAT, ISYMDM(1:NFMAT)                     1
                     1

 ITDIIS, energy, error norm, change in energy, scr.thr., difden:
@ DIIS iter.  10    -361.222744443        5.40477D-05   -1.56D-09  -20    F

 (DIIS_RED) Control Parameters C2DIIS =         F NEVC =    8


 (DIIS_RED) B matrix:

               Column   1     Column   2     Column   3     Column   4     Column   5     Column   6
       1       0.00000002
       2      -0.00000000     0.00000000
       3      -0.00000348    -0.00000124     0.14391576
       4       0.00000003    -0.00000002     0.00670915     0.01020880
       5       0.00000038    -0.00000005     0.00691111     0.00109129     0.00127765
       6      -0.00000007     0.00000000     0.00101091     0.00094165     0.00006594     0.00020007
       7       0.00000013     0.00000002    -0.00004095     0.00001966     0.00006072     0.00000498
       8       0.00000002     0.00000001     0.00001259     0.00000139     0.00000106     0.00000217

               Column   7     Column   8
       7       0.00000686
       8       0.00000059     0.00000020
    ==== End of matrix output ====

 DIIS C vector; C2DIIS = F, LAMBDA = -6.18D-10
    0.166658    0.962543    0.000072   -0.000100   -0.001036    0.001671    0.015918   -0.145727
* Read MO coefficients from SIRIUS.RST with label "NEWORB  " and header info:  9Dec18  DIIS  10
      Virial theorem: -V/T =      2.003622
@    MULPOP   N      -0.71; H       0.40; H       0.43; H       0.37; H       0.42; O      -0.75; O      -0.71; O      -0.64; O      -0.70; H       0.36; 
@             H       0.41; H       0.38; H       0.35; H       0.39; H       0.30; H       0.38; H       0.33; 

 DIIS Fock eigenvalues in symmetry 1
      -20.66244      -20.65071      -20.63552      -20.63027      -15.70593
       -1.42068       -1.41222       -1.41090       -1.39907       -1.33222
       -0.81433       -0.80733       -0.78159       -0.77663       -0.76604
       -0.75840       -0.75039       -0.67756       -0.65877       -0.64973
       -0.64773       -0.60130       -0.59024       -0.58047       -0.57368
       -0.01463        0.00273        0.01280        0.02002        0.03339
        0.03938        0.05108        0.05480        0.06071        0.06886
        0.08843        0.10038        0.14467        0.16118        0.16948
        0.18765        0.19026        0.19719        0.20450        0.21043
        0.21776        0.22506        0.23123        0.23877        0.24525
        0.24948        0.25153        0.26119        0.27361        0.28370
        0.28765        0.29378        0.29853        0.31200        0.31867
        0.33278        0.34699        0.34990        0.37014        0.38286
        0.40378        0.43453        0.45021        0.45890        0.59180
        0.61495        0.62836        0.64602        0.66091        0.66541
        0.67602        0.67892        0.68914        0.70444        0.72915
        0.85217        0.94871        0.95948        1.00265        1.13984
        1.15370        1.15894        1.17950        1.18412        1.18827
        1.19395        1.20960        1.21871        1.22080        1.23505
        1.25351        1.26808        1.28415        1.34089        1.41202
        1.43109        1.44559        1.46269        1.48167        1.48338
        1.50491        1.52270        1.54887        1.57201        1.59304
        1.65685        1.69263        1.71480        1.72587        1.74810
        1.78018        1.80010        1.82851        1.83380        1.84455
        1.88921        1.92206        2.05438        2.13296        2.16323
        2.18084        2.20785        2.21976        2.24043        2.31061
        2.31931        2.34552        2.35907        2.36647        2.38476
        2.47015        2.67353        2.69790        2.71602        2.72684
        2.76992        2.80762        2.83668        2.85129        2.88040
        2.88974        2.91565        2.93864        2.95406        2.99198
        3.25033        3.30372        3.31133        3.35290        3.38060
        3.38491        3.39820        3.41428        3.44113        3.45429
        3.51730        3.54826        3.55569        3.56664        3.59454
        3.63628        3.97198        3.99527        4.00044        4.02248
        4.19700        4.23003        4.24609        4.29002        5.08836
        5.19116        5.23811        5.46838        5.47234        5.48481
        5.50861        5.77350        5.83267        5.86340        5.91038
        5.96795        6.00367        6.01403        6.07154       37.00550
       51.45722       51.48153       51.49048       51.52047
 Time used in FCKEIG, thr_jaco:   1.58D-01  4.00D-02  2.08D-09
 CPU and wall times used in FCKEIG, THR_FCKEIG:   1.58D-01  4.00D-02  5.40D-07
 -----------------------------------------------------------------------------

 *** DIIS iteration number   11
 RDSUPM called. NFMAT, ISYMDM(1:NFMAT)                     1
                     1

 ITDIIS, energy, error norm, change in energy, scr.thr., difden:
@ DIIS iter.  11    -361.222744444        8.94721D-06   -2.52D-10  -20    F

 (DIIS_RED) Control Parameters C2DIIS =         F NEVC =    8


 (DIIS_RED) B matrix:

               Column   1     Column   2     Column   3     Column   4     Column   5     Column   6
       1       0.00000002
       2      -0.00000000     0.00000000
       3       0.00000000     0.00000000     0.00000000
       4       0.00000003    -0.00000002     0.00000009     0.01020880
       5       0.00000038    -0.00000005    -0.00000006     0.00109129     0.00127765
       6      -0.00000007     0.00000000     0.00000002     0.00094165     0.00006594     0.00020007
       7       0.00000013     0.00000002    -0.00000000     0.00001966     0.00006072     0.00000498
       8       0.00000002     0.00000001     0.00000000     0.00000139     0.00000106     0.00000217

               Column   7     Column   8
       7       0.00000686
       8       0.00000059     0.00000020
    ==== End of matrix output ====

 DIIS C vector; C2DIIS = F, LAMBDA = -4.25D-11
   -0.054723   -0.089584    1.137674    0.000020   -0.000025   -0.000346    0.001900    0.005084
* Read MO coefficients from SIRIUS.RST with label "NEWORB  " and header info:  9Dec18  DIIS  11
      Virial theorem: -V/T =      2.003622
@    MULPOP   N      -0.71; H       0.40; H       0.43; H       0.37; H       0.42; O      -0.75; O      -0.71; O      -0.64; O      -0.70; H       0.36; 
@             H       0.41; H       0.38; H       0.35; H       0.39; H       0.30; H       0.38; H       0.33; 

 DIIS Fock eigenvalues in symmetry 1
      -20.66244      -20.65071      -20.63552      -20.63027      -15.70593
       -1.42068       -1.41222       -1.41090       -1.39907       -1.33222
       -0.81433       -0.80733       -0.78159       -0.77663       -0.76604
       -0.75840       -0.75039       -0.67756       -0.65877       -0.64973
       -0.64774       -0.60130       -0.59024       -0.58047       -0.57368
       -0.01463        0.00273        0.01280        0.02002        0.03339
        0.03938        0.05108        0.05480        0.06071        0.06886
        0.08843        0.10038        0.14467        0.16118        0.16948
        0.18765        0.19026        0.19719        0.20450        0.21043
        0.21776        0.22506        0.23123        0.23877        0.24525
        0.24948        0.25153        0.26119        0.27361        0.28370
[...]
       3       0.45419764     0.75893985    -0.46659919
    ==== End of matrix output ====


 CCSD  Transition strength matrix for state nr. 13 of symmetry 1
 CCSD  excitation energy:15.07026084

 Gauge: length

               Column   1     Column   2     Column   3
       1       0.00000003    -0.00000133    -0.00000579
       2      -0.00000133     0.00006621     0.00028759
       3      -0.00000579     0.00028759     0.00124885
    ==== End of matrix output ====

 Principal values of diagonalized transition strength matrix:

             a.u.               
 1      -0.00000002
 2       0.00000000
 3       0.00131511

 Principal axis of diagonalized transition strength matrix:


               Column   1     Column   2     Column   3
       1      -0.15239676     0.98830908    -0.00451512
       2       0.96295737     0.14951275     0.22440822
       3      -0.22245975    -0.02985121     0.97448477
    ==== End of matrix output ====


 CCSD   oscillator strength matrix for state nr. 13 of symmetry 1
 CCSD  excitation energy:15.07026084


               Column   1     Column   2     Column   3
       1       0.00000027    -0.00001337    -0.00005814
       2      -0.00001337     0.00066524     0.00288942
       3      -0.00005814     0.00288942     0.01254704
    ==== End of matrix output ====

 Principal values of diagonalized oscillator strength matrix:

             a.u.               
 1      -0.00000015
 2      -0.00000000
 3       0.01321269

 Principal axis of diagonalized oscillator strength matrix:


               Column   1     Column   2     Column   3
       1      -0.15239676     0.98830908    -0.00451512
       2       0.96295737     0.14951275     0.22440822
       3      -0.22245975    -0.02985121     0.97448477
    ==== End of matrix output ====


 CCSD  Transition strength matrix for state nr. 14 of symmetry 1
 CCSD  excitation energy:15.07898921

 Gauge: length

               Column   1     Column   2     Column   3
       1     1.030592D-04   1.676203D-04  -9.847283D-05
       2     1.676203D-04   2.726126D-04  -1.601721D-04
       3    -9.847283D-05  -1.601721D-04   9.408029D-05
    ==== End of matrix output ====

 Principal values of diagonalized transition strength matrix:

             a.u.               
 1      -0.00000002
 2      -0.00000000
 3       0.00046977

 Principal axis of diagonalized transition strength matrix:


               Column   1     Column   2     Column   3
       1      -0.12943967     0.87399308     0.46838176
       2       0.56024472    -0.32527680     0.76178793
       3       0.81815110     0.36101399    -0.44754629
    ==== End of matrix output ====


 CCSD   oscillator strength matrix for state nr. 14 of symmetry 1
 CCSD  excitation energy:15.07898921


               Column   1     Column   2     Column   3
       1       0.00103602     0.00168503    -0.00098991
       2       0.00168503     0.00274048    -0.00161016
       3      -0.00098991    -0.00161016     0.00094576
    ==== End of matrix output ====

 Principal values of diagonalized oscillator strength matrix:

             a.u.               
 1      -0.00000021
 2       0.00000000
 3       0.00472247

 Principal axis of diagonalized oscillator strength matrix:


               Column   1     Column   2     Column   3
       1      -0.12943967     0.87399308     0.46838176
       2       0.56024472    -0.32527680     0.76178793
       3       0.81815110     0.36101399    -0.44754629
    ==== End of matrix output ====


 CCSD  Transition strength matrix for state nr. 15 of symmetry 1
 CCSD  excitation energy:15.08172696

 Gauge: length

               Column   1     Column   2     Column   3
       1     2.664053D-05  -1.555646D-05  -2.875205D-05
       2    -1.555646D-05   9.083661D-06   1.678916D-05
       3    -2.875205D-05   1.678916D-05   3.103067D-05
    ==== End of matrix output ====

 Principal values of diagonalized transition strength matrix:

             a.u.               
 1      -0.00000000
 2      -0.00000000
 3       0.00006676

 Principal axis of diagonalized transition strength matrix:


               Column   1     Column   2     Column   3
       1       0.64845139     0.42477137    -0.63172785
       2       0.73340681    -0.57099713     0.36888580
       3       0.20402266     0.70251801     0.68179410
    ==== End of matrix output ====


 CCSD   oscillator strength matrix for state nr. 15 of symmetry 1
 CCSD  excitation energy:15.08172696


               Column   1     Column   2     Column   3
       1     2.678568D-04  -1.564122D-04  -2.890870D-04
       2    -1.564122D-04   9.133153D-05   1.688063D-04
       3    -2.890870D-04   1.688063D-04   3.119974D-04
    ==== End of matrix output ====

 Principal values of diagonalized oscillator strength matrix:

             a.u.               
 1      -0.00000000
 2       0.00000000
 3       0.00067119

 Principal axis of diagonalized oscillator strength matrix:


               Column   1     Column   2     Column   3
       1       0.64845139     0.42477137    -0.63172785
       2       0.73340681    -0.57099713     0.36888580
       3       0.20402266     0.70251801     0.68179410
    ==== End of matrix output ====

  Total time for    135 linear response residues:      29.94 seconds.
  

 *******************************************************************************
 *******************************************************************************
 *                                                                             *
 *                                                                             *
 *                   SUMMARY OF COUPLED CLUSTER CALCULATION                    *
 *                                                                             *
 *                                                                             *
 *******************************************************************************
 *******************************************************************************

                                                                                
                                                                                
            Total SCF   energy:                  -361.2227444437                
            Total MP2   energy:                  -362.3479640449                
            Total CCSD  energy:                  -362.3856725002                
                                                                                
                                                                                
            Total SCF   energy:                  -361.2227444437                
            Total RSTAR energy:                  -362.3856725002                
            Total CCSD  energy:                  -362.3857135443                
                                                                                
                                                                                
            Total SCF   energy:                  -361.2227444437                
            Total RSTAR energy:                  -362.3857135443                
            Total CCSD  energy:                  -362.3857153940                
                                                                                
                                                                                
            Total SCF   energy:                  -361.2227444437                
            Total RSTAR energy:                  -362.3857153940                
            Total CCSD  energy:                  -362.3857154894                
                                                                                
                                                                                
            Total SCF   energy:                  -361.2227444437                
            Total RSTAR energy:                  -362.3857154894                
            Total CCSD  energy:                  -362.3857154946                
            CCSD Total  energy:                  -362.7969240543                
            CCSD E(PE-CC)     :                    -0.4083970687                
                                                                                
                                                                                
 +=============================================================================+
 |  sym. | Exci.  |        CCSD       Excitation energies            | ||T1||  |
 |(spin, |        +------------------------------------------------------------+
 | spat) |        |     Hartree    |       eV.      |     cm-1       |    %    |
 +=============================================================================+
 | ^1A   |    1   |    14.9107338  |     405.74171  |   3272527.783  |  88.69  |
 | ^1A   |    2   |    14.9674509  |     407.28506  |   3284975.732  |  88.76  |
 | ^1A   |    3   |    14.9805741  |     407.64216  |   3287855.948  |  88.79  |
 | ^1A   |    4   |    14.9845743  |     407.75101  |   3288733.887  |  88.57  |
 | ^1A   |    5   |    15.0105742  |     408.45850  |   3294440.215  |  88.43  |
 | ^1A   |    6   |    15.0134383  |     408.53644  |   3295068.797  |  88.40  |
 | ^1A   |    7   |    15.0233656  |     408.80657  |   3297247.586  |  88.43  |
 | ^1A   |    8   |    15.0354090  |     409.13429  |   3299890.810  |  88.37  |
 | ^1A   |    9   |    15.0418208  |     409.30876  |   3301298.039  |  88.37  |
 | ^1A   |   10   |    15.0467418  |     409.44267  |   3302378.070  |  88.47  |
 | ^1A   |   11   |    15.0546353  |     409.65747  |   3304110.503  |  88.48  |
 | ^1A   |   12   |    15.0568640  |     409.71811  |   3304599.638  |  88.51  |
 | ^1A   |   13   |    15.0702608  |     410.08266  |   3307539.912  |  88.54  |
 | ^1A   |   14   |    15.0789892  |     410.32017  |   3309455.567  |  88.42  |
 | ^1A   |   15   |    15.0817270  |     410.39467  |   3310056.434  |  88.31  |
 +=============================================================================+
                                                                                
                                                                                
     Total energies in Hartree:                                                 
             1 ^1A       -347.4777931463                                        
             2 ^1A       -347.4210761133                                        
             3 ^1A       -347.4079528843                                        
             4 ^1A       -347.4039527015                                        
             5 ^1A       -347.3779527588                                        
             6 ^1A       -347.3750887285                                        
             7 ^1A       -347.3651614346                                        
             8 ^1A       -347.3531180172                                        
             9 ^1A       -347.3467062108                                        
            10 ^1A       -347.3417852287                                        
            11 ^1A       -347.3338916808                                        
            12 ^1A       -347.3316630207                                        
            13 ^1A       -347.3182661453                                        
            14 ^1A       -347.3095377774                                        
            15 ^1A       -347.3068000270                                        
                                                                                
                                                                                
 +=============================================================================+
 |  sym. | Exci.  |        CCSD       Length   Gauge Oscillator Strength       |
 |(spin, |        +------------------------------------------------------------+
 | spat) |        | Dipole Strength(a.u.) | Oscillator strength  | Direction   |
 +=============================================================================+
 | ^1A   |    1   |        0.0002284      |      0.0022705       |  (Y,Z)      |
 | ^1A   |    2   |        0.0016988      |      0.0169509       |  (Y,Z)      |
 | ^1A   |    3   |        0.0015768      |      0.0157475       |  (Y,Z)      |
 | ^1A   |    4   |        0.0011034      |      0.0110229       |  (Y,Z)      |
 | ^1A   |    5   |        0.0009254      |      0.0092609       |  (Y,Z)      |
 | ^1A   |    6   |        0.0009271      |      0.0092793       |  (Y,Z)      |
 | ^1A   |    7   |        0.0006042      |      0.0060519       |  (Y,Z)      |
 | ^1A   |    8   |        0.0003345      |      0.0033524       |  (Y,Z)      |
 | ^1A   |    9   |        0.0000710      |      0.0007115       |  (Y,Z)      |
 | ^1A   |   10   |        0.0006082      |      0.0061007       |  (Y,Z)      |
 | ^1A   |   11   |        0.0006968      |      0.0069930       |  (Y,Z)      |
 | ^1A   |   12   |        0.0006050      |      0.0060731       |  (Y,Z)      |
 | ^1A   |   13   |        0.0013151      |      0.0132125       |  (Y,Z)      |
 | ^1A   |   14   |        0.0004698      |      0.0047223       |  (Y,Z)      |
 | ^1A   |   15   |        0.0000668      |      0.0006712       |  (Y,Z)      |
 +=============================================================================+

  1 a.u. =        27.21138 eV.  
  1 a.u. =    219474.62934 cm-1.
  

 *******************************************************************************
 *******************************************************************************
 *                                                                             *
 *                                                                             *
 *                      END OF COUPLED CLUSTER CALCULATION                     *
 *                                                                             *
 *                                                                             *
 *******************************************************************************
 *******************************************************************************


 CPU and wall time for CC :  535159.042  175982.531

 
     Date and time (Linux)  : Tue Dec 11 13:15:02 2018
     Host name              : s71p21.deic.sdu.dk                      


                      .-------------------------------------.
                      | End of Coupled Cluster Section (CC) |
                      `-------------------------------------'

  Total CPU  time used in DALTON: 148 hours 45 minutes 25 seconds
  Total wall time used in DALTON:  48 hours 56 minutes  0 seconds

 
     Date and time (Linux)  : Tue Dec 11 13:15:02 2018
     Host name              : s71p21.deic.sdu.dk                      
  

 +---------------------------------------------------------+ 
 | List of selected calculated molecular properties (a.u.) | 
 +---------------------------------------------------------+ 

  Properties are read from unit number                      4

 CCSD       properties :
 #  1 1 PE-CCSD  Ground state Energy =    -362.7969240543
 #  2 1 E(PE-CC) Ground state Energy =      -0.4083970687
 #  3 1 Sy: 1 Sp: 1 Exc:  1 E_tot:   -347.4777931463 w:     14.9107338393 E_grs:   -362.3885269856
 #  4 1 Exctot   Excited state Energy =    -347.4777931463
 #  5 1 Sy: 1 Sp: 1 Exc:  2 E_tot:   -347.4210761133 w:     14.9674508724 E_grs:   -362.3885269856
 #  6 1 Exctot   Excited state Energy =    -347.4210761133
 #  7 1 Sy: 1 Sp: 1 Exc:  3 E_tot:   -347.4079528843 w:     14.9805741013 E_grs:   -362.3885269856
 #  8 1 Exctot   Excited state Energy =    -347.4079528843
 #  9 1 Sy: 1 Sp: 1 Exc:  4 E_tot:   -347.4039527015 w:     14.9845742842 E_grs:   -362.3885269856
 # 10 1 Exctot   Excited state Energy =    -347.4039527015
 # 11 1 Sy: 1 Sp: 1 Exc:  5 E_tot:   -347.3779527588 w:     15.0105742268 E_grs:   -362.3885269856
 # 12 1 Exctot   Excited state Energy =    -347.3779527588
 # 13 1 Sy: 1 Sp: 1 Exc:  6 E_tot:   -347.3750887285 w:     15.0134382571 E_grs:   -362.3885269856
 # 14 1 Exctot   Excited state Energy =    -347.3750887285
 # 15 1 Sy: 1 Sp: 1 Exc:  7 E_tot:   -347.3651614346 w:     15.0233655510 E_grs:   -362.3885269856
 # 16 1 Exctot   Excited state Energy =    -347.3651614346
 # 17 1 Sy: 1 Sp: 1 Exc:  8 E_tot:   -347.3531180172 w:     15.0354089684 E_grs:   -362.3885269856
 # 18 1 Exctot   Excited state Energy =    -347.3531180172
 # 19 1 Sy: 1 Sp: 1 Exc:  9 E_tot:   -347.3467062108 w:     15.0418207749 E_grs:   -362.3885269856
 # 20 1 Exctot   Excited state Energy =    -347.3467062108
 # 21 1 Sy: 1 Sp: 1 Exc: 10 E_tot:   -347.3417852287 w:     15.0467417570 E_grs:   -362.3885269856
 # 22 1 Exctot   Excited state Energy =    -347.3417852287
 # 23 1 Sy: 1 Sp: 1 Exc: 11 E_tot:   -347.3338916808 w:     15.0546353048 E_grs:   -362.3885269856
 # 24 1 Exctot   Excited state Energy =    -347.3338916808
 # 25 1 Sy: 1 Sp: 1 Exc: 12 E_tot:   -347.3316630207 w:     15.0568639649 E_grs:   -362.3885269856
 # 26 1 Exctot   Excited state Energy =    -347.3316630207
 # 27 1 Sy: 1 Sp: 1 Exc: 13 E_tot:   -347.3182661453 w:     15.0702608403 E_grs:   -362.3885269856
 # 28 1 Exctot   Excited state Energy =    -347.3182661453
 # 29 1 Sy: 1 Sp: 1 Exc: 14 E_tot:   -347.3095377774 w:     15.0789892083 E_grs:   -362.3885269856
 # 30 1 Exctot   Excited state Energy =    -347.3095377774
 # 31 1 Sy: 1 Sp: 1 Exc: 15 E_tot:   -347.3068000270 w:     15.0817269586 E_grs:   -362.3885269856
 # 32 1 Exctot   Excited state Energy =    -347.3068000270
 # 33 1 |<O|XDIPLEN |i(14.910734)>| =     0.00440347
 # 35 1 |<O|XDIPLEN |i(14.967451)>| =     0.00768051
 # 37 1 |<O|XDIPLEN |i(14.980574)>| =     0.03146891
 # 39 1 |<O|XDIPLEN |i(14.984574)>| =     0.01605931
 # 41 1 |<O|XDIPLEN |i(15.010574)>| =     0.02932055
 # 43 1 |<O|XDIPLEN |i(15.013438)>| =     0.00749572
 # 45 1 |<O|XDIPLEN |i(15.023366)>| =     0.00999975
 # 47 1 |<O|XDIPLEN |i(15.035409)>| =     0.00156469
 # 49 1 |<O|XDIPLEN |i(15.041821)>| =     0.00608985
 # 51 1 |<O|XDIPLEN |i(15.046742)>| =     0.02445587
 # 53 1 |<O|XDIPLEN |i(15.054635)>| =     0.01180623
 # 55 1 |<O|XDIPLEN |i(15.056864)>| =     0.02174798
 # 57 1 |<O|XDIPLEN |i(15.070261)>| =     0.00016266
 # 59 1 |<O|XDIPLEN |i(15.078989)>| =     0.01015181
 # 61 1 |<O|XDIPLEN |i(15.081727)>| =     0.00516145
 # 63 1 |<O|YDIPLEN |i(14.910734)>| =     0.01230552
 # 65 1 |<O|YDIPLEN |i(14.967451)>| =     0.04036933
 # 67 1 |<O|YDIPLEN |i(14.980574)>| =     0.01804421
 # 69 1 |<O|YDIPLEN |i(14.984574)>| =     0.01120647
 # 71 1 |<O|YDIPLEN |i(15.010574)>| =     0.00418514
 # 73 1 |<O|YDIPLEN |i(15.013438)>| =     0.02076890
 # 75 1 |<O|YDIPLEN |i(15.023366)>| =     0.01208380
 # 77 1 |<O|YDIPLEN |i(15.035409)>| =     0.01272625
 # 79 1 |<O|YDIPLEN |i(15.041821)>| =     0.00314271
 # 81 1 |<O|YDIPLEN |i(15.046742)>| =     0.00258981
 # 83 1 |<O|YDIPLEN |i(15.054635)>| =     0.02247325
 # 85 1 |<O|YDIPLEN |i(15.056864)>| =     0.00056226
 # 87 1 |<O|YDIPLEN |i(15.070261)>| =     0.00813718
 # 89 1 |<O|YDIPLEN |i(15.078989)>| =     0.01651099
 # 91 1 |<O|YDIPLEN |i(15.081727)>| =     0.00301391
 # 93 1 |<O|ZDIPLEN |i(14.910734)>| =     0.00758923
 # 95 1 |<O|ZDIPLEN |i(14.967451)>| =     0.00317908
 # 97 1 |<O|ZDIPLEN |i(14.980574)>| =     0.01615244
 # 99 1 |<O|ZDIPLEN |i(14.984574)>| =     0.02683161
 #101 1 |<O|ZDIPLEN |i(15.010574)>| =     0.00694465
 #103 1 |<O|ZDIPLEN |i(15.013438)>| =     0.02096584
 #105 1 |<O|ZDIPLEN |i(15.023366)>| =     0.01892705
 #107 1 |<O|ZDIPLEN |i(15.035409)>| =     0.01304023
 #109 1 |<O|ZDIPLEN |i(15.041821)>| =     0.00489787
 #111 1 |<O|ZDIPLEN |i(15.046742)>| =     0.00183900
 #113 1 |<O|ZDIPLEN |i(15.054635)>| =     0.00723370
 #115 1 |<O|ZDIPLEN |i(15.056864)>| =     0.01147698
 #117 1 |<O|ZDIPLEN |i(15.070261)>| =     0.03533913
 #119 1 |<O|ZDIPLEN |i(15.078989)>| =     0.00969950
 #121 1 |<O|ZDIPLEN |i(15.081727)>| =     0.00557052

 THE_END   
