

     ************************************************************************
     *************** Dalton - An Electronic Structure Program ***************
     ************************************************************************

    This is output from DALTON release Dalton2017.alpha (2016)
         ( Web site: http://daltonprogram.org )

   ----------------------------------------------------------------------------

    NOTE:
     
    Dalton is an experimental code for the evaluation of molecular
    properties using (MC)SCF, DFT, CI, and CC wave functions.
    The authors accept no responsibility for the performance of
    the code or for the correctness of the results.
     
    The code (in whole or part) is provided under a licence and
    is not to be reproduced for further distribution without
    the written permission of the authors or their representatives.
     
    See the home page "http://daltonprogram.org" for further information.
     
    If results obtained with this code are published,
    the appropriate citations would be both of:
     
       K. Aidas, C. Angeli, K. L. Bak, V. Bakken, R. Bast,
       L. Boman, O. Christiansen, R. Cimiraglia, S. Coriani,
       P. Dahle, E. K. Dalskov, U. Ekstroem,
       T. Enevoldsen, J. J. Eriksen, P. Ettenhuber, B. Fernandez,
       L. Ferrighi, H. Fliegl, L. Frediani, K. Hald, A. Halkier,
       C. Haettig, H. Heiberg, T. Helgaker, A. C. Hennum,
       H. Hettema, E. Hjertenaes, S. Hoest, I.-M. Hoeyvik,
       M. F. Iozzi, B. Jansik, H. J. Aa. Jensen, D. Jonsson,
       P. Joergensen, J. Kauczor, S. Kirpekar,
       T. Kjaergaard, W. Klopper, S. Knecht, R. Kobayashi, H. Koch,
       J. Kongsted, A. Krapp, K. Kristensen, A. Ligabue,
       O. B. Lutnaes, J. I. Melo, K. V. Mikkelsen, R. H. Myhre,
       C. Neiss, C. B. Nielsen, P. Norman, J. Olsen,
       J. M. H. Olsen, A. Osted, M. J. Packer, F. Pawlowski,
       T. B. Pedersen, P. F. Provasi, S. Reine, Z. Rinkevicius,
       T. A. Ruden, K. Ruud, V. Rybkin, P. Salek, C. C. M. Samson,
       A. Sanchez de Meras, T. Saue, S. P. A. Sauer,
       B. Schimmelpfennig, K. Sneskov, A. H. Steindal,
       K. O. Sylvester-Hvid, P. R. Taylor, A. M. Teale,
       E. I. Tellgren, D. P. Tew, A. J. Thorvaldsen, L. Thoegersen,
       O. Vahtras, M. A. Watson, D. J. D. Wilson, M. Ziolkowski
       and H. Agren,
       "The Dalton quantum chemistry program system",
       WIREs Comput. Mol. Sci. 2014, 4:269–284 (doi: 10.1002/wcms.1172)
     
    and
     
       Dalton, a Molecular Electronic Structure Program,
       Release Dalton2017.alpha (2016), see http://daltonprogram.org
   ----------------------------------------------------------------------------

    Authors in alphabetical order (major contribution(s) in parenthesis):

  Kestutis Aidas,           Vilnius University,           Lithuania   (QM/MM)
  Celestino Angeli,         University of Ferrara,        Italy       (NEVPT2)
  Keld L. Bak,              UNI-C,                        Denmark     (AOSOPPA, non-adiabatic coupling, magnetic properties)
  Vebjoern Bakken,          University of Oslo,           Norway      (DALTON; geometry optimizer, symmetry detection)
  Radovan Bast,             UiT The Arctic U. of Norway,  Norway      (DALTON installation and execution frameworks)
  Pablo Baudin,             University of Valencia,       Spain       (Cholesky excitation energies)
  Linus Boman,              NTNU,                         Norway      (Cholesky decomposition and subsystems)
  Ove Christiansen,         Aarhus University,            Denmark     (CC module)
  Renzo Cimiraglia,         University of Ferrara,        Italy       (NEVPT2)
  Sonia Coriani,            University of Trieste,        Italy       (CC module, MCD in RESPONS)
  Janusz Cukras,            University of Trieste,        Italy       (MChD in RESPONS)
  Paal Dahle,               University of Oslo,           Norway      (Parallelization)
  Erik K. Dalskov,          UNI-C,                        Denmark     (SOPPA)
  Thomas Enevoldsen,        Univ. of Southern Denmark,    Denmark     (SOPPA)
  Janus J. Eriksen,         Aarhus University,            Denmark     (Polarizable embedding model, TDA)
  Rasmus Faber,             University of Copenhagen,     Denmark     (Vib.avg. NMR with SOPPA, parallel AO-SOPPA)
  Berta Fernandez,          U. of Santiago de Compostela, Spain       (doublet spin, ESR in RESPONS)
  Lara Ferrighi,            Aarhus University,            Denmark     (PCM Cubic response)
  Heike Fliegl,             University of Oslo,           Norway      (CCSD(R12))
  Luca Frediani,            UiT The Arctic U. of Norway,  Norway      (PCM)
  Bin Gao,                  UiT The Arctic U. of Norway,  Norway      (Gen1Int library)
  Christof Haettig,         Ruhr-University Bochum,       Germany     (CC module)
  Kasper Hald,              Aarhus University,            Denmark     (CC module)
  Asger Halkier,            Aarhus University,            Denmark     (CC module)
  Frederik Beyer Hansen,    University of Copenhagen,     Denmark     (Parallel AO-SOPPA)
  Erik D. Hedegaard,        Univ. of Southern Denmark,    Denmark     (Polarizable embedding model, QM/MM)
  Hanne Heiberg,            University of Oslo,           Norway      (geometry analysis, selected one-electron integrals)
  Trygve Helgaker,          University of Oslo,           Norway      (DALTON; ABACUS, ERI, DFT modules, London, and much more)
  Alf Christian Hennum,     University of Oslo,           Norway      (Parity violation)
  Hinne Hettema,            University of Auckland,       New Zealand (quadratic response in RESPONS; SIRIUS supersymmetry)
  Eirik Hjertenaes,         NTNU,                         Norway      (Cholesky decomposition)
  Pi A. B. Haase,           University of Copenhagen,     Denmark     (Triplet AO-SOPPA)
  Maria Francesca Iozzi,    University of Oslo,           Norway      (RPA)
  Brano Jansik              Technical Univ. of Ostrava    Czech Rep.  (DFT cubic response)
  Hans Joergen Aa. Jensen,  Univ. of Southern Denmark,    Denmark     (DALTON; SIRIUS, RESPONS, ABACUS modules, London, and much more)
  Dan Jonsson,              UiT The Arctic U. of Norway,  Norway      (cubic response in RESPONS module)
  Poul Joergensen,          Aarhus University,            Denmark     (RESPONS, ABACUS, and CC modules)
  Maciej Kaminski,          University of Warsaw,         Poland      (CPPh in RESPONS)
  Joanna Kauczor,           Linkoeping University,        Sweden      (Complex polarization propagator (CPP) module)
  Sheela Kirpekar,          Univ. of Southern Denmark,    Denmark     (Mass-velocity & Darwin integrals)
  Wim Klopper,              KIT Karlsruhe,                Germany     (R12 code in CC, SIRIUS, and ABACUS modules)
  Stefan Knecht,            ETH Zurich,                   Switzerland (Parallel CI and MCSCF)
  Rika Kobayashi,           Australian National Univ.,    Australia   (DIIS in CC, London in MCSCF)
  Henrik Koch,              NTNU,                         Norway      (CC module, Cholesky decomposition)
  Jacob Kongsted,           Univ. of Southern Denmark,    Denmark     (Polarizable embedding model, QM/MM)
  Andrea Ligabue,           University of Modena,         Italy       (CTOCD, AOSOPPA)
  Nanna H. List             Univ. of Southern Denmark,    Denmark     (Polarizable embedding model)
  Ola B. Lutnaes,           University of Oslo,           Norway      (DFT Hessian)
  Juan I. Melo,             University of Buenos Aires,   Argentina   (LRESC, Relativistic Effects on NMR Shieldings)
  Kurt V. Mikkelsen,        University of Copenhagen,     Denmark     (MC-SCRF and QM/MM)
  Rolf H. Myhre,            NTNU,                         Norway      (Cholesky, subsystems and ECC2)
  Christian Neiss,          Univ. Erlangen-Nuernberg,     Germany     (CCSD(R12))
  Christian B. Nielsen,     University of Copenhagen,     Denmark     (QM/MM)
  Patrick Norman,           Linkoeping University,        Sweden      (Cubic response and complex frequency response in RESPONS)
  Jeppe Olsen,              Aarhus University,            Denmark     (SIRIUS CI/density modules)
  Jogvan Magnus H. Olsen,   Univ. of Southern Denmark,    Denmark     (Polarizable embedding model, QM/MM)
  Anders Osted,             Copenhagen University,        Denmark     (QM/MM)
  Martin J. Packer,         University of Sheffield,      UK          (SOPPA)
  Filip Pawlowski,          Kazimierz Wielki University,  Poland      (CC3)
  Morten N. Pedersen,       Univ. of Southern Denmark,    Denmark     (Polarizable embedding model)
  Thomas B. Pedersen,       University of Oslo,           Norway      (Cholesky decomposition)
  Patricio F. Provasi,      University of Northeastern,   Argentina   (Analysis of coupling constants in localized orbitals)
  Zilvinas Rinkevicius,     KTH Stockholm,                Sweden      (open-shell DFT, ESR)
  Elias Rudberg,            KTH Stockholm,                Sweden      (DFT grid and basis info)
  Torgeir A. Ruden,         University of Oslo,           Norway      (Numerical derivatives in ABACUS)
  Kenneth Ruud,             UiT The Arctic U. of Norway,  Norway      (DALTON; ABACUS magnetic properties and much more)
  Pawel Salek,              KTH Stockholm,                Sweden      (DALTON; DFT code)
  Claire C. M. Samson       University of Karlsruhe       Germany     (Boys localization, r12 integrals in ERI)
  Alfredo Sanchez de Meras, University of Valencia,       Spain       (CC module, Cholesky decomposition)
  Trond Saue,               Paul Sabatier University,     France      (direct Fock matrix construction)
  Stephan P. A. Sauer,      University of Copenhagen,     Denmark     (SOPPA(CCSD), SOPPA prop., AOSOPPA, vibrational g-factors)
  Bernd Schimmelpfennig,    Forschungszentrum Karlsruhe,  Germany     (AMFI module)
  Kristian Sneskov,         Aarhus University,            Denmark     (Polarizable embedding model, QM/MM)
  Arnfinn H. Steindal,      UiT The Arctic U. of Norway,  Norway      (parallel QM/MM, Polarizable embedding model)
  Casper Steinmann,         Univ. of Southern Denmark,    Denmark     (QFIT, Polarizable embedding model)
  K. O. Sylvester-Hvid,     University of Copenhagen,     Denmark     (MC-SCRF)
  Peter R. Taylor,          VLSCI/Univ. of Melbourne,     Australia   (Symmetry handling ABACUS, integral transformation)
  Andrew M. Teale,          University of Nottingham,     England     (DFT-AC, DFT-D)
  David P. Tew,             University of Bristol,        England     (CCSD(R12))
  Olav Vahtras,             KTH Stockholm,                Sweden      (triplet response, spin-orbit, ESR, TDDFT, open-shell DFT)
  David J. Wilson,          La Trobe University,          Australia   (DFT Hessian and DFT magnetizabilities)
  Hans Agren,               KTH Stockholm,                Sweden      (SIRIUS module, RESPONS, MC-SCRF solvation model)
 --------------------------------------------------------------------------------

     Date and time (Linux)  : Sun Dec  9 12:19:02 2018
     Host name              : s71p21.deic.sdu.dk                      

 * Work memory size             :  2048000000 = 15.259 gigabytes.

 * Directories for basis set searches:
   1) /work/sdujk/reinholdt/ECP-Sonia/6-311++G**
   2) /gpfs/gss1/work/sdujk/reinholdt/Programs/dalton-private/pe-cvs/basis


Compilation information
-----------------------

 Who compiled             | reinholdt
 Host                     | fe1.deic.sdu.dk
 System                   | Linux-3.10.0-327.36.3.el7.x86_64
 CMake generator          | Unix Makefiles
 Processor                | x86_64
 64-bit integers          | ON
 MPI                      | OFF
 Fortran compiler         | /opt/sys/apps/intel/2018.05/compilers_and_librarie
                          | s_2018.3.222/linux/bin/intel64/ifort
 Fortran compiler version | ifort (IFORT) 18.0.3 20180410
 C compiler               | /opt/sys/apps/intel/2018.05/compilers_and_librarie
                          | s_2018.3.222/linux/bin/intel64/icc
 C compiler version       | icc (ICC) 18.0.3 20180410
 C++ compiler             | /opt/sys/apps/intel/2018.05/compilers_and_librarie
                          | s_2018.3.222/linux/bin/intel64/icpc
 C++ compiler version     | icpc (ICC) 18.0.3 20180410
 Static linking           | OFF
 Last Git revision        | 252a54078a0f9a1f0a59b3262fa4a57829155fe9
 Git branch               | pe/cc-cvs
 Configuration time       | 2018-12-09 12:09:40.474621


   Content of the .dal input file
 ----------------------------------

**DALTON
.RUN WAVE FUNCTIONS
.PEQM
**INTEGRALS
.DIPLEN
**WAVE FUNCTIONS
.CC
*PRINT
!To check the origin of excit
.PRINTL
   0 11
*SCF INP
.THRESH
1.0D-7
*CC INP
.CCSD
.THRLEQ
 1.0D-9
.THRENR
 1.0D-10
.FROIMP
4
0
.PRINT
 1
.MAX IT
 1200
.MAXRED
 1200
.MXLRV
1199
*PECC
*CCEXCI
.NCCEXC
 15
.CVSEPARA
1
1
*CCLRSD
.DIPOLE
**END OF DALTON INPUT


   Content of the .mol file
 ----------------------------

ATOMBASIS


Atomtypes=5 Charge=0 Nosymm Angstrom
   7.00000    1    Basis=6-311++G**
N          0.000000        0.000000        0.000000
   1.00000    3    Basis=6-311++G**
H         -0.289697       -0.595427       -0.786813
H          0.725456       -0.549821        0.359388
H         -0.662062       -0.013191        0.779102
   8.00000    4    Basis=6-311++G**
O         -1.568349       -1.999512       -1.363307
O          1.970561       -2.148947        0.621290
O          0.430559        2.677908       -0.288482
O         -3.104181        0.240492        1.996511
   1.00000    8    Basis=6-311++G**
H         -0.853407       -2.521728       -1.772188
H         -2.401309       -2.086574       -1.991420
H          2.758511       -2.517247        0.173949
H          1.247031       -2.187999       -0.034818
H          1.362711        3.056804       -0.043166
H          0.396938        1.667331       -0.210000
H         -3.490122        0.621238        1.201654
H         -2.592811        0.919226        2.434691
Charge=8.0   Atoms=59    Basis=pointcharge ECP=pe_ecp
  1       -5.884192        2.072011        5.232433
  2       -5.431146       -4.045338        3.432353
  3       -1.108215        0.223878        5.050136
  4       -3.581423        3.886928        4.631305
  5       -2.896927       -2.369203        0.862297
  6        3.699383        0.425128       -0.336060
  7       -6.022355        2.823650       -4.505994
  8        1.555550       -5.327152       -5.701605
  9        4.742822       -3.658373       -3.127807
 10       -2.224101        1.354316       -3.897442
 11       -1.211095        4.779385       -3.648722
 12       -4.822319        1.009220       -0.149509
 13       -5.307033        6.129008        0.675180
 14        4.806486        2.828685        3.096477
 15        2.169134       -0.662590       -2.286429
 16       -3.526615       -5.608348        5.985987
 17       -5.967114        3.299109        0.919212
 18       -2.499189       -3.008348        5.744733
 19        2.335048       -4.998741        4.226298
 20        4.881299       -4.290656        5.208608
 21        1.660144        3.149387        5.619443
 22        5.351372        5.737809        6.185510
 23        3.220735        5.705666        1.712976
 24        1.363792       -0.472091        3.971245
 25        0.218805       -5.676924       -2.202516
 26       -0.054225        2.257666       -2.905301
 27       -5.848176       -1.394944        0.084085
 28        3.399266        4.856706        4.410447
 29        2.728821        1.386658        2.135951
 30        2.208307        1.554285       -4.525134
 31        0.096582       -3.115774       -2.876887
 32        3.915663        3.457043       -3.548004
 33        4.984216        2.436424       -1.317120
 34        3.451325       -6.088325       -3.962451
 35       -1.824209       -4.198585        2.462633
 36        0.205117       -2.821739       -5.580696
 37        4.253589       -3.004786       -0.577440
 38       -1.719049        2.721362        2.798417
 39       -0.878175        5.571635       -6.096768
 40       -1.714851        4.168639        0.288217
 41       -3.816312       -4.620076       -1.558513
 42        2.502633        5.817703       -1.243765
 43       -3.979536        2.706834       -2.286091
 44        0.477899        5.798502        1.938071
 45        2.547087       -0.926674       -6.085935
 46        5.078172       -4.804773        1.552361
 47        0.832642        3.153860        2.917938
 48       -6.188322       -0.482356       -3.536654
 49        3.038085        3.446375        0.303958
 50       -3.938893        5.722595       -3.761465
 51       -1.381712       -5.540273       -0.196613
 52       -3.416057       -1.173054       -4.547926
 53        5.218140       -1.819335       -5.629780
 54        0.790852       -3.288347        2.768425
 55       -3.810080       -6.104549        2.865031
 56       -1.131683        2.779789       -6.210395
 57       -4.010414       -1.775613        3.742351
 58       -5.322480       -0.564770        5.709261
 59       -4.219748       -2.120198       -2.269393


       *******************************************************************
       *********** Output from DALTON general input processing ***********
       *******************************************************************

 --------------------------------------------------------------------------------
   Overall default print level:    0
   Print level for DALTON.STAT:    1

    HERMIT 1- and 2-electron integral sections will be executed
    "Old" integral transformation used (limited to max 255 basis functions)
    Wave function sections will be executed (SIRIUS module)
    Environment is modeled using polarizable embedding scheme (PE library)
 --------------------------------------------------------------------------------


   ****************************************************************************
   *************** Output of molecule and basis set information ***************
   ****************************************************************************


    The two title cards from your ".mol" input:
    ------------------------------------------------------------------------
 1:                                                                         
 2:                                                                         
    ------------------------------------------------------------------------

  Coordinates are entered in Angstrom and converted to atomic units.
          - Conversion factor : 1 bohr = 0.52917721 A

  Atomic type no.    1
  --------------------
  Nuclear charge:   7.00000
  Number of symmetry independent centers:    1
  Number of basis sets to read;    2
  The basis set is "6-311++G**" from the basis set library.
  Basis set file used for this atomic type with Z =   7 :
     "/gpfs/gss1/work/sdujk/reinholdt/Programs/dalton-private/pe-cvs/basis/6-311++G**"

  Info about the basis set file: your basis has no documentation.
  Basis set: 6-311++G**                                                                      

  Atomic type no.    2
  --------------------
  Nuclear charge:   1.00000
  Number of symmetry independent centers:    3
  Number of basis sets to read;    2
  The basis set is "6-311++G**" from the basis set library.
  Basis set file used for this atomic type with Z =   1 :
     "/gpfs/gss1/work/sdujk/reinholdt/Programs/dalton-private/pe-cvs/basis/6-311++G**"

  Info about the basis set file: your basis has no documentation.
  Basis set: 6-311++G**                                                                      

  Atomic type no.    3
  --------------------
  Nuclear charge:   8.00000
  Number of symmetry independent centers:    4
  Number of basis sets to read;    2
  The basis set is "6-311++G**" from the basis set library.
  Basis set file used for this atomic type with Z =   8 :
     "/gpfs/gss1/work/sdujk/reinholdt/Programs/dalton-private/pe-cvs/basis/6-311++G**"

  Info about the basis set file: your basis has no documentation.
  Basis set: 6-311++G**                                                                      

  Atomic type no.    4
  --------------------
  Nuclear charge:   1.00000
  Number of symmetry independent centers:    8
  Number of basis sets to read;    2
  The basis set is "6-311++G**" from the basis set library.
  Basis set file used for this atomic type with Z =   1 :
     "/gpfs/gss1/work/sdujk/reinholdt/Programs/dalton-private/pe-cvs/basis/6-311++G**"

  Info about the basis set file: your basis has no documentation.
  Basis set: 6-311++G**                                                                      

  Atomic type no.    5
  --------------------
  Nuclear charge:   8.00000
  Number of symmetry independent centers:   59
  Number of basis sets to read;    2
     "/work/sdujk/reinholdt/ECP-Sonia/6-311++G**/ecp_data/pe_ecp"
     Pseudo potential parameters for ECP type  1.
     -----------------------------------------------
     Atomic charge  :  8.0
     Effectiv charge:  0.0
     Core electrons :    8
     Max angular mom:    2
  This is a point charge without basis functions.


                         SYMGRP: Point group information
                         -------------------------------

@    Point group: C1 


                                 Isotopic Masses
                                 ---------------

                           N          14.003074
                           H           1.007825
                           H           1.007825
                           H           1.007825
                           O          15.994915
                           O          15.994915
                           O          15.994915
                           O          15.994915
                           H           1.007825
                           H           1.007825
                           H           1.007825
                           H           1.007825
                           H           1.007825
                           H           1.007825
                           H           1.007825
                           H           1.007825

                       Total mass:    89.068809 amu
                       Natural abundance:  98.514 %

 Center-of-mass coordinates (a.u.):   -0.852043   -0.507392    0.330182


  Atoms and basis sets
  --------------------

  Number of atom types :    5
  Total number of atoms:   75

  label    atoms   charge   prim   cont     basis
  ----------------------------------------------------------------------
  N           1    7.0000    35    22      [12s6p1d|5s4p1d]                                   
  H           3    1.0000     9     7      [6s1p|4s1p]                                        
  O           4    8.0000    35    22      [12s6p1d|5s4p1d]                                   
  H           8    1.0000     9     7      [6s1p|4s1p]                                        
   5         59    0.0000     0     0      Point Charge                                       
  ----------------------------------------------------------------------
  total:     75   50.0000   274   187
  ----------------------------------------------------------------------
  Spherical harmonic basis used.

  Threshold for neglecting AO integrals:  1.00D-12


  Cartesian Coordinates (a.u.)
  ----------------------------

  Total number of coordinates:  225
  N       :     1  x   0.0000000000    2  y   0.0000000000    3  z   0.0000000000
  H       :     4  x  -0.5474479892    5  y  -1.1251939574    6  z  -1.4868610816
  H       :     7  x   1.3709131557    8  y  -1.0390111078    9  z   0.6791448926
  H       :    10  x  -1.2511158578   11  y  -0.0249273773   12  z   1.4722894034
  O       :    13  x  -2.9637500784   14  y  -3.7785300636   15  z  -2.5762768543
  O       :    16  x   3.7238206026   17  y  -4.0609212871   18  z   1.1740679442
  O       :    19  x   0.8136385907   20  y   5.0605127079   21  z  -0.5451519720
  O       :    22  x  -5.8660519324   23  y   0.4544640153   24  z   3.7728589955
  H       :    25  x  -1.6127055032   26  y  -4.7653752817   27  z  -3.3489499620
  H       :    28  x  -4.5378163515   29  y  -3.9430533995   30  z  -3.7632383998
  H       :    31  x   5.2128303028   32  y  -4.7569074190   33  z   0.3287159697
  H       :    34  x   2.3565470594   35  y  -4.1347188718   36  z  -0.0657964842
  H       :    37  x   2.5751505775   38  y   5.7765223778   39  z  -0.0815719179
  H       :    40  x   0.7501041086   41  y   3.1507989497   42  z  -0.3968424862
  H       :    43  x  -6.5953747228   44  y   1.1739696784   45  z   2.2707969570
  H       :    46  x  -4.8997026839   47  y   1.7370853870   48  z   4.6008991890
    1     :    49  x -11.1195113469   50  y   3.9155333180   51  z   9.8878653374
    2     :    52  x -10.2633784849   53  y  -7.6445809030   54  z   6.4862071343
    3     :    55  x  -2.0942228376   56  y   0.4230681054   57  z   9.5433739340
    4     :    58  x  -6.7679086078   59  y   7.3452293876   60  z   8.7518980513
    5     :    61  x  -5.4743986341   62  y  -4.4771448045   63  z   1.6295051684
    6     :    64  x   6.9908207015   65  y   0.8033754881   66  z  -0.6350613616
    7     :    67  x -11.3806015775   68  y   5.3359251728   69  z  -8.5150945809
    8     :    70  x   2.9395634737   71  y -10.0668583062   72  z -10.7744719229
    9     :    73  x   8.9626346396   74  y  -6.9133230331   75  z  -5.9106986018
   10     :    76  x  -4.2029417643   77  y   2.5592863267   78  z  -7.3650979680
   11     :    79  x  -2.2886378613   80  y   9.0317286959   81  z  -6.8950852862
   12     :    82  x  -9.1128621974   83  y   1.9071493999   84  z  -0.2825310632
   13     :    85  x -10.0288389063   86  y  11.5821465379   87  z   1.2759052851
   14     :    88  x   9.0829421636   89  y   5.3454399439   90  z   5.8514934823
   15     :    91  x   4.0990691884   92  y  -1.2521136332   93  z  -4.3207246142
   16     :    94  x  -6.6643364983   95  y -10.5982417337   96  z  11.3118760178
   17     :    97  x -11.2762112166   98  y   6.2344124665   99  z   1.7370589308
   18     :   100  x  -4.7227827446  101  y  -5.6849538087  102  z  10.8559720312
   19     :   103  x   4.4126012087  104  y  -9.4462514598  105  z   7.9865457426
   20     :   106  x   9.2243182442  107  y  -8.1081647366  108  z   9.8428426125
   21     :   109  x   3.1372174881  110  y   5.9514788916  111  z  10.6192082450
   22     :   112  x  10.1126274730  113  y  10.8428875675  114  z  11.6889198434
   23     :   115  x   6.0863070712  116  y  10.7821461007  117  z   3.2370554987
   24     :   118  x   2.5771933715  119  y  -0.8921226961  120  z   7.5045654253
   25     :   121  x   0.4134815248  122  y -10.7278315924  123  z  -4.1621520259
   26     :   124  x  -0.1024703991  125  y   4.2663704217  126  z  -5.4902232007
   27     :   127  x -11.0514509708  128  y  -2.6360621197  129  z   0.1588976212
   28     :   130  x   6.4236817660  131  y   9.1778442096  132  z   8.3345369188
   29     :   133  x   5.1567243341  134  y   2.6204038490  135  z   4.0363624064
   30     :   136  x   4.1730954299  137  y   2.9371729702  138  z  -8.5512639389
   31     :   139  x   0.1825135286  140  y  -5.8879595274  141  z  -5.4365285226
   32     :   142  x   7.3995306678  143  y   6.5328644723  144  z  -6.7047558504
   33     :   145  x   9.4188031878  146  y   4.6041740844  147  z  -2.4889960738
   34     :   148  x   6.5220590183  149  y -11.5052668100  150  z  -7.4879471737
   35     :   151  x  -3.4472554047  152  y  -7.9341757625  153  z   4.6537019164
   36     :   154  x   0.3876149536  155  y  -5.3323139062  156  z -10.5459870268
   37     :   157  x   8.0381182583  158  y  -5.6782226042  159  z  -1.0912034536
   38     :   160  x  -3.2485318054  161  y   5.1426288670  162  z   5.2882417135
   39     :   163  x  -1.6595102398  164  y  10.5288642184  165  z -11.5212217676
   40     :   166  x  -3.2405987352  167  y   7.8775860240  168  z   0.5446511946
   41     :   169  x  -7.2117844875  170  y  -8.7306783167  171  z  -2.9451627322
   42     :   172  x   4.7292909614  173  y  10.9938653466  174  z  -2.3503752139
   43     :   175  x  -7.5202331446  176  y   5.1151749258  177  z  -4.3200858868
   44     :   178  x   0.9030982254  179  y  10.9575807152  180  z   3.6624234008
   45     :   181  x   4.8132968465  182  y  -1.7511600672  183  z -11.5007503645
   46     :   184  x   9.5963542956  185  y  -9.0797050628  186  z   2.9335371371
   47     :   187  x   1.5734653402  188  y   5.9599316366  189  z   5.5141036697
   48     :   190  x -11.6942337533  191  y  -0.9115207347  192  z  -6.6833074589
   49     :   193  x   5.7411485945  194  y   6.5127048740  195  z   0.5743973735
   50     :   196  x  -7.4434290057  197  y  10.8141372743  198  z  -7.1081386787
   51     :   199  x  -2.6110572636  200  y -10.4695986277  201  z  -0.3715447226
   52     :   202  x  -6.4554121574  203  y  -2.2167507898  204  z  -8.5943345767
   53     :   205  x   9.8608554819  206  y  -3.4380448796  207  z -10.6387423440
   54     :   208  x   1.4944936854  209  y  -6.2140752339  210  z   5.2315650476
   55     :   211  x  -7.2000077143  212  y -11.5359257266  213  z   5.4141239296
   56     :   214  x  -2.1385709303  215  y   5.2530398953  216  z -11.7359456780
   57     :   217  x  -7.5785841078  218  y  -3.3554222740  219  z   7.0720184536
   58     :   220  x -10.0580295058  221  y  -1.0672606236  222  z  10.7889396661
   59     :   223  x  -7.9741680365  224  y  -4.0065935508  225  z  -4.2885312400

  Max    interatomic separation is   16.6777 Angstrom (   31.5163 Bohr)
  between atoms   38 and   24, " 22   " and "  8   ".

  Min HX interatomic separation is    0.9561 Angstrom (    1.8068 Bohr)

  Min YX interatomic separation is    2.5118 Angstrom (    4.7465 Bohr)


  Bond distances (Angstrom):
  --------------------------

                  atom 1     atom 2       distance
                  ------     ------       --------
  bond distance:  H          N            1.028364
  bond distance:  H          N            0.978647
  bond distance:  H          N            1.022497
  bond distance:  H          O            0.975210
  bond distance:  H          O            1.046866
  bond distance:  H          O            0.978072
  bond distance:  H          O            0.977496
  bond distance:  H          O            1.035688
  bond distance:  H          O            1.014177
  bond distance:  H          O            0.962141
  bond distance:  H          O            0.956128


  Bond angles (degrees):
  ----------------------

                  atom 1     atom 2     atom 3         angle
                  ------     ------     ------         -----
  bond angle:     H          N          H             99.468
  bond angle:     H          N          H            113.148
  bond angle:     H          N          H            101.123
  bond angle:     H          O          H            106.692
  bond angle:     H          O          H            105.918
  bond angle:     H          O          H            112.089
  bond angle:     H          O          H            108.193




 Principal moments of inertia (u*A**2) and principal axes
 --------------------------------------------------------

   IA     356.232876          0.680719   -0.686091   -0.256712
   IB     418.933396          0.698951    0.713220   -0.052761
   IC     576.457040          0.219291   -0.143514    0.965047


 Rotational constants
 --------------------

               A                   B                   C

           1418.6759           1206.3469            876.6985 MHz
            0.047322            0.040239            0.029244 cm-1


@  Nuclear repulsion energy :  183.073223734266 Hartree

  Reading potential input file for polarizable embedding calculation
 
    .------------------------------------------------.
    | Information from polarizable embedding library |
    `------------------------------------------------´

      Number of classical sites:    177

      Multipole moments upto 0th order.

      Dipole-dipole polarizabilities.

      Iterative solver for induced moments will be used
      with convergence threshold: 1.0E-08
      Total charge of classical region:    0.0000
 

  Number of floating/multiple basis set orbitals :   59


                     .---------------------------------------.
                     | Starting in Integral Section (HERMIT) |
                     `---------------------------------------'



 ***************************************************************************************
 ****************** Output from **INTEGRALS input processing (HERMIT) ******************
 ***************************************************************************************



    *************************************************************************
    ****************** Output from HERMIT input processing ******************
    *************************************************************************


 Default print level:        1

 * Nuclear model: Point charge

 Calculation of one- and two-electron Hamiltonian integrals.

 The following one-electron property integrals are calculated as requested:
          - overlap integrals
          - dipole length integrals

 Center of mass  (bohr):     -0.852042931295     -0.507391989554      0.330181864489
 Operator center (bohr):      0.000000000000      0.000000000000      0.000000000000
 Gauge origin    (bohr):      0.000000000000      0.000000000000      0.000000000000
 Dipole origin   (bohr):      0.000000000000      0.000000000000      0.000000000000


     ************************************************************************
     ************************** Output from HERINT **************************
     ************************************************************************



                      Nuclear contribution to dipole moments
                      --------------------------------------

                 au               Debye          C m (/(10**-30)

      x    -41.51736044      -105.52659762      -351.99884053
      y    -26.54660804       -67.47474297      -225.07151589
      z     14.81257099        37.64979762       125.58620676


  Time used in ONEDRV     is       5.31 seconds
  Time used in OVERLAP    is       0.12 seconds
  Time used in POPOVLP    is       0.18 seconds
  Time used in QUADRUP    is       0.14 seconds
  Time used in KINENE     is       0.11 seconds

 Threshold for neglecting two-electron integrals:  1.00D-12
 HERMIT - Number of two-electron integrals written:    85501832 ( 55.3% )
 HERMIT - Megabytes written:                            979.041

  Time used in TWOINT     is      15.19 seconds
  Total CPU  time used in HERMIT:  21.13 seconds
  Total wall time used in HERMIT:  15.16 seconds


                        .----------------------------------.
                        | End of Integral Section (HERMIT) |
                        `----------------------------------'



                   .--------------------------------------------.
                   | Starting in Wave Function Section (SIRIUS) |
                   `--------------------------------------------'

 INPUT: SIMPLE =  F
NCCEXCI for singlet:   15
 CCSD_INPUT: core-val requested
 Requested number of core orbs per sym
                     1
 Indices of requested core orbs
                     1

 *** Output from Huckel module :

     Using EWMO model:          T
     Using EHT  model:          F
     Number of Huckel orbitals each symmetry:   36

 EWMO - Energy Weighted Maximum Overlap - is a Huckel type method,
        which normally is better than Extended Huckel Theory.
 Reference: Linderberg and Ohrn, Propagators in Quantum Chemistry (Wiley, 1973)

 Huckel EWMO eigenvalues for symmetry :  1
          -20.684941     -20.684706     -20.684252     -20.684025     -15.674299
           -1.756025      -1.611654      -1.589881      -1.579552      -1.441409
           -0.842181      -0.792638      -0.788212      -0.785638      -0.733949
           -0.710084      -0.685551      -0.681994      -0.678524      -0.658182
           -0.616014      -0.615359      -0.597781      -0.581449      -0.509841
           -0.262033      -0.241275      -0.233933      -0.232595      -0.185109
           -0.180177      -0.170432      -0.167976      -0.157303      -0.142964
           -0.133861

 **********************************************************************
 *SIRIUS* a direct, restricted step, second order MCSCF program       *
 **********************************************************************

 
     Date and time (Linux)  : Sun Dec  9 12:19:17 2018
     Host name              : s71p21.deic.sdu.dk                      

 Title lines from ".mol" input file:
                                                                             
                                                                             

 Print level on unit LUPRI =   2 is   0
 Print level on unit LUW4  =   2 is  11

@    (Integral direct) CC calculation.

@    This is a combination run starting with
@              a restricted, closed shell Hartree-Fock calculation


 Initial molecular orbitals are obtained according to
 ".MOSTART EWMO  " input option

@    QM part is embedded in an environment :

@         Model: PE

     Wave function specification
     ============================

     For the specification of the Coupled Cluster: see later.


     Wave function environment is modeled using the
     polarizable embedding model (PE library).

@    Wave function type        --- PE-CC ---
@    Number of closed shell electrons          50
@    Number of electrons in active shells       0
@    Total charge of the molecule               0

@    Spin multiplicity and 2 M_S                1         0
@    Total number of symmetries                 1 (point group: C1 )
@    Reference state symmetry                   1 (irrep name : A  )

     Orbital specifications
     ======================
@    Abelian symmetry species          All |    1
@                                          |  A  
                                       --- |  ---
@    Occupied SCF orbitals              25 |   25
@    Secondary orbitals                162 |  162
@    Total number of orbitals          187 |  187
@    Number of basis functions         187 |  187

     Optimization information
     ========================
@    Number of configurations                 1
@    Number of orbital rotations           4050
     ------------------------------------------
@    Total number of variables             4051

     Maximum number of Fock   iterations      0
     Maximum number of DIIS   iterations     60
     Maximum number of QC-SCF iterations     60
     Threshold for SCF convergence     1.00D-07


 Changes of defaults for CC:
 ---------------------------


 -Implicit frozen core calculation
 -Excitation energies calculated
 -One-photon absorption strengths will be calculated
 -Oscillator strengths calculated
  
* Read MO coefficients from SIRIUS.RST with label "NEWORB  " and header info:  9Dec18  REORTHO 


 ***********************************************
 ***** DIIS acceleration of SCF iterations *****
 ***********************************************

 C1-DIIS algorithm; max error vectors =    8
 -----------------------------------------------------------------------------

 *** DIIS iteration number    1
 RDSUPM called. NFMAT, ISYMDM(1:NFMAT)                     1
                     1

Calculating AOSUPINT
     (Precalculated AO two-electron integrals are transformed to P-supermatrix elements.
      Threshold for discarding integrals :  1.00D-12 )
  CPU  time used in FORMSUP    is   7.85 seconds
  WALL time used in FORMSUP    is  11.01 seconds

 ITDIIS, energy, error norm, change in energy, scr.thr., difden:
@ DIIS iter.   1    -359.918775918        3.85929D+00   -3.60D+02  -20    F

 (DIIS_RED) Control Parameters C2DIIS =         F NEVC =    1


 (DIIS_RED) B matrix:

               Column   1
       1      14.89413410
    ==== End of matrix output ====

 DIIS C vector; C2DIIS = F, LAMBDA = -1.49D+01
    1.000000
* Read MO coefficients from SIRIUS.RST with label "NEWORB  " and header info:  9Dec18  DIIS   1
      Virial theorem: -V/T =      1.998673
@    MULPOP   N      -0.50; H       0.22; H       0.24; H       0.20; O      -0.66; O      -0.69; O      -0.85; O      -0.67; H       0.34; H       0.33; 
@             H       0.33; H       0.35; H       0.34; H       0.35; H       0.34; H       0.34; 
   1  Level shift: doubly occupied orbital energies shifted by -2.00D-01

 DIIS Fock eigenvalues in symmetry 1
      -20.73348      -20.72903      -20.72051      -20.52819      -15.98430
       -1.56943       -1.54840       -1.52269       -1.46774       -1.42869
       -0.97555       -0.95812       -0.93333       -0.92819       -0.89499
       -0.86481       -0.80838       -0.79467       -0.78335       -0.76361
       -0.74701       -0.74393       -0.73282       -0.67818       -0.64777
        0.06299        0.10243        0.11656        0.13078        0.13991
        0.15016        0.15612        0.17344        0.18349        0.19717
        0.21572        0.22233        0.23347        0.24828        0.25933
        0.26679        0.27934        0.28371        0.29536        0.30137
        0.31672        0.32608        0.32785        0.33410        0.34615
        0.34886        0.35628        0.36940        0.37715        0.38945
        0.39533        0.39845        0.41175        0.42123        0.42714
        0.43318        0.45382        0.46172        0.48864        0.50684
        0.51071        0.53548        0.64003        0.68313        0.69884
        0.76984        0.77605        0.78557        0.79610        0.80773
        0.81649        0.84001        0.85690        0.97659        1.00226
        1.04592        1.16775        1.19820        1.21675        1.22995
        1.25126        1.25792        1.26667        1.27725        1.29098
        1.30448        1.31520        1.33246        1.34745        1.37496
        1.41780        1.45490        1.49406        1.50066        1.52067
        1.54413        1.56072        1.56579        1.63474        1.66086
        1.66314        1.68678        1.69993        1.71930        1.74420
        1.77007        1.78792        1.81057        1.85551        1.87900
        1.89054        1.89789        1.91130        1.97691        2.03643
        2.17779        2.24832        2.26563        2.27938        2.33527
        2.34081        2.39134        2.42416        2.44634        2.54704
        2.61816        2.71961        2.74256        2.76282        2.79602
        2.83465        2.83891        2.84797        2.86484        2.88042
        2.93023        2.97918        3.02256        3.10347        3.12583
        3.34409        3.40823        3.42138        3.44168        3.46961
        3.48056        3.48805        3.51298        3.52640        3.60086
        3.62926        3.64553        3.67507        3.68073        4.06750
        4.07656        4.10742        4.16722        4.28499        4.28944
        4.29376        4.31055        4.57763        5.04574        5.08979
        5.54068        5.55140        5.56989        5.63898        5.85306
        5.87465        5.90052        5.94110        6.09506        6.15216
        6.20738        6.26796       36.85933       51.59507       51.61135
       51.61453       51.79762
 Time used in FCKEIG, thr_jaco:   2.41D-01  8.40D-02  1.52D-04
 CPU and wall times used in FCKEIG, THR_FCKEIG:   2.41D-01  8.40D-02  3.86D-02
 -----------------------------------------------------------------------------

 *** DIIS iteration number    2
 RDSUPM called. NFMAT, ISYMDM(1:NFMAT)                     1
                     1

 ITDIIS, energy, error norm, change in energy, scr.thr., difden:
@ DIIS iter.   2    -360.753950313        9.74031D-01   -8.35D-01  -20    F

 (DIIS_RED) Control Parameters C2DIIS =         F NEVC =    2


 (DIIS_RED) B matrix:

               Column   1     Column   2
       1      14.89413410
       2       1.08139944     0.94873566
    ==== End of matrix output ====

 DIIS C vector; C2DIIS = F, LAMBDA = -9.47D-01
   -0.009698    1.009698
* Read MO coefficients from SIRIUS.RST with label "NEWORB  " and header info:  9Dec18  DIIS   2
      Virial theorem: -V/T =      2.004549
@    MULPOP   N      -0.85; H       0.28; H       0.28; H       0.29; O      -0.75; O      -0.59; O      -0.78; O      -0.65; H       0.39; H       0.38; 
@             H       0.37; H       0.22; H       0.34; H       0.40; H       0.34; H       0.33; 
   2  Level shift: doubly occupied orbital energies shifted by -1.00D-01

 DIIS Fock eigenvalues in symmetry 1
      -20.73475      -20.71378      -20.65840      -20.64696      -15.52017
       -1.46619       -1.42849       -1.41843       -1.40784       -1.21369
       -0.83395       -0.79915       -0.79113       -0.76887       -0.71944
       -0.71033       -0.69780       -0.67923       -0.67674       -0.66056
       -0.64013       -0.62311       -0.60827       -0.60150       -0.51113
        0.08720        0.11701        0.12975        0.14162        0.14857
        0.15932        0.16253        0.17869        0.19919        0.20718
        0.22461        0.24594        0.25144        0.26761        0.27809
        0.29007        0.29520        0.30679        0.31174        0.32742
        0.33102        0.34051        0.34334        0.34591        0.36067
        0.36909        0.37367        0.38279        0.39832        0.40571
        0.41734        0.42537        0.42815        0.44495        0.45349
        0.45857        0.48497        0.48868        0.51023        0.52754
        0.53766        0.55904        0.69568        0.73146        0.75329
        0.79503        0.80142        0.80525        0.81689        0.83155
        0.84879        0.88388        0.92062        1.07898        1.11156
        1.14537        1.22099        1.23591        1.26800        1.26892
        1.27422        1.28009        1.28396        1.30062        1.30629
        1.32739        1.33598        1.35250        1.38327        1.42856
        1.48416        1.50824        1.54647        1.55522        1.58007
        1.58949        1.61185        1.61918        1.64154        1.67834
        1.68708        1.71789        1.74443        1.76610        1.79295
        1.81311        1.82948        1.85981        1.90285        1.93801
        1.95418        1.95513        1.99066        2.07110        2.11045
        2.29359        2.31147        2.32018        2.33357        2.38770
        2.39443        2.44749        2.48326        2.51129        2.60938
        2.75338        2.79800        2.81240        2.82787        2.88640
        2.89604        2.92445        2.93142        2.96102        2.98972
        3.02685        3.07660        3.11817        3.20335        3.26962
        3.38962        3.43844        3.44444        3.47738        3.49441
        3.50451        3.52940        3.56006        3.56977        3.59704
        3.65934        3.66754        3.68774        3.72133        4.08151
        4.10109        4.10706        4.14350        4.22681        4.31412
        4.32620        4.33499        4.77102        5.27695        5.32446
        5.47783        5.52982        5.56100        5.58609        5.78825
        5.86257        5.87441        5.90926        6.11749        6.13837
        6.15386        6.24623       37.21737       51.49652       51.52979
       51.56018       51.60247
 Time used in FCKEIG, thr_jaco:   2.41D-01  6.80D-02  3.83D-05
 CPU and wall times used in FCKEIG, THR_FCKEIG:   2.41D-01  6.80D-02  9.74D-03
 -----------------------------------------------------------------------------

 *** DIIS iteration number    3
 RDSUPM called. NFMAT, ISYMDM(1:NFMAT)                     1
                     1

 ITDIIS, energy, error norm, change in energy, scr.thr., difden:
@ DIIS iter.   3    -360.820514675        3.72875D-01   -6.66D-02  -20    F

 (DIIS_RED) Control Parameters C2DIIS =         F NEVC =    3


 (DIIS_RED) B matrix:

               Column   1     Column   2     Column   3
       1      14.89413410
       2       1.08139944     0.94873566
       3       0.71125631     0.06740705     0.13903584
    ==== End of matrix output ====

 DIIS C vector; C2DIIS = F, LAMBDA = -1.06D-01
   -0.045161    0.096101    0.949061
* Read MO coefficients from SIRIUS.RST with label "NEWORB  " and header info:  9Dec18  DIIS   3
      Virial theorem: -V/T =      2.002250
@    MULPOP   N      -0.86; H       0.26; H       0.28; H       0.28; O      -0.81; O      -0.64; O      -0.88; O      -0.69; H       0.42; H       0.41; 
@             H       0.40; H       0.24; H       0.40; H       0.48; H       0.36; H       0.35; 
   3  Level shift: doubly occupied orbital energies shifted by -5.00D-02

 DIIS Fock eigenvalues in symmetry 1
      -20.60755      -20.58457      -20.57655      -20.52991      -15.59847
       -1.39632       -1.37274       -1.34491       -1.31815       -1.19685
       -0.76655       -0.74154       -0.71029       -0.70390       -0.68166
       -0.66313       -0.63903       -0.61824       -0.59863       -0.58113
       -0.56790       -0.54283       -0.53255       -0.51551       -0.47956
        0.08810        0.11851        0.13120        0.14346        0.14982
        0.16048        0.16294        0.17987        0.20086        0.20865
        0.22598        0.24973        0.25573        0.27214        0.28123
        0.29375        0.29889        0.31052        0.31481        0.33199
        0.33424        0.34442        0.34754        0.35054        0.36799
        0.37223        0.37780        0.38877        0.40169        0.40943
        0.42182        0.42926        0.43242        0.44685        0.45997
        0.46253        0.48929        0.49397        0.51375        0.53496
        0.54015        0.56503        0.69474        0.73419        0.75647
        0.80373        0.80696        0.81115        0.82381        0.83720
        0.85396        0.88810        0.92214        1.06682        1.09747
        1.13728        1.23547        1.24754        1.27732        1.28217
        1.28946        1.29907        1.31008        1.31351        1.31829
        1.33886        1.34996        1.36267        1.39525        1.42698
        1.48493        1.51801        1.55618        1.56434        1.58946
        1.60130        1.61965        1.62683        1.65792        1.68983
        1.69958        1.72737        1.75559        1.77704        1.80359
        1.82332        1.84812        1.86604        1.91113        1.94590
        1.96206        1.96243        1.99165        2.07570        2.11689
        2.29924        2.30599        2.33465        2.35590        2.38676
        2.39607        2.46239        2.49460        2.52037        2.62501
        2.75061        2.80463        2.81935        2.83508        2.89253
        2.90421        2.93103        2.93884        2.96000        2.97748
        3.02013        3.08684        3.10715        3.20705        3.25360
        3.44810        3.46273        3.46527        3.48655        3.49687
        3.52966        3.55579        3.57546        3.58833        3.63232
        3.67016        3.68609        3.69341        3.73394        4.10800
        4.12230        4.15463        4.15873        4.28242        4.33873
        4.34146        4.35759        4.71857        5.22799        5.27401
        5.55941        5.56905        5.58698        5.60007        5.87404
        5.88515        5.90171        5.93383        6.14105        6.18978
        6.22333        6.25954       37.09320       51.58471       51.59251
       51.61524       51.65035
 Time used in FCKEIG, thr_jaco:   2.22D-01  6.80D-02  1.46D-05
 CPU and wall times used in FCKEIG, THR_FCKEIG:   2.22D-01  6.80D-02  3.73D-03
 -----------------------------------------------------------------------------

 *** DIIS iteration number    4
 RDSUPM called. NFMAT, ISYMDM(1:NFMAT)                     1
                     1

 ITDIIS, energy, error norm, change in energy, scr.thr., difden:
@ DIIS iter.   4    -360.830815684        1.29862D-01   -1.03D-02  -20    F

 (DIIS_RED) Control Parameters C2DIIS =         F NEVC =    4


 (DIIS_RED) B matrix:

               Column   1     Column   2     Column   3     Column   4
       1      14.89413410
       2       1.08139944     0.94873566
       3       0.71125631     0.06740705     0.13903584
       4       0.02052775     0.09621263    -0.00656819     0.01686424
    ==== End of matrix output ====

 DIIS C vector; C2DIIS = F, LAMBDA = -5.62D-03
   -0.000052   -0.101618    0.135613    0.966058
* Read MO coefficients from SIRIUS.RST with label "NEWORB  " and header info:  9Dec18  DIIS   4
      Virial theorem: -V/T =      2.003382
@    MULPOP   N      -0.93; H       0.28; H       0.30; H       0.30; O      -0.83; O      -0.65; O      -0.87; O      -0.71; H       0.43; H       0.42; 
@             H       0.40; H       0.24; H       0.40; H       0.48; H       0.37; H       0.35; 
   4  Level shift: doubly occupied orbital energies shifted by -2.50D-02

 DIIS Fock eigenvalues in symmetry 1
      -20.60003      -20.56314      -20.56187      -20.55182      -15.54636
       -1.37887       -1.35038       -1.32456       -1.30875       -1.16378
       -0.74744       -0.71933       -0.69230       -0.68551       -0.65153
       -0.63275       -0.61797       -0.59298       -0.57523       -0.56667
       -0.54534       -0.51571       -0.50729       -0.50158       -0.44751
        0.08729        0.11830        0.13105        0.14364        0.14938
        0.16055        0.16254        0.17991        0.20083        0.20849
        0.22611        0.25069        0.25520        0.27286        0.28183
        0.29437        0.29957        0.31066        0.31499        0.33230
        0.33454        0.34430        0.34711        0.35007        0.36662
        0.37167        0.37822        0.38796        0.40155        0.40957
        0.42194        0.42951        0.43247        0.44806        0.45899
        0.46208        0.48956        0.49327        0.51413        0.53429
        0.54106        0.56423        0.69677        0.73414        0.75613
        0.80121        0.80571        0.80976        0.82231        0.83506
        0.85189        0.88610        0.92391        1.07168        1.10360
        1.14130        1.23280        1.24650        1.27657        1.28043
        1.28820        1.29543        1.30418        1.31258        1.31584
        1.34018        1.34642        1.36045        1.39448        1.42952
        1.48644        1.51555        1.55486        1.56205        1.58758
        1.59767        1.61856        1.62509        1.65396        1.68847
        1.69706        1.72551        1.75192        1.77457        1.80153
        1.82135        1.84431        1.86584        1.90936        1.94329
        1.95984        1.96102        1.99345        2.07756        2.11815
        2.29999        2.30759        2.32960        2.34779        2.39152
        2.39370        2.45703        2.49013        2.51754        2.62374
        2.75413        2.80285        2.81731        2.83252        2.89264
        2.90001        2.92912        2.93848        2.96156        2.98294
        3.02225        3.08823        3.11159        3.20975        3.25988
        3.43332        3.45841        3.46078        3.48769        3.50022
        3.52395        3.55250        3.57334        3.57959        3.63015
        3.66711        3.68301        3.68853        3.73297        4.10190
        4.11847        4.14392        4.15469        4.26882        4.33496
        4.33946        4.35343        4.73185        5.24124        5.28782
        5.54089        5.55586        5.57969        5.59799        5.85048
        5.88282        5.89257        5.92814        6.13502        6.17982
        6.19970        6.25706       37.11985       51.56790       51.58202
       51.60361       51.61265
 Time used in FCKEIG, thr_jaco:   2.37D-01  6.40D-02  5.10D-06
 CPU and wall times used in FCKEIG, THR_FCKEIG:   2.38D-01  6.40D-02  1.30D-03
 -----------------------------------------------------------------------------

 *** DIIS iteration number    5
 RDSUPM called. NFMAT, ISYMDM(1:NFMAT)                     1
                     1

 ITDIIS, energy, error norm, change in energy, scr.thr., difden:
@ DIIS iter.   5    -360.832375925        2.99642D-02   -1.56D-03  -20    F

 (DIIS_RED) Control Parameters C2DIIS =         F NEVC =    5


 (DIIS_RED) B matrix:

               Column   1     Column   2     Column   3     Column   4     Column   5
       1      14.89413410
       2       1.08139944     0.94873566
       3       0.71125631     0.06740705     0.13903584
       4       0.02052775     0.09621263    -0.00656819     0.01686424
       5       0.01482402     0.00983912     0.00608642     0.00158738     0.00089785
    ==== End of matrix output ====

 DIIS C vector; C2DIIS = F, LAMBDA = -5.24D-04
    0.001900    0.004437   -0.066825   -0.135113    1.195601
* Read MO coefficients from SIRIUS.RST with label "NEWORB  " and header info:  9Dec18  DIIS   5
      Virial theorem: -V/T =      2.002955
@    MULPOP   N      -0.93; H       0.28; H       0.30; H       0.30; O      -0.83; O      -0.66; O      -0.89; O      -0.72; H       0.43; H       0.43; 
@             H       0.41; H       0.25; H       0.41; H       0.50; H       0.37; H       0.36; 

 DIIS Fock eigenvalues in symmetry 1
      -20.57387      -20.53833      -20.53551      -20.51972      -15.51461
       -1.35379       -1.32576       -1.29948       -1.28149       -1.13689
       -0.72297       -0.69548       -0.66662       -0.66097       -0.62563
       -0.60665       -0.59301       -0.56843       -0.55011       -0.53986
       -0.51912       -0.48979       -0.48081       -0.47321       -0.42045
        0.08703        0.11815        0.13099        0.14373        0.14929
        0.16058        0.16244        0.17986        0.20082        0.20847
        0.22613        0.25094        0.25515        0.27318        0.28187
        0.29452        0.29975        0.31068        0.31517        0.33235
        0.33471        0.34435        0.34687        0.35011        0.36680
        0.37149        0.37822        0.38813        0.40158        0.40953
        0.42184        0.42950        0.43253        0.44824        0.45896
        0.46213        0.48965        0.49313        0.51440        0.53434
        0.54114        0.56426        0.69696        0.73399        0.75611
        0.80111        0.80532        0.80932        0.82230        0.83461
        0.85133        0.88562        0.92429        1.07245        1.10462
        1.14217        1.23278        1.24642        1.27616        1.28033
        1.28895        1.29579        1.30547        1.31279        1.31666
        1.34085        1.34701        1.36076        1.39486        1.43000
        1.48669        1.51510        1.55461        1.56124        1.58717
        1.59718        1.61796        1.62489        1.65417        1.68827
        1.69704        1.72526        1.75118        1.77402        1.80108
        1.82086        1.84496        1.86577        1.90912        1.94227
        1.95881        1.96075        1.99380        2.07799        2.11823
        2.29914        2.30828        2.32876        2.34784        2.39169
        2.39302        2.45634        2.48939        2.51662        2.62422
        2.75463        2.80222        2.81620        2.83122        2.89226
        2.89917        2.92803        2.93814        2.96153        2.98343
        3.02237        3.08795        3.11231        3.21015        3.26110
        3.43566        3.45849        3.46085        3.48751        3.50152
        3.52389        3.55291        3.57317        3.58115        3.63217
        3.66876        3.68331        3.68846        3.73239        4.10181
        4.11830        4.14594        4.15417        4.27124        4.33488
        4.33897        4.35343        4.73507        5.24420        5.29077
        5.54439        5.55695        5.58060        5.59791        5.85409
        5.88250        5.89291        5.92849        6.13513        6.17988
        6.20314        6.25636       37.12644       51.56907       51.58336
       51.60906       51.61392
 Time used in FCKEIG, thr_jaco:   1.29D-01  3.60D-02  1.18D-06
 CPU and wall times used in FCKEIG, THR_FCKEIG:   1.29D-01  3.60D-02  3.00D-04
 -----------------------------------------------------------------------------

 *** DIIS iteration number    6
 RDSUPM called. NFMAT, ISYMDM(1:NFMAT)                     1
                     1

 ITDIIS, energy, error norm, change in energy, scr.thr., difden:
@ DIIS iter.   6    -360.832526632        1.06941D-02   -1.51D-04  -20    F

 (DIIS_RED) Control Parameters C2DIIS =         F NEVC =    6


 (DIIS_RED) B matrix:

               Column   1     Column   2     Column   3     Column   4     Column   5     Column   6
       1      14.89413410
       2       1.08139944     0.94873566
       3       0.71125631     0.06740705     0.13903584
       4       0.02052775     0.09621263    -0.00656819     0.01686424
       5       0.01482402     0.00983912     0.00608642     0.00158738     0.00089785
       6      -0.00345683     0.00028096     0.00059931     0.00050502     0.00010039     0.00011436
    ==== End of matrix output ====

 DIIS C vector; C2DIIS = F, LAMBDA = -5.22D-05
    0.000707    0.010327   -0.027253   -0.115298    0.220007    0.911510
* Read MO coefficients from SIRIUS.RST with label "NEWORB  " and header info:  9Dec18  DIIS   6
      Virial theorem: -V/T =      2.003130
@    MULPOP   N      -0.92; H       0.28; H       0.30; H       0.30; O      -0.84; O      -0.66; O      -0.90; O      -0.72; H       0.43; H       0.43; 
@             H       0.41; H       0.25; H       0.41; H       0.50; H       0.37; H       0.36; 

 DIIS Fock eigenvalues in symmetry 1
      -20.57449      -20.53859      -20.53658      -20.52269      -15.51933
       -1.35404       -1.32588       -1.29991       -1.28245       -1.13842
       -0.72345       -0.69585       -0.66765       -0.66170       -0.62692
       -0.60782       -0.59351       -0.56867       -0.55083       -0.54083
       -0.51922       -0.48964       -0.48095       -0.47378       -0.42185
        0.08694        0.11807        0.13092        0.14370        0.14924
        0.16054        0.16238        0.17982        0.20076        0.20840
        0.22609        0.25087        0.25501        0.27310        0.28178
        0.29447        0.29964        0.31057        0.31512        0.33221
        0.33455        0.34429        0.34671        0.35004        0.36665
        0.37136        0.37807        0.38795        0.40148        0.40944
        0.42170        0.42940        0.43240        0.44791        0.45866
        0.46187        0.48929        0.49294        0.51407        0.53403
        0.54096        0.56394        0.69657        0.73368        0.75574
        0.80079        0.80511        0.80910        0.82200        0.83440
        0.85112        0.88538        0.92384        1.07148        1.10365
        1.14130        1.23251        1.24619        1.27591        1.27997
        1.28857        1.29537        1.30496        1.31246        1.31622
        1.34032        1.34648        1.36019        1.39462        1.42933
        1.48601        1.51471        1.55414        1.56091        1.58678
        1.59669        1.61760        1.62438        1.65367        1.68810
        1.69678        1.72481        1.75082        1.77365        1.80068
        1.82039        1.84438        1.86521        1.90861        1.94184
        1.95851        1.96026        1.99305        2.07739        2.11770
        2.29854        2.30728        2.32837        2.34712        2.39097
        2.39240        2.45596        2.48893        2.51632        2.62353
        2.75383        2.80165        2.81580        2.83071        2.89172
        2.89867        2.92762        2.93762        2.96082        2.98226
        3.02143        3.08744        3.11122        3.20941        3.25984
        3.43455        3.45803        3.46034        3.48712        3.50024
        3.52346        3.55216        3.57281        3.58004        3.63088
        3.66746        3.68262        3.68796        3.73216        4.10141
        4.11777        4.14483        4.15389        4.27003        4.33449
        4.33874        4.35294        4.73251        5.24183        5.28836
        5.54300        5.55633        5.57988        5.59772        5.85248
        5.88223        5.89243        5.92781        6.13441        6.17941
        6.20145        6.25609       37.12182       51.56843       51.58231
       51.60701       51.61280
 Time used in FCKEIG, thr_jaco:   2.26D-01  5.70D-02  4.20D-07
 CPU and wall times used in FCKEIG, THR_FCKEIG:   2.26D-01  5.70D-02  1.07D-04
 -----------------------------------------------------------------------------

 *** DIIS iteration number    7
 RDSUPM called. NFMAT, ISYMDM(1:NFMAT)                     1
                     1

 ITDIIS, energy, error norm, change in energy, scr.thr., difden:
@ DIIS iter.   7    -360.832538428        2.78100D-03   -1.18D-05  -20    F

 (DIIS_RED) Control Parameters C2DIIS =         F NEVC =    7


 (DIIS_RED) B matrix:

               Column   1     Column   2     Column   3     Column   4     Column   5     Column   6
       1      14.89413410
       2       1.08139944     0.94873566
       3       0.71125631     0.06740705     0.13903584
       4       0.02052775     0.09621263    -0.00656819     0.01686424
       5       0.01482402     0.00983912     0.00608642     0.00158738     0.00089785
       6      -0.00345683     0.00028096     0.00059931     0.00050502     0.00010039     0.00011436
       7       0.00047313     0.00007252     0.00003538     0.00002441     0.00004980    -0.00000091

               Column   7
       7       0.00000773
    ==== End of matrix output ====

 DIIS C vector; C2DIIS = F, LAMBDA = -2.11D-06
   -0.000269   -0.001377    0.009301    0.024146   -0.145318   -0.005172    1.118689
* Read MO coefficients from SIRIUS.RST with label "NEWORB  " and header info:  9Dec18  DIIS   7
      Virial theorem: -V/T =      2.003088
@    MULPOP   N      -0.93; H       0.28; H       0.30; H       0.30; O      -0.84; O      -0.66; O      -0.90; O      -0.72; H       0.43; H       0.43; 
@             H       0.41; H       0.25; H       0.41; H       0.50; H       0.37; H       0.36; 

 DIIS Fock eigenvalues in symmetry 1
      -20.57460      -20.53866      -20.53655      -20.52209      -15.51856
       -1.35409       -1.32588       -1.29990       -1.28217       -1.13817
       -0.72352       -0.69591       -0.66752       -0.66172       -0.62678
       -0.60771       -0.59361       -0.56876       -0.55088       -0.54067
       -0.51919       -0.48958       -0.48083       -0.47341       -0.42159
        0.08693        0.11806        0.13093        0.14370        0.14925
        0.16054        0.16238        0.17982        0.20076        0.20841
        0.22610        0.25089        0.25500        0.27314        0.28180
        0.29449        0.29965        0.31058        0.31515        0.33221
        0.33459        0.34431        0.34670        0.35005        0.36669
        0.37137        0.37807        0.38799        0.40149        0.40945
        0.42170        0.42940        0.43241        0.44794        0.45869
        0.46189        0.48931        0.49294        0.51412        0.53407
        0.54098        0.56398        0.69663        0.73369        0.75576
        0.80084        0.80512        0.80910        0.82209        0.83441
        0.85110        0.88535        0.92388        1.07161        1.10381
        1.14142        1.23247        1.24619        1.27591        1.27997
        1.28863        1.29543        1.30512        1.31248        1.31631
        1.34039        1.34656        1.36022        1.39465        1.42941
        1.48609        1.51469        1.55418        1.56089        1.58679
        1.59670        1.61758        1.62439        1.65376        1.68810
        1.69679        1.72481        1.75079        1.77367        1.80072
        1.82040        1.84451        1.86527        1.90864        1.94179
        1.95850        1.96026        1.99314        2.07745        2.11777
        2.29848        2.30737        2.32830        2.34720        2.39104
        2.39242        2.45589        2.48887        2.51629        2.62367
        2.75389        2.80166        2.81578        2.83063        2.89173
        2.89867        2.92760        2.93762        2.96084        2.98237
        3.02148        3.08761        3.11135        3.20951        3.25999
        3.43480        3.45800        3.46032        3.48713        3.50042
        3.52342        3.55221        3.57283        3.58025        3.63113
        3.66767        3.68265        3.68794        3.73215        4.10136
        4.11774        4.14508        4.15388        4.27032        4.33446
        4.33873        4.35293        4.73294        5.24218        5.28873
        5.54329        5.55634        5.57992        5.59769        5.85282
        5.88220        5.89239        5.92781        6.13441        6.17935
        6.20182        6.25607       37.12257       51.56833       51.58234
       51.60744       51.61289
 Time used in FCKEIG, thr_jaco:   2.25D-01  8.20D-02  1.09D-07
 CPU and wall times used in FCKEIG, THR_FCKEIG:   2.25D-01  8.20D-02  2.78D-05
 -----------------------------------------------------------------------------

 *** DIIS iteration number    8
 RDSUPM called. NFMAT, ISYMDM(1:NFMAT)                     1
                     1

 ITDIIS, energy, error norm, change in energy, scr.thr., difden:
@ DIIS iter.   8    -360.832539333        4.99899D-04   -9.05D-07  -20    F

 (DIIS_RED) Control Parameters C2DIIS =         F NEVC =    8


 (DIIS_RED) B matrix:

               Column   1     Column   2     Column   3     Column   4     Column   5     Column   6
       1      14.89413410
       2       1.08139944     0.94873566
       3       0.71125631     0.06740705     0.13903584
       4       0.02052775     0.09621263    -0.00656819     0.01686424
       5       0.01482402     0.00983912     0.00608642     0.00158738     0.00089785
       6      -0.00345683     0.00028096     0.00059931     0.00050502     0.00010039     0.00011436
       7       0.00047313     0.00007252     0.00003538     0.00002441     0.00004980    -0.00000091
       8       0.00014015    -0.00001916     0.00000078     0.00000249     0.00000169     0.00000223

               Column   7     Column   8
       7       0.00000773
       8       0.00000059     0.00000025
    ==== End of matrix output ====

 DIIS C vector; C2DIIS = F, LAMBDA = -1.49D-07
   -0.000003   -0.000051   -0.000436   -0.000204    0.014785   -0.032939   -0.166518    1.185366
* Read MO coefficients from SIRIUS.RST with label "NEWORB  " and header info:  9Dec18  DIIS   8
      Virial theorem: -V/T =      2.003104
@    MULPOP   N      -0.92; H       0.28; H       0.30; H       0.30; O      -0.84; O      -0.66; O      -0.90; O      -0.72; H       0.43; H       0.43; 
@             H       0.41; H       0.25; H       0.41; H       0.50; H       0.37; H       0.36; 

 DIIS Fock eigenvalues in symmetry 1
      -20.57448      -20.53863      -20.53654      -20.52214      -15.51859
       -1.35404       -1.32586       -1.29990       -1.28219       -1.13818
       -0.72348       -0.69589       -0.66754       -0.66172       -0.62679
       -0.60771       -0.59359       -0.56877       -0.55090       -0.54069
       -0.51914       -0.48956       -0.48081       -0.47340       -0.42161
        0.08693        0.11806        0.13093        0.14370        0.14926
        0.16054        0.16238        0.17982        0.20076        0.20841
        0.22610        0.25089        0.25500        0.27314        0.28180
        0.29449        0.29965        0.31058        0.31516        0.33221
        0.33458        0.34431        0.34670        0.35005        0.36670
        0.37137        0.37806        0.38799        0.40149        0.40945
        0.42170        0.42940        0.43241        0.44794        0.45870
        0.46190        0.48931        0.49294        0.51412        0.53407
        0.54098        0.56397        0.69662        0.73369        0.75577
        0.80084        0.80512        0.80909        0.82209        0.83441
        0.85110        0.88536        0.92388        1.07161        1.10380
        1.14142        1.23249        1.24619        1.27592        1.27999
        1.28864        1.29543        1.30512        1.31249        1.31632
        1.34039        1.34655        1.36022        1.39466        1.42941
        1.48609        1.51470        1.55417        1.56089        1.58679
        1.59669        1.61758        1.62439        1.65375        1.68811
        1.69680        1.72480        1.75079        1.77366        1.80071
        1.82039        1.84450        1.86526        1.90864        1.94178
        1.95850        1.96026        1.99314        2.07745        2.11776
        2.29847        2.30737        2.32833        2.34720        2.39103
        2.39242        2.45591        2.48888        2.51629        2.62365
        2.75389        2.80166        2.81578        2.83062        2.89173
        2.89868        2.92760        2.93762        2.96084        2.98236
        3.02147        3.08757        3.11135        3.20949        3.25999
        3.43479        3.45802        3.46034        3.48714        3.50041
        3.52346        3.55221        3.57284        3.58024        3.63111
        3.66766        3.68267        3.68796        3.73216        4.10140
        4.11775        4.14506        4.15389        4.27030        4.33449
        4.33874        4.35294        4.73292        5.24217        5.28872
        5.54328        5.55639        5.57993        5.59771        5.85280
        5.88222        5.89244        5.92781        6.13441        6.17941
        6.20179        6.25608       37.12255       51.56844       51.58236
       51.60741       51.61290
 Time used in FCKEIG, thr_jaco:   1.61D-01  4.10D-02  1.96D-08
 CPU and wall times used in FCKEIG, THR_FCKEIG:   1.61D-01  4.10D-02  5.00D-06
 -----------------------------------------------------------------------------

 *** DIIS iteration number    9
 RDSUPM called. NFMAT, ISYMDM(1:NFMAT)                     1
                     1

 ITDIIS, energy, error norm, change in energy, scr.thr., difden:
@ DIIS iter.   9    -360.832539370        1.56036D-04   -3.66D-08  -20    F

 (DIIS_RED) Control Parameters C2DIIS =         F NEVC =    8


 (DIIS_RED) B matrix:

               Column   1     Column   2     Column   3     Column   4     Column   5     Column   6
       1       0.00000002
       2      -0.00000408     0.94873566
       3       0.00000104     0.06740705     0.13903584
       4       0.00000023     0.09621263    -0.00656819     0.01686424
       5       0.00000038     0.00983912     0.00608642     0.00158738     0.00089785
       6       0.00000011     0.00028096     0.00059931     0.00050502     0.00010039     0.00011436
       7       0.00000016     0.00007252     0.00003538     0.00002441     0.00004980    -0.00000091
       8       0.00000003    -0.00001916     0.00000078     0.00000249     0.00000169     0.00000223

               Column   7     Column   8
       7       0.00000773
       8       0.00000059     0.00000025
    ==== End of matrix output ====

 DIIS C vector; C2DIIS = F, LAMBDA = -1.67D-08
    0.949407    0.000079   -0.000400   -0.001151    0.007587   -0.003293   -0.071126    0.118897
* Read MO coefficients from SIRIUS.RST with label "NEWORB  " and header info:  9Dec18  DIIS   9
      Virial theorem: -V/T =      2.003105
@    MULPOP   N      -0.92; H       0.28; H       0.30; H       0.30; O      -0.84; O      -0.66; O      -0.90; O      -0.72; H       0.43; H       0.43; 
@             H       0.41; H       0.25; H       0.41; H       0.50; H       0.37; H       0.36; 

 DIIS Fock eigenvalues in symmetry 1
      -20.57455      -20.53864      -20.53655      -20.52211      -15.51860
       -1.35406       -1.32587       -1.29990       -1.28217       -1.13818
       -0.72350       -0.69589       -0.66753       -0.66172       -0.62680
       -0.60772       -0.59361       -0.56877       -0.55090       -0.54069
       -0.51916       -0.48956       -0.48081       -0.47338       -0.42161
        0.08693        0.11806        0.13093        0.14370        0.14926
        0.16054        0.16238        0.17982        0.20076        0.20841
        0.22610        0.25088        0.25500        0.27315        0.28180
        0.29449        0.29965        0.31058        0.31516        0.33221
        0.33459        0.34431        0.34670        0.35005        0.36670
        0.37137        0.37806        0.38799        0.40149        0.40945
        0.42170        0.42940        0.43241        0.44794        0.45870
        0.46189        0.48931        0.49294        0.51412        0.53407
        0.54098        0.56397        0.69662        0.73369        0.75577
        0.80084        0.80512        0.80909        0.82209        0.83441
        0.85110        0.88535        0.92388        1.07161        1.10380
        1.14142        1.23247        1.24619        1.27592        1.27998
        1.28863        1.29543        1.30513        1.31249        1.31632
        1.34038        1.34656        1.36022        1.39465        1.42941
        1.48609        1.51469        1.55417        1.56089        1.58679
        1.59669        1.61758        1.62439        1.65376        1.68810
        1.69679        1.72480        1.75079        1.77367        1.80071
        1.82039        1.84450        1.86526        1.90864        1.94178
        1.95850        1.96026        1.99313        2.07745        2.11776
        2.29846        2.30736        2.32831        2.34721        2.39103
        2.39242        2.45590        2.48887        2.51629        2.62365
        2.75389        2.80166        2.81578        2.83062        2.89173
        2.89868        2.92760        2.93762        2.96083        2.98236
        3.02147        3.08757        3.11134        3.20949        3.25998
        3.43480        3.45801        3.46032        3.48713        3.50041
        3.52344        3.55220        3.57284        3.58024        3.63112
        3.66766        3.68266        3.68795        3.73216        4.10138
        4.11774        4.14507        4.15389        4.27032        4.33447
        4.33874        4.35293        4.73292        5.24217        5.28871
        5.54329        5.55636        5.57992        5.59770        5.85281
        5.88221        5.89241        5.92780        6.13441        6.17937
        6.20181        6.25607       37.12254       51.56837       51.58234
       51.60743       51.61289
 Time used in FCKEIG, thr_jaco:   2.35D-01  6.00D-02  6.13D-09
 CPU and wall times used in FCKEIG, THR_FCKEIG:   2.35D-01  6.00D-02  1.56D-06
 -----------------------------------------------------------------------------

 *** DIIS iteration number   10
 RDSUPM called. NFMAT, ISYMDM(1:NFMAT)                     1
                     1

 ITDIIS, energy, error norm, change in energy, scr.thr., difden:
@ DIIS iter.  10    -360.832539372        6.10863D-05   -2.40D-09  -20    F

 (DIIS_RED) Control Parameters C2DIIS =         F NEVC =    8


 (DIIS_RED) B matrix:

               Column   1     Column   2     Column   3     Column   4     Column   5     Column   6
       1       0.00000002
[...]
       3       0.47207373     0.84199593     0.26113069
    ==== End of matrix output ====


 CCSD  Transition strength matrix for state nr. 13 of symmetry 1
 CCSD  excitation energy:15.00983025

 Gauge: length

               Column   1     Column   2     Column   3
       1     1.359060D-05  -6.026153D-05   7.551902D-05
       2    -6.026153D-05   2.671754D-04  -3.348449D-04
       3     7.551902D-05  -3.348449D-04   4.196330D-04
    ==== End of matrix output ====

 Principal values of diagonalized transition strength matrix:

             a.u.               
 1      -0.00000001
 2       0.00000000
 3       0.00070041

 Principal axis of diagonalized transition strength matrix:


               Column   1     Column   2     Column   3
       1       0.23314444     0.96241320     0.13930005
       2       0.78013897    -0.09959281    -0.61762809
       3       0.58054015    -0.25266996     0.77403555
    ==== End of matrix output ====


 CCSD   oscillator strength matrix for state nr. 13 of symmetry 1
 CCSD  excitation energy:15.00983025


               Column   1     Column   2     Column   3
       1       0.00013600    -0.00060301     0.00075569
       2      -0.00060301     0.00267350    -0.00335064
       3       0.00075569    -0.00335064     0.00419908
    ==== End of matrix output ====

 Principal values of diagonalized oscillator strength matrix:

             a.u.               
 1      -0.00000008
 2      -0.00000000
 3       0.00700866

 Principal axis of diagonalized oscillator strength matrix:


               Column   1     Column   2     Column   3
       1       0.23314444     0.96241320     0.13930005
       2       0.78013897    -0.09959281    -0.61762809
       3       0.58054015    -0.25266996     0.77403555
    ==== End of matrix output ====


 CCSD  Transition strength matrix for state nr. 14 of symmetry 1
 CCSD  excitation energy:15.01914251

 Gauge: length

               Column   1     Column   2     Column   3
       1     1.173232D-07  -2.991677D-06   3.842867D-06
       2    -2.991677D-06   7.589553D-05  -9.753113D-05
       3     3.842867D-06  -9.753113D-05   1.253299D-04
    ==== End of matrix output ====

 Principal values of diagonalized transition strength matrix:

             a.u.               
 1      -0.00000000
 2      -0.00000000
 3       0.00020134

 Principal axis of diagonalized transition strength matrix:


               Column   1     Column   2     Column   3
       1       0.49154401     0.87051657     0.02419480
       2       0.69451578    -0.37509959    -0.61396101
       3       0.52538778    -0.31859252     0.78896545
    ==== End of matrix output ====


 CCSD   oscillator strength matrix for state nr. 14 of symmetry 1
 CCSD  excitation energy:15.01914251


               Column   1     Column   2     Column   3
       1       0.00000117    -0.00002995     0.00003848
       2      -0.00002995     0.00075992    -0.00097656
       3       0.00003848    -0.00097656     0.00125490
    ==== End of matrix output ====

 Principal values of diagonalized oscillator strength matrix:

             a.u.               
 1      -0.00000002
 2       0.00000000
 3       0.00201602

 Principal axis of diagonalized oscillator strength matrix:


               Column   1     Column   2     Column   3
       1       0.49154401     0.87051657     0.02419480
       2       0.69451578    -0.37509959    -0.61396101
       3       0.52538778    -0.31859252     0.78896545
    ==== End of matrix output ====


 CCSD  Transition strength matrix for state nr. 15 of symmetry 1
 CCSD  excitation energy:15.02913198

 Gauge: length

               Column   1     Column   2     Column   3
       1     3.739699D-05  -1.694686D-05  -7.002103D-05
       2    -1.694686D-05   7.674943D-06   3.173167D-05
       3    -7.002103D-05   3.173167D-05   1.311052D-04
    ==== End of matrix output ====

 Principal values of diagonalized transition strength matrix:

             a.u.               
 1      -0.00000000
 2       0.00000000
 3       0.00017618

 Principal axis of diagonalized transition strength matrix:


               Column   1     Column   2     Column   3
       1       0.02318111     0.88724248    -0.46072053
       2       0.97443822     0.08295403     0.20877928
       3      -0.22345647     0.45378343     0.86264002
    ==== End of matrix output ====


 CCSD   oscillator strength matrix for state nr. 15 of symmetry 1
 CCSD  excitation energy:15.02913198


               Column   1     Column   2     Column   3
       1       0.00037470    -0.00016980    -0.00070157
       2      -0.00016980     0.00007690     0.00031793
       3      -0.00070157     0.00031793     0.00131360
    ==== End of matrix output ====

 Principal values of diagonalized oscillator strength matrix:

             a.u.               
 1      -0.00000005
 2      -0.00000000
 3       0.00176524

 Principal axis of diagonalized oscillator strength matrix:


               Column   1     Column   2     Column   3
       1       0.02318111     0.88724248    -0.46072053
       2       0.97443822     0.08295403     0.20877928
       3      -0.22345647     0.45378343     0.86264002
    ==== End of matrix output ====

  Total time for    135 linear response residues:      33.47 seconds.
  

 *******************************************************************************
 *******************************************************************************
 *                                                                             *
 *                                                                             *
 *                   SUMMARY OF COUPLED CLUSTER CALCULATION                    *
 *                                                                             *
 *                                                                             *
 *******************************************************************************
 *******************************************************************************

                                                                                
                                                                                
            Total SCF   energy:                  -360.8325393723                
            Total MP2   energy:                  -361.9538436922                
            Total CCSD  energy:                  -361.9889467705                
                                                                                
                                                                                
            Total SCF   energy:                  -360.8325393723                
            Total RSTAR energy:                  -361.9889467705                
            Total CCSD  energy:                  -361.9890257297                
                                                                                
                                                                                
            Total SCF   energy:                  -360.8325393723                
            Total RSTAR energy:                  -361.9890257297                
            Total CCSD  energy:                  -361.9890299242                
                                                                                
                                                                                
            Total SCF   energy:                  -360.8325393723                
            Total RSTAR energy:                  -361.9890299242                
            Total CCSD  energy:                  -361.9890301914                
                                                                                
                                                                                
            Total SCF   energy:                  -360.8325393723                
            Total RSTAR energy:                  -361.9890301914                
            Total CCSD  energy:                  -361.9890302098                
            CCSD Total  energy:                  -362.4558517110                
            CCSD E(PE-CC)     :                    -0.4611944888                
                                                                                
                                                                                
 +=============================================================================+
 |  sym. | Exci.  |        CCSD       Excitation energies            | ||T1||  |
 |(spin, |        +------------------------------------------------------------+
 | spat) |        |     Hartree    |       eV.      |     cm-1       |    %    |
 +=============================================================================+
 | ^1A   |    1   |    14.8133413  |     403.09152  |   3251152.591  |  88.32  |
 | ^1A   |    2   |    14.8711220  |     404.66382  |   3263833.997  |  88.60  |
 | ^1A   |    3   |    14.8891961  |     405.15564  |   3267800.790  |  88.47  |
 | ^1A   |    4   |    14.9022270  |     405.51023  |   3270660.754  |  88.44  |
 | ^1A   |    5   |    14.9217031  |     406.04020  |   3274935.263  |  88.10  |
 | ^1A   |    6   |    14.9338176  |     406.36985  |   3277594.079  |  88.30  |
 | ^1A   |    7   |    14.9516072  |     406.85393  |   3281498.438  |  88.20  |
 | ^1A   |    8   |    14.9541715  |     406.92371  |   3282061.252  |  88.08  |
 | ^1A   |    9   |    14.9651972  |     407.22373  |   3284481.112  |  88.17  |
 | ^1A   |   10   |    14.9758355  |     407.51321  |   3286815.942  |  88.22  |
 | ^1A   |   11   |    14.9791987  |     407.60473  |   3287554.091  |  88.26  |
 | ^1A   |   12   |    14.9832062  |     407.71378  |   3288433.623  |  88.28  |
 | ^1A   |   13   |    15.0098303  |     408.43826  |   3294276.931  |  88.33  |
 | ^1A   |   14   |    15.0191425  |     408.69166  |   3296320.735  |  88.18  |
 | ^1A   |   15   |    15.0291320  |     408.96348  |   3298513.172  |  88.23  |
 +=============================================================================+
                                                                                
                                                                                
     Total energies in Hartree:                                                 
             1 ^1A       -347.1813159206                                        
             2 ^1A       -347.1235351841                                        
             3 ^1A       -347.1054611445                                        
             4 ^1A       -347.0924301934                                        
             5 ^1A       -347.0729540950                                        
             6 ^1A       -347.0608396357                                        
             7 ^1A       -347.0430500701                                        
             8 ^1A       -347.0404857020                                        
             9 ^1A       -347.0294600085                                        
            10 ^1A       -347.0188217399                                        
            11 ^1A       -347.0154584823                                        
            12 ^1A       -347.0114510410                                        
            13 ^1A       -346.9848269683                                        
            14 ^1A       -346.9755147156                                        
            15 ^1A       -346.9655252375                                        
                                                                                
                                                                                
 +=============================================================================+
 |  sym. | Exci.  |        CCSD       Length   Gauge Oscillator Strength       |
 |(spin, |        +------------------------------------------------------------+
 | spat) |        | Dipole Strength(a.u.) | Oscillator strength  | Direction   |
 +=============================================================================+
 | ^1A   |    1   |        0.0004899      |      0.0048380       |  (Y,Z)      |
 | ^1A   |    2   |        0.0021633      |      0.0214469       |  (Y,Z)      |
 | ^1A   |    3   |        0.0012589      |      0.0124957       |  (Y,Z)      |
 | ^1A   |    4   |        0.0013827      |      0.0137369       |  (Y,Z)      |
 | ^1A   |    5   |        0.0001897      |      0.0018876       |  (Y,Z)      |
 | ^1A   |    6   |        0.0012283      |      0.0122292       |  (Y,Z)      |
 | ^1A   |    7   |        0.0003870      |      0.0038580       |  (Y,Z)      |
 | ^1A   |    8   |        0.0000627      |      0.0006250       |  (Y,Z)      |
 | ^1A   |    9   |        0.0005167      |      0.0051551       |  (Y,Z)      |
 | ^1A   |   10   |        0.0003372      |      0.0033670       |  (Y,Z)      |
 | ^1A   |   11   |        0.0005073      |      0.0050662       |  (Y,Z)      |
 | ^1A   |   12   |        0.0003035      |      0.0030317       |  (Y,Z)      |
 | ^1A   |   13   |        0.0007004      |      0.0070086       |  (Y,Z)      |
 | ^1A   |   14   |        0.0002013      |      0.0020160       |  (Y,Z)      |
 | ^1A   |   15   |        0.0001762      |      0.0017652       |  (Y,Z)      |
 +=============================================================================+

  1 a.u. =        27.21138 eV.  
  1 a.u. =    219474.62934 cm-1.
  

 *******************************************************************************
 *******************************************************************************
 *                                                                             *
 *                                                                             *
 *                      END OF COUPLED CLUSTER CALCULATION                     *
 *                                                                             *
 *                                                                             *
 *******************************************************************************
 *******************************************************************************


 CPU and wall time for CC :  438794.841  163746.035

 
     Date and time (Linux)  : Tue Dec 11 09:51:03 2018
     Host name              : s71p21.deic.sdu.dk                      


                      .-------------------------------------.
                      | End of Coupled Cluster Section (CC) |
                      `-------------------------------------'

  Total CPU  time used in DALTON: 121 hours 59 minutes 18 seconds
  Total wall time used in DALTON:  45 hours 32 minutes  2 seconds

 
     Date and time (Linux)  : Tue Dec 11 09:51:03 2018
     Host name              : s71p21.deic.sdu.dk                      
  

 +---------------------------------------------------------+ 
 | List of selected calculated molecular properties (a.u.) | 
 +---------------------------------------------------------+ 

  Properties are read from unit number                      4

 CCSD       properties :
 #  1 1 PE-CCSD  Ground state Energy =    -362.4558517110
 #  2 1 E(PE-CC) Ground state Energy =      -0.4611944888
 #  3 1 Sy: 1 Sp: 1 Exc:  1 E_tot:   -347.1813159206 w:     14.8133413017 E_grs:   -361.9946572222
 #  4 1 Exctot   Excited state Energy =    -347.1813159206
 #  5 1 Sy: 1 Sp: 1 Exc:  2 E_tot:   -347.1235351841 w:     14.8711220382 E_grs:   -361.9946572222
 #  6 1 Exctot   Excited state Energy =    -347.1235351841
 #  7 1 Sy: 1 Sp: 1 Exc:  3 E_tot:   -347.1054611445 w:     14.8891960777 E_grs:   -361.9946572222
 #  8 1 Exctot   Excited state Energy =    -347.1054611445
 #  9 1 Sy: 1 Sp: 1 Exc:  4 E_tot:   -347.0924301934 w:     14.9022270288 E_grs:   -361.9946572222
 # 10 1 Exctot   Excited state Energy =    -347.0924301934
 # 11 1 Sy: 1 Sp: 1 Exc:  5 E_tot:   -347.0729540950 w:     14.9217031273 E_grs:   -361.9946572222
 # 12 1 Exctot   Excited state Energy =    -347.0729540950
 # 13 1 Sy: 1 Sp: 1 Exc:  6 E_tot:   -347.0608396357 w:     14.9338175865 E_grs:   -361.9946572222
 # 14 1 Exctot   Excited state Energy =    -347.0608396357
 # 15 1 Sy: 1 Sp: 1 Exc:  7 E_tot:   -347.0430500701 w:     14.9516071521 E_grs:   -361.9946572222
 # 16 1 Exctot   Excited state Energy =    -347.0430500701
 # 17 1 Sy: 1 Sp: 1 Exc:  8 E_tot:   -347.0404857020 w:     14.9541715202 E_grs:   -361.9946572222
 # 18 1 Exctot   Excited state Energy =    -347.0404857020
 # 19 1 Sy: 1 Sp: 1 Exc:  9 E_tot:   -347.0294600085 w:     14.9651972138 E_grs:   -361.9946572222
 # 20 1 Exctot   Excited state Energy =    -347.0294600085
 # 21 1 Sy: 1 Sp: 1 Exc: 10 E_tot:   -347.0188217399 w:     14.9758354823 E_grs:   -361.9946572222
 # 22 1 Exctot   Excited state Energy =    -347.0188217399
 # 23 1 Sy: 1 Sp: 1 Exc: 11 E_tot:   -347.0154584823 w:     14.9791987399 E_grs:   -361.9946572222
 # 24 1 Exctot   Excited state Energy =    -347.0154584823
 # 25 1 Sy: 1 Sp: 1 Exc: 12 E_tot:   -347.0114510410 w:     14.9832061812 E_grs:   -361.9946572222
 # 26 1 Exctot   Excited state Energy =    -347.0114510410
 # 27 1 Sy: 1 Sp: 1 Exc: 13 E_tot:   -346.9848269683 w:     15.0098302539 E_grs:   -361.9946572222
 # 28 1 Exctot   Excited state Energy =    -346.9848269683
 # 29 1 Sy: 1 Sp: 1 Exc: 14 E_tot:   -346.9755147156 w:     15.0191425066 E_grs:   -361.9946572222
 # 30 1 Exctot   Excited state Energy =    -346.9755147156
 # 31 1 Sy: 1 Sp: 1 Exc: 15 E_tot:   -346.9655252375 w:     15.0291319847 E_grs:   -361.9946572222
 # 32 1 Exctot   Excited state Energy =    -346.9655252375
 # 33 1 |<O|XDIPLEN |i(14.813341)>| =     0.01009295
 # 35 1 |<O|XDIPLEN |i(14.871122)>| =     0.02159130
 # 37 1 |<O|XDIPLEN |i(14.889196)>| =     0.01986616
 # 39 1 |<O|XDIPLEN |i(14.902227)>| =     0.03212571
 # 41 1 |<O|XDIPLEN |i(14.921703)>| =     0.00598487
 # 43 1 |<O|XDIPLEN |i(14.933818)>| =     0.03166983
 # 45 1 |<O|XDIPLEN |i(14.951607)>| =     0.00188039
 # 47 1 |<O|XDIPLEN |i(14.954172)>| =     0.00239265
 # 49 1 |<O|XDIPLEN |i(14.965197)>| =     0.00222319
 # 51 1 |<O|XDIPLEN |i(14.975835)>| =     0.01045466
 # 53 1 |<O|XDIPLEN |i(14.979199)>| =     0.00921203
 # 55 1 |<O|XDIPLEN |i(14.983206)>| =     0.01665290
 # 57 1 |<O|XDIPLEN |i(15.009830)>| =     0.00368654
 # 59 1 |<O|XDIPLEN |i(15.019143)>| =     0.00034252
 # 61 1 |<O|XDIPLEN |i(15.029132)>| =     0.00611531
 # 63 1 |<O|YDIPLEN |i(14.813341)>| =     0.01630644
 # 65 1 |<O|YDIPLEN |i(14.871122)>| =     0.01504491
 # 67 1 |<O|YDIPLEN |i(14.889196)>| =     0.01518224
 # 69 1 |<O|YDIPLEN |i(14.902227)>| =     0.01870486
 # 71 1 |<O|YDIPLEN |i(14.921703)>| =     0.00604764
 # 73 1 |<O|YDIPLEN |i(14.933818)>| =     0.01451358
 # 75 1 |<O|YDIPLEN |i(14.951607)>| =     0.01956812
 # 77 1 |<O|YDIPLEN |i(14.954172)>| =     0.00693491
 # 79 1 |<O|YDIPLEN |i(14.965197)>| =     0.00528290
 # 81 1 |<O|YDIPLEN |i(14.975835)>| =     0.00069966
 # 83 1 |<O|YDIPLEN |i(14.979199)>| =     0.01601520
 # 85 1 |<O|YDIPLEN |i(14.983206)>| =     0.00234444
 # 87 1 |<O|YDIPLEN |i(15.009830)>| =     0.01634550
 # 89 1 |<O|YDIPLEN |i(15.019143)>| =     0.00871180
 # 91 1 |<O|YDIPLEN |i(15.029132)>| =     0.00277037
 # 93 1 |<O|ZDIPLEN |i(14.813341)>| =     0.01105110
 # 95 1 |<O|ZDIPLEN |i(14.871122)>| =     0.03835022
 # 97 1 |<O|ZDIPLEN |i(14.889196)>| =     0.02517343
 # 99 1 |<O|ZDIPLEN |i(14.902227)>| =     0.00087703
 #101 1 |<O|ZDIPLEN |i(14.921703)>| =     0.01083313
 #103 1 |<O|ZDIPLEN |i(14.933818)>| =     0.00383598
 #105 1 |<O|ZDIPLEN |i(14.951607)>| =     0.00077325
 #107 1 |<O|ZDIPLEN |i(14.954172)>| =     0.00297814
 #109 1 |<O|ZDIPLEN |i(14.965197)>| =     0.02199684
 #111 1 |<O|ZDIPLEN |i(14.975835)>| =     0.01508172
 #113 1 |<O|ZDIPLEN |i(14.979199)>| =     0.01288316
 #115 1 |<O|ZDIPLEN |i(14.983206)>| =     0.00454926
 #117 1 |<O|ZDIPLEN |i(15.009830)>| =     0.02048495
 #119 1 |<O|ZDIPLEN |i(15.019143)>| =     0.01119508
 #121 1 |<O|ZDIPLEN |i(15.029132)>| =     0.01145012

 THE_END   
