

     ************************************************************************
     *************** Dalton - An Electronic Structure Program ***************
     ************************************************************************

    This is output from DALTON release Dalton2017.alpha (2016)
         ( Web site: http://daltonprogram.org )

   ----------------------------------------------------------------------------

    NOTE:
     
    Dalton is an experimental code for the evaluation of molecular
    properties using (MC)SCF, DFT, CI, and CC wave functions.
    The authors accept no responsibility for the performance of
    the code or for the correctness of the results.
     
    The code (in whole or part) is provided under a licence and
    is not to be reproduced for further distribution without
    the written permission of the authors or their representatives.
     
    See the home page "http://daltonprogram.org" for further information.
     
    If results obtained with this code are published,
    the appropriate citations would be both of:
     
       K. Aidas, C. Angeli, K. L. Bak, V. Bakken, R. Bast,
       L. Boman, O. Christiansen, R. Cimiraglia, S. Coriani,
       P. Dahle, E. K. Dalskov, U. Ekstroem,
       T. Enevoldsen, J. J. Eriksen, P. Ettenhuber, B. Fernandez,
       L. Ferrighi, H. Fliegl, L. Frediani, K. Hald, A. Halkier,
       C. Haettig, H. Heiberg, T. Helgaker, A. C. Hennum,
       H. Hettema, E. Hjertenaes, S. Hoest, I.-M. Hoeyvik,
       M. F. Iozzi, B. Jansik, H. J. Aa. Jensen, D. Jonsson,
       P. Joergensen, J. Kauczor, S. Kirpekar,
       T. Kjaergaard, W. Klopper, S. Knecht, R. Kobayashi, H. Koch,
       J. Kongsted, A. Krapp, K. Kristensen, A. Ligabue,
       O. B. Lutnaes, J. I. Melo, K. V. Mikkelsen, R. H. Myhre,
       C. Neiss, C. B. Nielsen, P. Norman, J. Olsen,
       J. M. H. Olsen, A. Osted, M. J. Packer, F. Pawlowski,
       T. B. Pedersen, P. F. Provasi, S. Reine, Z. Rinkevicius,
       T. A. Ruden, K. Ruud, V. Rybkin, P. Salek, C. C. M. Samson,
       A. Sanchez de Meras, T. Saue, S. P. A. Sauer,
       B. Schimmelpfennig, K. Sneskov, A. H. Steindal,
       K. O. Sylvester-Hvid, P. R. Taylor, A. M. Teale,
       E. I. Tellgren, D. P. Tew, A. J. Thorvaldsen, L. Thoegersen,
       O. Vahtras, M. A. Watson, D. J. D. Wilson, M. Ziolkowski
       and H. Agren,
       "The Dalton quantum chemistry program system",
       WIREs Comput. Mol. Sci. 2014, 4:269–284 (doi: 10.1002/wcms.1172)
     
    and
     
       Dalton, a Molecular Electronic Structure Program,
       Release Dalton2017.alpha (2016), see http://daltonprogram.org
   ----------------------------------------------------------------------------

    Authors in alphabetical order (major contribution(s) in parenthesis):

  Kestutis Aidas,           Vilnius University,           Lithuania   (QM/MM)
  Celestino Angeli,         University of Ferrara,        Italy       (NEVPT2)
  Keld L. Bak,              UNI-C,                        Denmark     (AOSOPPA, non-adiabatic coupling, magnetic properties)
  Vebjoern Bakken,          University of Oslo,           Norway      (DALTON; geometry optimizer, symmetry detection)
  Radovan Bast,             UiT The Arctic U. of Norway,  Norway      (DALTON installation and execution frameworks)
  Pablo Baudin,             University of Valencia,       Spain       (Cholesky excitation energies)
  Linus Boman,              NTNU,                         Norway      (Cholesky decomposition and subsystems)
  Ove Christiansen,         Aarhus University,            Denmark     (CC module)
  Renzo Cimiraglia,         University of Ferrara,        Italy       (NEVPT2)
  Sonia Coriani,            University of Trieste,        Italy       (CC module, MCD in RESPONS)
  Janusz Cukras,            University of Trieste,        Italy       (MChD in RESPONS)
  Paal Dahle,               University of Oslo,           Norway      (Parallelization)
  Erik K. Dalskov,          UNI-C,                        Denmark     (SOPPA)
  Thomas Enevoldsen,        Univ. of Southern Denmark,    Denmark     (SOPPA)
  Janus J. Eriksen,         Aarhus University,            Denmark     (Polarizable embedding model, TDA)
  Rasmus Faber,             University of Copenhagen,     Denmark     (Vib.avg. NMR with SOPPA, parallel AO-SOPPA)
  Berta Fernandez,          U. of Santiago de Compostela, Spain       (doublet spin, ESR in RESPONS)
  Lara Ferrighi,            Aarhus University,            Denmark     (PCM Cubic response)
  Heike Fliegl,             University of Oslo,           Norway      (CCSD(R12))
  Luca Frediani,            UiT The Arctic U. of Norway,  Norway      (PCM)
  Bin Gao,                  UiT The Arctic U. of Norway,  Norway      (Gen1Int library)
  Christof Haettig,         Ruhr-University Bochum,       Germany     (CC module)
  Kasper Hald,              Aarhus University,            Denmark     (CC module)
  Asger Halkier,            Aarhus University,            Denmark     (CC module)
  Frederik Beyer Hansen,    University of Copenhagen,     Denmark     (Parallel AO-SOPPA)
  Erik D. Hedegaard,        Univ. of Southern Denmark,    Denmark     (Polarizable embedding model, QM/MM)
  Hanne Heiberg,            University of Oslo,           Norway      (geometry analysis, selected one-electron integrals)
  Trygve Helgaker,          University of Oslo,           Norway      (DALTON; ABACUS, ERI, DFT modules, London, and much more)
  Alf Christian Hennum,     University of Oslo,           Norway      (Parity violation)
  Hinne Hettema,            University of Auckland,       New Zealand (quadratic response in RESPONS; SIRIUS supersymmetry)
  Eirik Hjertenaes,         NTNU,                         Norway      (Cholesky decomposition)
  Pi A. B. Haase,           University of Copenhagen,     Denmark     (Triplet AO-SOPPA)
  Maria Francesca Iozzi,    University of Oslo,           Norway      (RPA)
  Brano Jansik              Technical Univ. of Ostrava    Czech Rep.  (DFT cubic response)
  Hans Joergen Aa. Jensen,  Univ. of Southern Denmark,    Denmark     (DALTON; SIRIUS, RESPONS, ABACUS modules, London, and much more)
  Dan Jonsson,              UiT The Arctic U. of Norway,  Norway      (cubic response in RESPONS module)
  Poul Joergensen,          Aarhus University,            Denmark     (RESPONS, ABACUS, and CC modules)
  Maciej Kaminski,          University of Warsaw,         Poland      (CPPh in RESPONS)
  Joanna Kauczor,           Linkoeping University,        Sweden      (Complex polarization propagator (CPP) module)
  Sheela Kirpekar,          Univ. of Southern Denmark,    Denmark     (Mass-velocity & Darwin integrals)
  Wim Klopper,              KIT Karlsruhe,                Germany     (R12 code in CC, SIRIUS, and ABACUS modules)
  Stefan Knecht,            ETH Zurich,                   Switzerland (Parallel CI and MCSCF)
  Rika Kobayashi,           Australian National Univ.,    Australia   (DIIS in CC, London in MCSCF)
  Henrik Koch,              NTNU,                         Norway      (CC module, Cholesky decomposition)
  Jacob Kongsted,           Univ. of Southern Denmark,    Denmark     (Polarizable embedding model, QM/MM)
  Andrea Ligabue,           University of Modena,         Italy       (CTOCD, AOSOPPA)
  Nanna H. List             Univ. of Southern Denmark,    Denmark     (Polarizable embedding model)
  Ola B. Lutnaes,           University of Oslo,           Norway      (DFT Hessian)
  Juan I. Melo,             University of Buenos Aires,   Argentina   (LRESC, Relativistic Effects on NMR Shieldings)
  Kurt V. Mikkelsen,        University of Copenhagen,     Denmark     (MC-SCRF and QM/MM)
  Rolf H. Myhre,            NTNU,                         Norway      (Cholesky, subsystems and ECC2)
  Christian Neiss,          Univ. Erlangen-Nuernberg,     Germany     (CCSD(R12))
  Christian B. Nielsen,     University of Copenhagen,     Denmark     (QM/MM)
  Patrick Norman,           Linkoeping University,        Sweden      (Cubic response and complex frequency response in RESPONS)
  Jeppe Olsen,              Aarhus University,            Denmark     (SIRIUS CI/density modules)
  Jogvan Magnus H. Olsen,   Univ. of Southern Denmark,    Denmark     (Polarizable embedding model, QM/MM)
  Anders Osted,             Copenhagen University,        Denmark     (QM/MM)
  Martin J. Packer,         University of Sheffield,      UK          (SOPPA)
  Filip Pawlowski,          Kazimierz Wielki University,  Poland      (CC3)
  Morten N. Pedersen,       Univ. of Southern Denmark,    Denmark     (Polarizable embedding model)
  Thomas B. Pedersen,       University of Oslo,           Norway      (Cholesky decomposition)
  Patricio F. Provasi,      University of Northeastern,   Argentina   (Analysis of coupling constants in localized orbitals)
  Zilvinas Rinkevicius,     KTH Stockholm,                Sweden      (open-shell DFT, ESR)
  Elias Rudberg,            KTH Stockholm,                Sweden      (DFT grid and basis info)
  Torgeir A. Ruden,         University of Oslo,           Norway      (Numerical derivatives in ABACUS)
  Kenneth Ruud,             UiT The Arctic U. of Norway,  Norway      (DALTON; ABACUS magnetic properties and much more)
  Pawel Salek,              KTH Stockholm,                Sweden      (DALTON; DFT code)
  Claire C. M. Samson       University of Karlsruhe       Germany     (Boys localization, r12 integrals in ERI)
  Alfredo Sanchez de Meras, University of Valencia,       Spain       (CC module, Cholesky decomposition)
  Trond Saue,               Paul Sabatier University,     France      (direct Fock matrix construction)
  Stephan P. A. Sauer,      University of Copenhagen,     Denmark     (SOPPA(CCSD), SOPPA prop., AOSOPPA, vibrational g-factors)
  Bernd Schimmelpfennig,    Forschungszentrum Karlsruhe,  Germany     (AMFI module)
  Kristian Sneskov,         Aarhus University,            Denmark     (Polarizable embedding model, QM/MM)
  Arnfinn H. Steindal,      UiT The Arctic U. of Norway,  Norway      (parallel QM/MM, Polarizable embedding model)
  Casper Steinmann,         Univ. of Southern Denmark,    Denmark     (QFIT, Polarizable embedding model)
  K. O. Sylvester-Hvid,     University of Copenhagen,     Denmark     (MC-SCRF)
  Peter R. Taylor,          VLSCI/Univ. of Melbourne,     Australia   (Symmetry handling ABACUS, integral transformation)
  Andrew M. Teale,          University of Nottingham,     England     (DFT-AC, DFT-D)
  David P. Tew,             University of Bristol,        England     (CCSD(R12))
  Olav Vahtras,             KTH Stockholm,                Sweden      (triplet response, spin-orbit, ESR, TDDFT, open-shell DFT)
  David J. Wilson,          La Trobe University,          Australia   (DFT Hessian and DFT magnetizabilities)
  Hans Agren,               KTH Stockholm,                Sweden      (SIRIUS module, RESPONS, MC-SCRF solvation model)
 --------------------------------------------------------------------------------

     Date and time (Linux)  : Sun Dec  9 12:19:02 2018
     Host name              : s71p21.deic.sdu.dk                      

 * Work memory size             :  2048000000 = 15.259 gigabytes.

 * Directories for basis set searches:
   1) /work/sdujk/reinholdt/ECP-Sonia/6-311++G**
   2) /gpfs/gss1/work/sdujk/reinholdt/Programs/dalton-private/pe-cvs/basis


Compilation information
-----------------------

 Who compiled             | reinholdt
 Host                     | fe1.deic.sdu.dk
 System                   | Linux-3.10.0-327.36.3.el7.x86_64
 CMake generator          | Unix Makefiles
 Processor                | x86_64
 64-bit integers          | ON
 MPI                      | OFF
 Fortran compiler         | /opt/sys/apps/intel/2018.05/compilers_and_librarie
                          | s_2018.3.222/linux/bin/intel64/ifort
 Fortran compiler version | ifort (IFORT) 18.0.3 20180410
 C compiler               | /opt/sys/apps/intel/2018.05/compilers_and_librarie
                          | s_2018.3.222/linux/bin/intel64/icc
 C compiler version       | icc (ICC) 18.0.3 20180410
 C++ compiler             | /opt/sys/apps/intel/2018.05/compilers_and_librarie
                          | s_2018.3.222/linux/bin/intel64/icpc
 C++ compiler version     | icpc (ICC) 18.0.3 20180410
 Static linking           | OFF
 Last Git revision        | 252a54078a0f9a1f0a59b3262fa4a57829155fe9
 Git branch               | pe/cc-cvs
 Configuration time       | 2018-12-09 12:09:40.474621


   Content of the .dal input file
 ----------------------------------

**DALTON
.RUN WAVE FUNCTIONS
.PEQM
**INTEGRALS
.DIPLEN
**WAVE FUNCTIONS
.CC
*PRINT
!To check the origin of excit
.PRINTL
   0 11
*SCF INP
.THRESH
1.0D-7
*CC INP
.CCSD
.THRLEQ
 1.0D-9
.THRENR
 1.0D-10
.FROIMP
4
0
.PRINT
 1
.MAX IT
 1200
.MAXRED
 1200
.MXLRV
1199
*PECC
*CCEXCI
.NCCEXC
 15
.CVSEPARA
1
1
*CCLRSD
.DIPOLE
**END OF DALTON INPUT


   Content of the .mol file
 ----------------------------

ATOMBASIS


Atomtypes=5 Charge=1 Nosymm Angstrom
   7.00000    1    Basis=6-311++G**
N          0.000000        0.000000        0.000000
   1.00000    4    Basis=6-311++G**
H         -0.986798        0.158192        0.209252
H          0.099905        0.008150       -1.036203
H          0.306136       -0.830246        0.456604
H          0.602571        0.778264        0.308939
   8.00000    4    Basis=6-311++G**
O         -2.851387        0.280971       -0.395421
O          1.557405        2.243639        0.898477
O          0.027701        0.430319       -2.700204
O          2.086789       -1.795203        1.452611
   1.00000    8    Basis=6-311++G**
H         -3.332311       -0.400096        0.142368
H         -3.514301        1.053183       -0.434516
H          1.432841        3.232280        1.052153
H          2.267997        2.159980        0.184844
H          0.867235        0.355314       -3.217866
H         -0.496919       -0.303537       -3.061090
H          1.766803       -2.435519        2.169424
H          2.362806       -0.979235        1.975913
Charge=8.0   Atoms=59    Basis=pointcharge ECP=pe_ecp
  1        0.112898        3.608277       -1.574905
  2        5.009827        4.608036       -4.334404
  3        2.673025        4.925603       -2.448259
  4        4.264806       -5.925978       -0.572182
  5       -4.264126       -4.205008       -1.789997
  6       -5.926429        5.857625       -2.479855
  7       -1.718177       -4.506404        2.126609
  8        2.574807        0.388875       -3.617291
  9        3.053972       -5.775787        3.068167
 10       -1.584073        2.769183       -4.350889
 11       -5.087491        1.935365       -0.578937
 12        4.959786       -3.342451       -2.690973
 13        5.892547        0.578514       -2.512611
 14        5.157655       -1.862180       -0.156351
 15        4.409004        3.711310        0.505890
 16        3.132119       -3.890033       -4.690903
 17       -1.976353        3.687820        0.007217
 18        6.093110        1.271434        1.727958
 19       -0.673365        6.212450       -2.541278
 20       -4.693000        0.689232        5.480743
 21       -1.301940        0.177026        2.695597
 22        1.024004        0.659521        3.940680
 23       -5.383067       -3.537770        0.402633
 24       -2.852184        5.040903       -3.841934
 25       -5.529301       -2.442024        6.009617
 26       -3.103082       -3.870826        5.731577
 27        1.110514        5.260724        1.607866
 28       -2.589035       -0.952887       -2.851029
 29        2.438420        2.753538        4.831085
 30        1.527769       -2.202719       -3.083977
 31        0.454045       -0.879835       -6.024092
 32        0.422077        4.422451       -6.110711
 33       -5.777921        5.338387        3.805963
 34       -5.379164       -0.937902        3.134424
 35       -4.407122       -5.267675       -5.034629
 36        4.256556       -4.086719        5.209368
 37        5.874458       -6.160117        6.135973
 38       -3.503910       -1.973834        1.299733
 39        3.778475        0.675346       -5.968366
 40        3.921400       -1.202639        4.095318
 41       -0.776779        4.872252        3.955241
 42        3.544560        0.760265        2.317497
 43       -4.874138        2.826642        3.693416
 44        5.644741        2.107673       -4.888098
 45        3.305080        2.288839       -1.553846
 46       -2.409675        2.609742        2.419087
 47       -2.187512        0.367222       -5.560088
 48       -0.323979       -3.636159       -6.087993
 49       -0.986553       -3.248441       -2.724431
 50       -5.497795       -1.762016       -3.624858
 51        1.448287       -6.090064       -4.385857
 52        3.935267        4.210166        3.332849
 53        2.526024       -3.707605       -0.408632
 54        0.720832       -3.707990        3.221251
 55        4.604279       -3.485051        2.263711
 56       -4.749426        4.717234       -0.300159
 57       -3.309232       -5.921204        3.699653
 58       -6.023854       -5.999653        1.435007
 59        0.212891       -5.225726        0.047566


       *******************************************************************
       *********** Output from DALTON general input processing ***********
       *******************************************************************

 --------------------------------------------------------------------------------
   Overall default print level:    0
   Print level for DALTON.STAT:    1

    HERMIT 1- and 2-electron integral sections will be executed
    "Old" integral transformation used (limited to max 255 basis functions)
    Wave function sections will be executed (SIRIUS module)
    Environment is modeled using polarizable embedding scheme (PE library)
 --------------------------------------------------------------------------------


   ****************************************************************************
   *************** Output of molecule and basis set information ***************
   ****************************************************************************


    The two title cards from your ".mol" input:
    ------------------------------------------------------------------------
 1:                                                                         
 2:                                                                         
    ------------------------------------------------------------------------

  Coordinates are entered in Angstrom and converted to atomic units.
          - Conversion factor : 1 bohr = 0.52917721 A

  Atomic type no.    1
  --------------------
  Nuclear charge:   7.00000
  Number of symmetry independent centers:    1
  Number of basis sets to read;    2
  The basis set is "6-311++G**" from the basis set library.
  Basis set file used for this atomic type with Z =   7 :
     "/gpfs/gss1/work/sdujk/reinholdt/Programs/dalton-private/pe-cvs/basis/6-311++G**"

  Info about the basis set file: your basis has no documentation.
  Basis set: 6-311++G**                                                                      

  Atomic type no.    2
  --------------------
  Nuclear charge:   1.00000
  Number of symmetry independent centers:    4
  Number of basis sets to read;    2
  The basis set is "6-311++G**" from the basis set library.
  Basis set file used for this atomic type with Z =   1 :
     "/gpfs/gss1/work/sdujk/reinholdt/Programs/dalton-private/pe-cvs/basis/6-311++G**"

  Info about the basis set file: your basis has no documentation.
  Basis set: 6-311++G**                                                                      

  Atomic type no.    3
  --------------------
  Nuclear charge:   8.00000
  Number of symmetry independent centers:    4
  Number of basis sets to read;    2
  The basis set is "6-311++G**" from the basis set library.
  Basis set file used for this atomic type with Z =   8 :
     "/gpfs/gss1/work/sdujk/reinholdt/Programs/dalton-private/pe-cvs/basis/6-311++G**"

  Info about the basis set file: your basis has no documentation.
  Basis set: 6-311++G**                                                                      

  Atomic type no.    4
  --------------------
  Nuclear charge:   1.00000
  Number of symmetry independent centers:    8
  Number of basis sets to read;    2
  The basis set is "6-311++G**" from the basis set library.
  Basis set file used for this atomic type with Z =   1 :
     "/gpfs/gss1/work/sdujk/reinholdt/Programs/dalton-private/pe-cvs/basis/6-311++G**"

  Info about the basis set file: your basis has no documentation.
  Basis set: 6-311++G**                                                                      

  Atomic type no.    5
  --------------------
  Nuclear charge:   8.00000
  Number of symmetry independent centers:   59
  Number of basis sets to read;    2
     "/work/sdujk/reinholdt/ECP-Sonia/6-311++G**/ecp_data/pe_ecp"
     Pseudo potential parameters for ECP type  1.
     -----------------------------------------------
     Atomic charge  :  8.0
     Effectiv charge:  0.0
     Core electrons :    8
     Max angular mom:    2
  This is a point charge without basis functions.


                         SYMGRP: Point group information
                         -------------------------------

@    Point group: C1 


                                 Isotopic Masses
                                 ---------------

                           N          14.003074
                           H           1.007825
                           H           1.007825
                           H           1.007825
                           H           1.007825
                           O          15.994915
                           O          15.994915
                           O          15.994915
                           O          15.994915
                           H           1.007825
                           H           1.007825
                           H           1.007825
                           H           1.007825
                           H           1.007825
                           H           1.007825
                           H           1.007825
                           H           1.007825

                       Total mass:    90.076634 amu
                       Natural abundance:  98.500 %

 Center-of-mass coordinates (a.u.):    0.304421    0.448288   -0.276269


  Atoms and basis sets
  --------------------

  Number of atom types :    5
  Total number of atoms:   76

  label    atoms   charge   prim   cont     basis
  ----------------------------------------------------------------------
  N           1    7.0000    35    22      [12s6p1d|5s4p1d]                                   
  H           4    1.0000     9     7      [6s1p|4s1p]                                        
  O           4    8.0000    35    22      [12s6p1d|5s4p1d]                                   
  H           8    1.0000     9     7      [6s1p|4s1p]                                        
   5         59    0.0000     0     0      Point Charge                                       
  ----------------------------------------------------------------------
  total:     76   51.0000   283   194
  ----------------------------------------------------------------------
  Spherical harmonic basis used.

  Threshold for neglecting AO integrals:  1.00D-12


  Cartesian Coordinates (a.u.)
  ----------------------------

  Total number of coordinates:  228
  N       :     1  x   0.0000000000    2  y   0.0000000000    3  z   0.0000000000
  H       :     4  x  -1.8647779607    5  y   0.2989395552    6  z   0.3954289711
  H       :     7  x   0.1887930885    8  y   0.0154012679    9  z  -1.9581398799
  H       :    10  x   0.5785131970   11  y  -1.5689375564   12  z   0.8628565076
  H       :    13  x   1.1386941609   14  y   1.4707058129   15  z   0.5838100993
  O       :    16  x  -5.3883405064   17  y   0.5309582391   18  z  -0.7472373941
  O       :    19  x   2.9430689157   20  y   4.2398632334   21  z   1.6978754596
  O       :    22  x   0.0523473034   23  y   0.8131850564   24  z  -5.1026460416
  O       :    25  x   3.9434596906   26  y  -3.3924420088   27  z   2.7450369562
  H       :    28  x  -6.2971551533   29  y  -0.7560718637   30  z   0.2690365290
  H       :    31  x  -6.6410664108   32  y   1.9902274295   33  z  -0.8211162369
  H       :    34  x   2.7076770707   35  y   6.1081239593   36  z   1.9882810116
  H       :    37  x   4.2858931823   38  y   4.0817706355   39  z   0.3493045358
  H       :    40  x   1.6388366360   41  y   0.6714461484   42  z  -6.0808854469
  H       :    43  x  -0.9390408163   44  y  -0.5736017988   45  z  -5.7846217440
  H       :    46  x   3.3387737868   47  y  -4.6024638822   48  z   4.0996172090
  H       :    49  x   4.4650562265   50  y  -1.8504859620   51  z   3.7339344168
    1     :    52  x   0.2133463001   53  y   6.8186553131   54  z  -2.9761391229
    2     :    55  x   9.4672009636   56  y   8.7079260141   57  z  -8.1908364751
    3     :    58  x   5.0512851753   59  y   9.3080406704   60  z  -4.6265389931
    4     :    61  x   8.0593153162   62  y -11.1984754427   63  z  -1.0812672737
    5     :    64  x  -8.0580303025   65  y  -7.9463134734   66  z  -3.3826040946
    6     :    67  x -11.1993277092   68  y  11.0693069929   69  z  -4.6862467797
    7     :    70  x  -3.2468839643   71  y  -8.5158693686   72  z   4.0187085849
    8     :    73  x   4.8656800547   74  y   0.7348672469   75  z  -6.8356893044
    9     :    76  x   5.7711706734   77  y -10.9146555863   78  z   5.7979953357
   10     :    79  x  -2.9934641320   80  y   5.2329974600   81  z  -8.2219886102
   11     :    82  x  -9.6139646534   83  y   3.6573098019   84  z  -1.0940323736
   12     :    85  x   9.3726371786   86  y  -6.3163169762   87  z  -5.0852019798
   13     :    88  x  11.1353000087   89  y   1.0932330195   90  z  -4.7481466486
   14     :    91  x   9.7465553972   92  y  -3.5190101954   93  z  -0.2954605694
   15     :    94  x   8.3318100440   95  y   7.0133594649   96  z   0.9559935494
   16     :    97  x   5.9188471009   98  y  -7.3510969872   99  z  -8.8645219489
   17     :   100  x  -3.7347658963  101  y   6.9689697983  102  z   0.0136381534
   18     :   103  x  11.5143091495  104  y   2.4026620460  105  z   3.2653673755
   19     :   106  x  -1.2724754322  107  y  11.7398290652  108  z  -4.8023194275
   20     :   109  x  -8.8684847046  110  y   1.3024597166  111  z  10.3571032315
   21     :   112  x  -2.4603100312  113  y   0.3345306570  114  z   5.0939400734
   22     :   115  x   1.9350871109  116  y   1.2463140637  117  z   7.4468059462
   23     :   118  x -10.1725223425  119  y  -6.6854163932  120  z   0.7608660989
   24     :   121  x  -5.3898466181  122  y   9.5259260927  123  z  -7.2602030503
   25     :   124  x -10.4488645527  125  y  -4.6147565507  126  z  11.3565302461
   26     :   127  x  -5.8639751234  128  y  -7.3148010175  129  z  10.8311107943
   27     :   130  x   2.0985673180  131  y   9.9413275792  132  z   3.0384263857
   28     :   133  x  -4.8925670780  134  y  -1.8006954581  135  z  -5.3876639844
   29     :   136  x   4.6079459777  137  y   5.2034326948  138  z   9.1294275366
   30     :   139  x   2.8870649923  140  y  -4.1625356403  141  z  -5.8278719058
   31     :   142  x   0.8580206984  143  y  -1.6626471852  144  z -11.3838840318
   32     :   145  x   0.7976099337  146  y   8.3572211912  147  z -11.5475702190
   33     :   148  x -10.9186882618  149  y  10.0880893792  150  z   7.1922277119
   34     :   151  x -10.1651467414  152  y  -1.7723779121  153  z   5.9232029196
   35     :   154  x  -8.3282535794  155  y  -9.9544630655  156  z  -9.5140699510
   36     :   157  x   8.0437250757  158  y  -7.7227796598  159  z   9.8442788043
   37     :   160  x  11.1011167528  161  y -11.6409340279  162  z  11.5953084804
   38     :   163  x  -6.6214302666  164  y  -3.7300056762  165  z   2.4561394056
   39     :   166  x   7.1402829201  167  y   1.2762189796  168  z -11.2785771537
   40     :   169  x   7.4103720265  170  y  -2.2726583372  171  z   7.7390294148
   41     :   172  x  -1.4678995696  173  y   9.2072218920  174  z   7.4743222483
   42     :   175  x   6.6982476336  176  y   1.4366926324  177  z   4.3794346255
   43     :   178  x  -9.2107859154  179  y   5.3415792334  180  z   6.9795447057
   44     :   181  x  10.6670145365  182  y   3.9829247310  183  z  -9.2371664921
   45     :   184  x   6.2456960212  185  y   4.3252788542  186  z  -2.9363433804
   46     :   187  x  -4.5536258002  188  y   4.9316976369  189  z   4.5714119025
   47     :   190  x  -4.1337985751  191  y   0.6939490071  192  z -10.5070435509
   48     :   193  x  -0.6122315802  194  y  -6.8713446569  195  z -11.5046394209
   49     :   196  x  -1.8643149778  197  y  -6.1386638232  198  z  -5.1484284364
   50     :   199  x -10.3893268414  200  y  -3.3297276679  201  z  -6.8499888620
   51     :   202  x   2.7368657804  203  y -11.5085530437  204  z  -8.2880685534
   52     :   205  x   7.4365768587  206  y   7.9560606808  207  z   6.2981718260
   53     :   208  x   4.7734935452  209  y  -7.0063580297  210  z  -0.7722025659
   54     :   211  x   1.3621750621  212  y  -7.0070855742  213  z   6.0872821699
   55     :   214  x   8.7008263131  215  y  -6.5857919216  216  z   4.2777938161
   56     :   217  x  -8.9751143909  218  y   8.9142803275  219  z  -0.5672183040
   57     :   220  x  -6.2535421641  221  y -11.1894538902  222  z   6.9913309275
   58     :   223  x -11.3834342769  224  y -11.3377010150  225  z   2.7117702174
   59     :   226  x   0.4023056845  227  y  -9.8751909443  228  z   0.0898867129

  Max    interatomic separation is   18.9188 Angstrom (   35.7513 Bohr)
  between atoms   54 and   23, " 37   " and "  6   ".

  Min HX interatomic separation is    0.9716 Angstrom (    1.8361 Bohr)

  Min YX interatomic separation is    2.5505 Angstrom (    4.8197 Bohr)


  Bond distances (Angstrom):
  --------------------------

                  atom 1     atom 2       distance
                  ------     ------       --------
  bond distance:  H          N            1.021069
  bond distance:  H          N            1.041040
  bond distance:  H          N            0.995748
  bond distance:  H          N            1.031615
  bond distance:  H          O            0.992148
  bond distance:  H          O            1.018477
  bond distance:  H          O            1.008238
  bond distance:  H          O            1.010550
  bond distance:  H          O            0.989150
  bond distance:  H          O            0.971602
  bond distance:  H          O            1.013023
  bond distance:  H          O            1.007886


  Bond angles (degrees):
  ----------------------

                  atom 1     atom 2     atom 3         angle
                  ------     ------     ------         -----
  bond angle:     H          N          H            107.188
  bond angle:     H          N          H            109.410
  bond angle:     H          N          H            112.721
  bond angle:     H          N          H            115.686
  bond angle:     H          N          H            103.658
  bond angle:     H          N          H            108.187
  bond angle:     H          O          H            103.048
  bond angle:     H          O          H            106.003
  bond angle:     H          O          H            101.924
  bond angle:     H          O          H            103.346




 Principal moments of inertia (u*A**2) and principal axes
 --------------------------------------------------------

   IA     278.928570          0.813318   -0.168257    0.556959
   IB     471.571523          0.378648    0.879879   -0.287122
   IC     508.953087         -0.441746    0.444413    0.779332


 Rotational constants
 --------------------

               A                   B                   C

           1811.8582           1071.6911            992.9776 MHz
            0.060437            0.035748            0.033122 cm-1


@  Nuclear repulsion energy :  197.867445360576 Hartree

  Reading potential input file for polarizable embedding calculation
 
    .------------------------------------------------.
    | Information from polarizable embedding library |
    `------------------------------------------------´

      Number of classical sites:    177

      Multipole moments upto 0th order.

      Dipole-dipole polarizabilities.

      Iterative solver for induced moments will be used
      with convergence threshold: 1.0E-08
      Total charge of classical region:    0.0000
 

  Number of floating/multiple basis set orbitals :   59


                     .---------------------------------------.
                     | Starting in Integral Section (HERMIT) |
                     `---------------------------------------'



 ***************************************************************************************
 ****************** Output from **INTEGRALS input processing (HERMIT) ******************
 ***************************************************************************************



    *************************************************************************
    ****************** Output from HERMIT input processing ******************
    *************************************************************************


 Default print level:        1

 * Nuclear model: Point charge

 Calculation of one- and two-electron Hamiltonian integrals.

 The following one-electron property integrals are calculated as requested:
          - overlap integrals
          - dipole length integrals

 Center of mass  (bohr):      0.304421072511      0.448288259817     -0.276268787024
 Operator center (bohr):      0.000000000000      0.000000000000      0.000000000000
 Gauge origin    (bohr):      0.000000000000      0.000000000000      0.000000000000
 Dipole origin   (bohr):      0.000000000000      0.000000000000      0.000000000000


     ************************************************************************
     ************************** Output from HERINT **************************
     ************************************************************************



                      Nuclear contribution to dipole moments
                      --------------------------------------

                 au               Debye          C m (/(10**-30)

      x     15.00448023        38.13758224       127.21328111
      y     22.81756991        57.99647406       193.45541394
      z    -13.61826219       -34.61416763      -115.46043507


  Time used in ONEDRV     is       5.67 seconds
  Time used in OVERLAP    is       0.14 seconds
  Time used in POPOVLP    is       0.20 seconds
  Time used in QUADRUP    is       0.15 seconds
  Time used in KINENE     is       0.12 seconds

 Threshold for neglecting two-electron integrals:  1.00D-12
 HERMIT - Number of two-electron integrals written:   102615510 ( 57.4% )
 HERMIT - Megabytes written:                           1174.995

  Time used in TWOINT     is      21.51 seconds
  Total CPU  time used in HERMIT:  27.93 seconds
  Total wall time used in HERMIT:  16.84 seconds


                        .----------------------------------.
                        | End of Integral Section (HERMIT) |
                        `----------------------------------'



                   .--------------------------------------------.
                   | Starting in Wave Function Section (SIRIUS) |
                   `--------------------------------------------'

 INPUT: SIMPLE =  F
NCCEXCI for singlet:   15
 CCSD_INPUT: core-val requested
 Requested number of core orbs per sym
                     1
 Indices of requested core orbs
                     1

 *** Output from Huckel module :

     Using EWMO model:          T
     Using EHT  model:          F
     Number of Huckel orbitals each symmetry:   37

 EWMO - Energy Weighted Maximum Overlap - is a Huckel type method,
        which normally is better than Extended Huckel Theory.
 Reference: Linderberg and Ohrn, Propagators in Quantum Chemistry (Wiley, 1973)

 Huckel EWMO eigenvalues for symmetry :  1
          -20.684757     -20.684307     -20.684301     -20.684188     -15.676261
           -1.810613      -1.610149      -1.595077      -1.580492      -1.500336
           -0.832820      -0.801479      -0.775950      -0.773554      -0.760814
           -0.755893      -0.739108      -0.690751      -0.673016      -0.666928
           -0.648013      -0.613096      -0.582336      -0.581044      -0.555657
           -0.262605      -0.247434      -0.244364      -0.236639      -0.185256
           -0.184603      -0.183498      -0.176039      -0.173574      -0.144605
           -0.139775      -0.136468

 **********************************************************************
 *SIRIUS* a direct, restricted step, second order MCSCF program       *
 **********************************************************************

 
     Date and time (Linux)  : Sun Dec  9 12:19:19 2018
     Host name              : s71p21.deic.sdu.dk                      

 Title lines from ".mol" input file:
                                                                             
                                                                             

 Print level on unit LUPRI =   2 is   0
 Print level on unit LUW4  =   2 is  11

@    (Integral direct) CC calculation.

@    This is a combination run starting with
@              a restricted, closed shell Hartree-Fock calculation


 Initial molecular orbitals are obtained according to
 ".MOSTART EWMO  " input option

@    QM part is embedded in an environment :

@         Model: PE

     Wave function specification
     ============================

     For the specification of the Coupled Cluster: see later.


     Wave function environment is modeled using the
     polarizable embedding model (PE library).

@    Wave function type        --- PE-CC ---
@    Number of closed shell electrons          50
@    Number of electrons in active shells       0
@    Total charge of the molecule               1

@    Spin multiplicity and 2 M_S                1         0
@    Total number of symmetries                 1 (point group: C1 )
@    Reference state symmetry                   1 (irrep name : A  )

     Orbital specifications
     ======================
@    Abelian symmetry species          All |    1
@                                          |  A  
                                       --- |  ---
@    Occupied SCF orbitals              25 |   25
@    Secondary orbitals                169 |  169
@    Total number of orbitals          194 |  194
@    Number of basis functions         194 |  194

     Optimization information
     ========================
@    Number of configurations                 1
@    Number of orbital rotations           4225
     ------------------------------------------
@    Total number of variables             4226

     Maximum number of Fock   iterations      0
     Maximum number of DIIS   iterations     60
     Maximum number of QC-SCF iterations     60
     Threshold for SCF convergence     1.00D-07


 Changes of defaults for CC:
 ---------------------------


 -Implicit frozen core calculation
 -Excitation energies calculated
 -One-photon absorption strengths will be calculated
 -Oscillator strengths calculated
  
* Read MO coefficients from SIRIUS.RST with label "NEWORB  " and header info:  9Dec18  REORTHO 


 ***********************************************
 ***** DIIS acceleration of SCF iterations *****
 ***********************************************

 C1-DIIS algorithm; max error vectors =    8
 -----------------------------------------------------------------------------

 *** DIIS iteration number    1
 RDSUPM called. NFMAT, ISYMDM(1:NFMAT)                     1
                     1

Calculating AOSUPINT
     (Precalculated AO two-electron integrals are transformed to P-supermatrix elements.
      Threshold for discarding integrals :  1.00D-12 )
  CPU  time used in FORMSUP    is   8.98 seconds
  WALL time used in FORMSUP    is  11.73 seconds

 ITDIIS, energy, error norm, change in energy, scr.thr., difden:
@ DIIS iter.   1    -360.193912998        4.07702D+00   -3.60D+02  -20    F

 (DIIS_RED) Control Parameters C2DIIS =         F NEVC =    1


 (DIIS_RED) B matrix:

               Column   1
       1      16.62212153
    ==== End of matrix output ====

 DIIS C vector; C2DIIS = F, LAMBDA = -1.66D+01
    1.000000
* Read MO coefficients from SIRIUS.RST with label "NEWORB  " and header info:  9Dec18  DIIS   1
      Virial theorem: -V/T =      2.004061
@    MULPOP   N      -0.00; H       0.22; H       0.25; H       0.21; H       0.23; O      -0.65; O      -0.65; O      -0.64; O      -0.67; H       0.34; 
@             H       0.33; H       0.33; H       0.34; H       0.33; H       0.34; H       0.34; H       0.34; 
   1  Level shift: doubly occupied orbital energies shifted by -2.00D-01

 DIIS Fock eigenvalues in symmetry 1
      -20.82315      -20.82252      -20.81827      -20.80697      -16.48832
       -1.74756       -1.63831       -1.63208       -1.62212       -1.61185
       -1.23289       -1.21765       -1.19991       -1.00886       -1.00371
       -1.00175       -0.98095       -0.89022       -0.88125       -0.87485
       -0.86710       -0.84449       -0.83861       -0.83494       -0.82725
       -0.02546        0.01981        0.02919        0.03546        0.04786
        0.05879        0.07883        0.08648        0.09226        0.09568
        0.09760        0.10363        0.12618        0.13693        0.14894
        0.15451        0.17110        0.18472        0.19090        0.19636
        0.19984        0.20977        0.21709        0.22521        0.22867
        0.23679        0.24154        0.24537        0.24898        0.25742
        0.26965        0.28135        0.28662        0.28980        0.29686
        0.30344        0.32219        0.33983        0.35651        0.36778
        0.38027        0.42023        0.45074        0.46157        0.54594
        0.56529        0.58102        0.61061        0.63905        0.65917
        0.67457        0.67800        0.68785        0.71885        0.73976
        0.77863        0.80472        0.81591        0.86011        0.98969
        1.04824        1.11111        1.11567        1.14520        1.15116
        1.15834        1.17078        1.17531        1.18907        1.19173
        1.20029        1.21817        1.23311        1.26175        1.34425
        1.36780        1.38713        1.40291        1.41523        1.41959
        1.43525        1.45884        1.47423        1.50795        1.53780
        1.57114        1.63551        1.64303        1.67336        1.67933
        1.71728        1.71984        1.75275        1.77076        1.78234
        1.82078        1.84317        1.92467        2.02066        2.09049
        2.11567        2.14736        2.16628        2.17955        2.20168
        2.21359        2.25391        2.26122        2.27082        2.29357
        2.35239        2.56902        2.61447        2.62933        2.65426
        2.65433        2.67007        2.70372        2.73573        2.74592
        2.78832        2.79767        2.83683        2.84362        2.85582
        3.07955        3.09777        3.12612        3.15554        3.32418
        3.33620        3.35761        3.36291        3.38790        3.39572
        3.42922        3.44215        3.51645        3.52571        3.55371
        3.58079        3.94261        3.96546        3.96874        3.97724
        4.16458        4.19519        4.20943        4.24207        4.74919
        4.84932        4.89483        5.45649        5.46083        5.46759
        5.48013        5.76103        5.81601        5.84238        5.87817
        5.94363        5.97702        5.98514        6.02506       36.43540
       51.49298       51.51165       51.51627       51.52661
 Time used in FCKEIG, thr_jaco:   4.69D-01  1.19D-01  1.57D-04
 CPU and wall times used in FCKEIG, THR_FCKEIG:   4.69D-01  1.19D-01  4.08D-02
 -----------------------------------------------------------------------------

 *** DIIS iteration number    2
 RDSUPM called. NFMAT, ISYMDM(1:NFMAT)                     1
                     1

 ITDIIS, energy, error norm, change in energy, scr.thr., difden:
@ DIIS iter.   2    -361.129038304        1.18449D+00   -9.35D-01  -20    F

 (DIIS_RED) Control Parameters C2DIIS =         F NEVC =    2


 (DIIS_RED) B matrix:

               Column   1     Column   2
       1      16.62212153
       2       0.61985339     1.40301207
    ==== End of matrix output ====

 DIIS C vector; C2DIIS = F, LAMBDA = -1.37D+00
    0.046657    0.953343
* Read MO coefficients from SIRIUS.RST with label "NEWORB  " and header info:  9Dec18  DIIS   2
      Virial theorem: -V/T =      2.002951
@    MULPOP   N      -0.75; H       0.40; H       0.42; H       0.38; H       0.41; O      -0.67; O      -0.63; O      -0.58; O      -0.63; H       0.32; 
@             H       0.38; H       0.34; H       0.33; H       0.36; H       0.28; H       0.34; H       0.30; 
   2  Level shift: doubly occupied orbital energies shifted by -1.00D-01

 DIIS Fock eigenvalues in symmetry 1
      -20.79416      -20.78623      -20.76585      -20.76337      -15.63185
       -1.53346       -1.52949       -1.52694       -1.51077       -1.39480
       -0.90119       -0.89629       -0.88924       -0.87895       -0.87445
       -0.86098       -0.85771       -0.79424       -0.77531       -0.76519
       -0.76175       -0.72881       -0.71971       -0.70777       -0.70070
        0.00897        0.03295        0.04602        0.05006        0.05717
        0.06846        0.08728        0.10068        0.10301        0.10687
        0.10827        0.12278        0.15651        0.17233        0.17895
        0.19419        0.19934        0.20104        0.21602        0.22243
        0.23024        0.23695        0.24206        0.25043        0.25163
        0.26122        0.26373        0.27820        0.28190        0.29621
        0.30384        0.30646        0.31124        0.32353        0.33279
        0.33855        0.35547        0.35750        0.38763        0.39436
        0.41765        0.45174        0.46752        0.48603        0.59960
        0.63114        0.63490        0.64954        0.67344        0.68168
        0.70106        0.70761        0.71541        0.74168        0.76918
        0.85225        0.96370        0.97322        1.01561        1.13207
        1.14782        1.15085        1.16818        1.17292        1.17817
        1.18356        1.20010        1.20889        1.21822        1.22349
        1.24390        1.25211        1.27406        1.34017        1.40224
        1.41985        1.43480        1.45246        1.47221        1.47483
        1.49207        1.51282        1.53980        1.56301        1.58443
        1.64719        1.68474        1.70402        1.71660        1.73852
        1.77225        1.79023        1.82147        1.82482        1.83642
        1.88210        1.90986        2.05058        2.12725        2.15591
        2.17310        2.20588        2.21066        2.22893        2.30054
        2.30876        2.33845        2.35207        2.36305        2.38219
        2.46747        2.66719        2.69469        2.71293        2.72360
        2.76072        2.79643        2.83255        2.84784        2.87719
        2.88428        2.91174        2.93226        2.96766        3.00935
        3.24489        3.30201        3.31459        3.33658        3.36102
        3.36672        3.38680        3.40103        3.41646        3.45866
        3.51500        3.53159        3.53694        3.55728        3.57415
        3.61211        3.95272        3.97321        3.98157        3.99777
        4.17435        4.20478        4.22424        4.26212        5.14928
        5.25106        5.29656        5.44375        5.44526        5.46401
        5.47935        5.74874        5.80459        5.83928        5.88126
        5.94311        5.97567        5.99114        6.04184       37.17348
       51.42516       51.44589       51.46205       51.48470
 Time used in FCKEIG, thr_jaco:   1.88D-01  5.70D-02  4.56D-05
 CPU and wall times used in FCKEIG, THR_FCKEIG:   1.88D-01  5.70D-02  1.18D-02
 -----------------------------------------------------------------------------

 *** DIIS iteration number    3
 RDSUPM called. NFMAT, ISYMDM(1:NFMAT)                     1
                     1

 ITDIIS, energy, error norm, change in energy, scr.thr., difden:
@ DIIS iter.   3    -361.208980529        3.79481D-01   -7.99D-02  -20    F

 (DIIS_RED) Control Parameters C2DIIS =         F NEVC =    3


 (DIIS_RED) B matrix:

               Column   1     Column   2     Column   3
       1      16.62212153
       2       0.61985339     1.40301207
       3       0.84698593    -0.00116341     0.14400619
    ==== End of matrix output ====

 DIIS C vector; C2DIIS = F, LAMBDA = -9.83D-02
   -0.046145    0.091256    0.954888
* Read MO coefficients from SIRIUS.RST with label "NEWORB  " and header info:  9Dec18  DIIS   3
      Virial theorem: -V/T =      2.003608
@    MULPOP   N      -0.69; H       0.38; H       0.42; H       0.36; H       0.40; O      -0.73; O      -0.69; O      -0.63; O      -0.68; H       0.35; 
@             H       0.41; H       0.37; H       0.35; H       0.39; H       0.29; H       0.37; H       0.32; 
   3  Level shift: doubly occupied orbital energies shifted by -5.00D-02

 DIIS Fock eigenvalues in symmetry 1
      -20.70086      -20.68645      -20.67263      -20.66696      -15.78725
       -1.46557       -1.45760       -1.45543       -1.44337       -1.39346
       -0.87455       -0.86601       -0.84010       -0.82174       -0.81292
       -0.80486       -0.79461       -0.72433       -0.70500       -0.69679
       -0.69483       -0.65246       -0.64110       -0.63176       -0.62566
        0.01208        0.03473        0.04835        0.05174        0.05850
        0.07114        0.08831        0.10253        0.10481        0.10885
        0.11006        0.12580        0.15995        0.17698        0.18375
        0.19981        0.20345        0.20588        0.21970        0.22691
        0.23475        0.24226        0.24783        0.25591        0.25710
        0.26629        0.26973        0.28436        0.28671        0.30291
        0.30896        0.31149        0.31586        0.32643        0.33477
        0.34251        0.35763        0.36218        0.38889        0.39842
        0.41786        0.45528        0.47130        0.49018        0.60337
        0.63250        0.63686        0.65384        0.68458        0.69155
        0.71004        0.71576        0.72416        0.74872        0.77914
        0.85589        0.94601        0.95420        0.99908        1.14631
        1.14959        1.16272        1.18271        1.18862        1.19228
        1.19908        1.21355        1.21584        1.22644        1.23944
        1.25629        1.26956        1.28843        1.34079        1.41452
        1.43308        1.44877        1.46568        1.48609        1.48674
        1.50787        1.52460        1.55088        1.57577        1.59668
        1.65566        1.69738        1.71639        1.72839        1.75109
        1.78034        1.79980        1.83004        1.83644        1.84750
        1.89174        1.92316        2.04890        2.13065        2.17146
        2.18501        2.22009        2.22075        2.24898        2.31830
        2.32513        2.34728        2.36113        2.36344        2.38168
        2.47000        2.67753        2.70709        2.72599        2.73418
        2.76573        2.80221        2.84007        2.85691        2.88567
        2.89572        2.91771        2.93774        2.94805        2.98348
        3.24533        3.29895        3.30586        3.35389        3.38283
        3.38599        3.39897        3.41680        3.44361        3.45388
        3.51524        3.54636        3.55884        3.57021        3.59905
        3.63936        3.97708        4.00103        4.00566        4.02709
        4.20117        4.23485        4.25051        4.29384        5.07168
        5.17437        5.22155        5.47460        5.48000        5.49113
        5.51517        5.77992        5.84026        5.87057        5.91696
        5.97509        6.01197        6.02211        6.07893       36.97458
       51.46861       51.49538       51.50308       51.53344
 Time used in FCKEIG, thr_jaco:   2.96D-01  7.40D-02  1.46D-05
 CPU and wall times used in FCKEIG, THR_FCKEIG:   2.96D-01  7.40D-02  3.79D-03
 -----------------------------------------------------------------------------

 *** DIIS iteration number    4
 RDSUPM called. NFMAT, ISYMDM(1:NFMAT)                     1
                     1

 ITDIIS, energy, error norm, change in energy, scr.thr., difden:
@ DIIS iter.   4    -361.219847305        1.00250D-01   -1.09D-02  -20    F

 (DIIS_RED) Control Parameters C2DIIS =         F NEVC =    4


 (DIIS_RED) B matrix:

               Column   1     Column   2     Column   3     Column   4
       1      16.62212153
       2       0.61985339     1.40301207
       3       0.84698593    -0.00116341     0.14400619
       4       0.05668833     0.08135301     0.00664091     0.01005002
    ==== End of matrix output ====

 DIIS C vector; C2DIIS = F, LAMBDA = -5.96D-03
   -0.001051   -0.056722   -0.001731    1.059504
* Read MO coefficients from SIRIUS.RST with label "NEWORB  " and header info:  9Dec18  DIIS   4
      Virial theorem: -V/T =      2.003788
@    MULPOP   N      -0.74; H       0.40; H       0.43; H       0.37; H       0.42; O      -0.75; O      -0.70; O      -0.63; O      -0.69; H       0.35; 
@             H       0.42; H       0.37; H       0.35; H       0.39; H       0.29; H       0.37; H       0.33; 
   4  Level shift: doubly occupied orbital energies shifted by -2.50D-02

 DIIS Fock eigenvalues in symmetry 1
      -20.69082      -20.68097      -20.66383      -20.66117      -15.73313
       -1.44640       -1.43877       -1.43731       -1.42445       -1.35795
       -0.83995       -0.83277       -0.80720       -0.80139       -0.79144
       -0.78417       -0.77476       -0.70260       -0.68399       -0.67485
       -0.67302       -0.62870       -0.61835       -0.60792       -0.60182
        0.01260        0.03427        0.04812        0.05171        0.05855
        0.07117        0.08845        0.10243        0.10507        0.10908
        0.11043        0.12627        0.16098        0.17865        0.18429
        0.20086        0.20453        0.20677        0.22041        0.22760
        0.23482        0.24224        0.24789        0.25523        0.25690
        0.26626        0.26883        0.28450        0.28728        0.30263
        0.30919        0.31128        0.31599        0.32800        0.33718
        0.34365        0.35949        0.36282        0.39163        0.39916
        0.42017        0.45661        0.47194        0.49101        0.60517
        0.63550        0.63932        0.65481        0.68341        0.68972
        0.70789        0.71361        0.72176        0.74633        0.77711
        0.86004        0.95275        0.96151        1.00599        1.14668
        1.15449        1.16193        1.18154        1.18639        1.19140
        1.19762        1.21249        1.22043        1.22533        1.23811
        1.25473        1.26840        1.28579        1.34206        1.41324
        1.43212        1.44708        1.46408        1.48312        1.48502
        1.50575        1.52385        1.55144        1.57486        1.59528
        1.65815        1.69603        1.71641        1.72856        1.75096
        1.78148        1.80120        1.82988        1.83513        1.84625
        1.89057        1.92266        2.05445        2.13451        2.16781
        2.18430        2.21624        2.22140        2.24519        2.31412
        2.32177        2.34828        2.36101        2.36701        2.38599
        2.47250        2.67805        2.70509        2.72352        2.73303
        2.77140        2.80806        2.84122        2.85615        2.88556
        2.89523        2.92012        2.94111        2.95516        2.99219
        3.25023        3.30295        3.31066        3.35218        3.37953
        3.38433        3.39774        3.41393        3.43972        3.45376
        3.51648        3.54743        3.55507        3.56566        3.59440
        3.63483        3.97260        3.99520        4.00068        4.02174
        4.19677        4.22918        4.24584        4.28855        5.08739
        5.19021        5.23709        5.46712        5.47009        5.48359
        5.50579        5.77252        5.83059        5.86232        5.90785
        5.96692        6.00167        6.01324        6.06905       37.00338
       51.45387       51.47644       51.48720       51.51472
 Time used in FCKEIG, thr_jaco:   2.58D-01  6.50D-02  3.86D-06
 CPU and wall times used in FCKEIG, THR_FCKEIG:   2.58D-01  6.50D-02  1.00D-03
 -----------------------------------------------------------------------------

 *** DIIS iteration number    5
 RDSUPM called. NFMAT, ISYMDM(1:NFMAT)                     1
                     1

 ITDIIS, energy, error norm, change in energy, scr.thr., difden:
@ DIIS iter.   5    -361.221051001        3.52455D-02   -1.20D-03  -20    F

 (DIIS_RED) Control Parameters C2DIIS =         F NEVC =    5


 (DIIS_RED) B matrix:

               Column   1     Column   2     Column   3     Column   4     Column   5
       1      16.62212153
       2       0.61985339     1.40301207
       3       0.84698593    -0.00116341     0.14400619
       4       0.05668833     0.08135301     0.00664091     0.01005002
       5       0.02507170     0.00974341     0.00680058     0.00107412     0.00124224
    ==== End of matrix output ====

 DIIS C vector; C2DIIS = F, LAMBDA = -8.47D-04
    0.001406   -0.013593   -0.052645    0.120251    0.944582
* Read MO coefficients from SIRIUS.RST with label "NEWORB  " and header info:  9Dec18  DIIS   5
      Virial theorem: -V/T =      2.003333
@    MULPOP   N      -0.73; H       0.40; H       0.43; H       0.37; H       0.42; O      -0.76; O      -0.71; O      -0.65; O      -0.70; H       0.36; 
@             H       0.42; H       0.38; H       0.36; H       0.40; H       0.30; H       0.38; H       0.33; 
   5  Level shift: doubly occupied orbital energies shifted by -1.25D-02

 DIIS Fock eigenvalues in symmetry 1
      -20.67193      -20.65944      -20.64437      -20.63914      -15.71574
       -1.43180       -1.42313       -1.42176       -1.40976       -1.34359
       -0.82568       -0.81855       -0.79283       -0.78759       -0.77693
       -0.76936       -0.76094       -0.68841       -0.66922       -0.66019
       -0.65826       -0.61306       -0.60185       -0.59204       -0.58524
        0.01285        0.03425        0.04820        0.05180        0.05864
        0.07134        0.08852        0.10251        0.10524        0.10925
        0.11061        0.12656        0.16142        0.17918        0.18475
        0.20149        0.20499        0.20727        0.22080        0.22802
        0.23523        0.24266        0.24831        0.25555        0.25729
        0.26662        0.26918        0.28493        0.28771        0.30307
        0.30953        0.31154        0.31639        0.32870        0.33787
        0.34421        0.36005        0.36333        0.39252        0.39957
        0.42079        0.45713        0.47228        0.49143        0.60575
        0.63619        0.63995        0.65536        0.68413        0.69030
        0.70823        0.71390        0.72203        0.74644        0.77773
        0.86089        0.95393        0.96277        1.00726        1.14814
        1.15587        1.16356        1.18298        1.18793        1.19282
        1.19919        1.21379        1.22183        1.22725        1.23991
        1.25624        1.27051        1.28714        1.34320        1.41380
        1.43294        1.44775        1.46473        1.48324        1.48572
        1.50630        1.52478        1.55293        1.57633        1.59620
        1.65936        1.69680        1.71748        1.72945        1.75197
        1.78211        1.80184        1.83025        1.83536        1.84636
        1.89062        1.92306        2.05562        2.13567        2.16824
        2.18530        2.21661        2.22247        2.24638        2.31489
        2.32282        2.34920        2.36219        2.36833        2.38735
        2.47379        2.67838        2.70492        2.72328        2.73307
        2.77243        2.80909        2.84156        2.85617        2.88564
        2.89525        2.92054        2.94185        2.95641        2.99370
        3.25188        3.30544        3.31307        3.35456        3.38249
        3.38669        3.39997        3.41627        3.44297        3.45608
        3.51917        3.55015        3.55740        3.56860        3.59663
        3.63809        3.97478        3.99817        4.00291        4.02505
        4.19915        4.23245        4.24830        4.29216        5.09004
        5.19288        5.23978        5.47102        5.47534        5.48762
        5.51135        5.77603        5.83548        5.86623        5.91287
        5.97018        6.00629        6.01673        6.07399       37.00816
       51.46026       51.48526       51.49411       51.52408
 Time used in FCKEIG, thr_jaco:   1.72D-01  4.40D-02  1.36D-06
 CPU and wall times used in FCKEIG, THR_FCKEIG:   1.72D-01  4.40D-02  3.52D-04
 -----------------------------------------------------------------------------

 *** DIIS iteration number    6
 RDSUPM called. NFMAT, ISYMDM(1:NFMAT)                     1
                     1

 ITDIIS, energy, error norm, change in energy, scr.thr., difden:
@ DIIS iter.   6    -361.221192908        1.39380D-02   -1.42D-04  -20    F

 (DIIS_RED) Control Parameters C2DIIS =         F NEVC =    6


 (DIIS_RED) B matrix:

               Column   1     Column   2     Column   3     Column   4     Column   5     Column   6
       1      16.62212153
       2       0.61985339     1.40301207
       3       0.84698593    -0.00116341     0.14400619
       4       0.05668833     0.08135301     0.00664091     0.01005002
       5       0.02507170     0.00974341     0.00680058     0.00107412     0.00124224
       6      -0.00492273     0.00056443     0.00099189     0.00091611     0.00006181     0.00019427
    ==== End of matrix output ====

 DIIS C vector; C2DIIS = F, LAMBDA = -4.95D-05
    0.000903    0.008366   -0.009144   -0.170069    0.099839    1.070105
* Read MO coefficients from SIRIUS.RST with label "NEWORB  " and header info:  9Dec18  DIIS   6
      Virial theorem: -V/T =      2.003642
@    MULPOP   N      -0.72; H       0.40; H       0.43; H       0.37; H       0.42; O      -0.76; O      -0.71; O      -0.65; O      -0.70; H       0.36; 
@             H       0.42; H       0.38; H       0.36; H       0.40; H       0.30; H       0.38; H       0.33; 

 DIIS Fock eigenvalues in symmetry 1
      -20.66151      -20.64998      -20.63433      -20.62955      -15.70588
       -1.42000       -1.41162       -1.41029       -1.39817       -1.33196
       -0.81401       -0.80695       -0.78121       -0.77595       -0.76549
       -0.75786       -0.74950       -0.67686       -0.65805       -0.64894
       -0.64701       -0.60077       -0.58987       -0.57983       -0.57323
        0.01279        0.03415        0.04809        0.05174        0.05859
        0.07130        0.08848        0.10247        0.10519        0.10921
        0.11055        0.12648        0.16134        0.17909        0.18466
        0.20143        0.20492        0.20716        0.22064        0.22785
        0.23507        0.24250        0.24814        0.25525        0.25708
        0.26645        0.26899        0.28476        0.28748        0.30287
        0.30936        0.31130        0.31607        0.32844        0.33752
        0.34395        0.35979        0.36315        0.39212        0.39940
        0.42053        0.45691        0.47209        0.49128        0.60552
        0.63595        0.63973        0.65510        0.68375        0.68988
        0.70780        0.71350        0.72163        0.74599        0.77737
        0.86064        0.95335        0.96220        1.00670        1.14769
        1.15540        1.16303        1.18237        1.18721        1.19225
        1.19859        1.21317        1.22131        1.22679        1.23945
        1.25553        1.27000        1.28649        1.34263        1.41329
        1.43239        1.44715        1.46412        1.48259        1.48508
        1.50575        1.52418        1.55235        1.57573        1.59558
        1.65888        1.69627        1.71692        1.72887        1.75142
        1.78161        1.80139        1.82971        1.83479        1.84586
        1.89006        1.92262        2.05519        2.13520        2.16753
        2.18460        2.21574        2.22192        2.24562        2.31417
        2.32203        2.34846        2.36153        2.36781        2.38680
        2.47313        2.67784        2.70429        2.72263        2.73247
        2.77214        2.80874        2.84100        2.85560        2.88504
        2.89470        2.91996        2.94128        2.95577        2.99289
        3.25126        3.30440        3.31197        3.35364        3.38129
        3.38568        3.39901        3.41517        3.44178        3.45502
        3.51808        3.54908        3.55645        3.56739        3.59552
        3.63692        3.97388        3.99690        4.00180        4.02388
        4.19824        4.23116        4.24718        4.29094        5.08866
        5.19149        5.23843        5.46977        5.47360        5.48623
        5.50969        5.77479        5.83370        5.86468        5.91119
        5.96889        6.00446        6.01518        6.07229       37.00557
       51.45817       51.48228       51.49167       51.52122
 Time used in FCKEIG, thr_jaco:   1.56D-01  3.90D-02  5.36D-07
 CPU and wall times used in FCKEIG, THR_FCKEIG:   1.56D-01  3.90D-02  1.39D-04
 -----------------------------------------------------------------------------

 *** DIIS iteration number    7
 RDSUPM called. NFMAT, ISYMDM(1:NFMAT)                     1
                     1

 ITDIIS, energy, error norm, change in energy, scr.thr., difden:
@ DIIS iter.   7    -361.221216946        2.56856D-03   -2.40D-05  -20    F

 (DIIS_RED) Control Parameters C2DIIS =         F NEVC =    7


 (DIIS_RED) B matrix:

               Column   1     Column   2     Column   3     Column   4     Column   5     Column   6
       1      16.62212153
       2       0.61985339     1.40301207
       3       0.84698593    -0.00116341     0.14400619
       4       0.05668833     0.08135301     0.00664091     0.01005002
       5       0.02507170     0.00974341     0.00680058     0.00107412     0.00124224
       6      -0.00492273     0.00056443     0.00099189     0.00091611     0.00006181     0.00019427
       7       0.00030469     0.00025289    -0.00004193     0.00001790     0.00005883     0.00000418

               Column   7
       7       0.00000660
    ==== End of matrix output ====

 DIIS C vector; C2DIIS = F, LAMBDA = -1.79D-06
   -0.000306   -0.000898    0.006351    0.026311   -0.092757   -0.148933    1.210233
* Read MO coefficients from SIRIUS.RST with label "NEWORB  " and header info:  9Dec18  DIIS   7
      Virial theorem: -V/T =      2.003573
@    MULPOP   N      -0.72; H       0.40; H       0.43; H       0.37; H       0.42; O      -0.76; O      -0.72; O      -0.65; O      -0.70; H       0.36; 
@             H       0.42; H       0.38; H       0.36; H       0.40; H       0.30; H       0.38; H       0.34; 

 DIIS Fock eigenvalues in symmetry 1
      -20.66133      -20.64964      -20.63413      -20.62935      -15.70539
       -1.41991       -1.41152       -1.41017       -1.39808       -1.33173
       -0.81384       -0.80679       -0.78105       -0.77593       -0.76541
       -0.75781       -0.74949       -0.67689       -0.65803       -0.64893
       -0.64700       -0.60060       -0.58963       -0.57963       -0.57304
        0.01281        0.03415        0.04810        0.05175        0.05860
        0.07131        0.08849        0.10247        0.10521        0.10923
        0.11057        0.12651        0.16138        0.17914        0.18470
        0.20148        0.20495        0.20720        0.22067        0.22788
        0.23509        0.24253        0.24817        0.25526        0.25711
        0.26647        0.26900        0.28478        0.28751        0.30290
        0.30938        0.31132        0.31610        0.32849        0.33757
        0.34400        0.35984        0.36319        0.39220        0.39943
        0.42061        0.45695        0.47211        0.49131        0.60558
        0.63603        0.63980        0.65516        0.68379        0.68990
        0.70781        0.71351        0.72163        0.74599        0.77739
        0.86075        0.95350        0.96235        1.00685        1.14775
        1.15554        1.16312        1.18243        1.18729        1.19231
        1.19866        1.21325        1.22143        1.22689        1.23954
        1.25559        1.27009        1.28653        1.34272        1.41331
        1.43242        1.44717        1.46415        1.48255        1.48510
        1.50575        1.52422        1.55244        1.57582        1.59562
        1.65897        1.69630        1.71698        1.72893        1.75147
        1.78167        1.80145        1.82973        1.83480        1.84587
        1.89005        1.92263        2.05531        2.13531        2.16753
        2.18465        2.21573        2.22199        2.24563        2.31418
        2.32206        2.34849        2.36161        2.36792        2.38692
        2.47323        2.67786        2.70426        2.72260        2.73246
        2.77224        2.80887        2.84102        2.85560        2.88504
        2.89468        2.91999        2.94138        2.95593        2.99307
        3.25140        3.30456        3.31216        3.35374        3.38143
        3.38579        3.39913        3.41527        3.44189        3.45516
        3.51825        3.54923        3.55655        3.56753        3.59561
        3.63703        3.97395        3.99702        4.00187        4.02397
        4.19834        4.23131        4.24729        4.29105        5.08897
        5.19180        5.23873        5.46990        5.47381        5.48637
        5.50983        5.77490        5.83389        5.86481        5.91132
        5.96900        6.00465        6.01529        6.07241       37.00605
       51.45835       51.48260       51.49187       51.52141
 Time used in FCKEIG, thr_jaco:   1.99D-01  5.10D-02  9.88D-08
 CPU and wall times used in FCKEIG, THR_FCKEIG:   1.99D-01  5.10D-02  2.57D-05
 -----------------------------------------------------------------------------

 *** DIIS iteration number    8
 RDSUPM called. NFMAT, ISYMDM(1:NFMAT)                     1
                     1

 ITDIIS, energy, error norm, change in energy, scr.thr., difden:
@ DIIS iter.   8    -361.221217764        4.36222D-04   -8.18D-07  -20    F

 (DIIS_RED) Control Parameters C2DIIS =         F NEVC =    8


 (DIIS_RED) B matrix:

               Column   1     Column   2     Column   3     Column   4     Column   5     Column   6
       1      16.62212153
       2       0.61985339     1.40301207
       3       0.84698593    -0.00116341     0.14400619
       4       0.05668833     0.08135301     0.00664091     0.01005002
       5       0.02507170     0.00974341     0.00680058     0.00107412     0.00124224
       6      -0.00492273     0.00056443     0.00099189     0.00091611     0.00006181     0.00019427
       7       0.00030469     0.00025289    -0.00004193     0.00001790     0.00005883     0.00000418
       8       0.00021775    -0.00007989     0.00001276     0.00000127     0.00000107     0.00000209

               Column   7     Column   8
       7       0.00000660
       8       0.00000057     0.00000019
    ==== End of matrix output ====

 DIIS C vector; C2DIIS = F, LAMBDA = -9.56D-08
    0.000012    0.000072   -0.000891   -0.001228    0.015230   -0.002085   -0.231453    1.220343
* Read MO coefficients from SIRIUS.RST with label "NEWORB  " and header info:  9Dec18  DIIS   8
      Virial theorem: -V/T =      2.003591
@    MULPOP   N      -0.72; H       0.40; H       0.43; H       0.37; H       0.42; O      -0.76; O      -0.72; O      -0.65; O      -0.70; H       0.36; 
@             H       0.42; H       0.38; H       0.36; H       0.40; H       0.30; H       0.38; H       0.34; 

 DIIS Fock eigenvalues in symmetry 1
      -20.66134      -20.64971      -20.63416      -20.62928      -15.70543
       -1.41991       -1.41151       -1.41017       -1.39809       -1.33175
       -0.81385       -0.80681       -0.78107       -0.77593       -0.76542
       -0.75779       -0.74949       -0.67691       -0.65807       -0.64897
       -0.64702       -0.60059       -0.58964       -0.57962       -0.57301
        0.01281        0.03415        0.04810        0.05175        0.05860
        0.07131        0.08848        0.10247        0.10521        0.10923
        0.11057        0.12651        0.16138        0.17914        0.18470
        0.20148        0.20495        0.20720        0.22067        0.22788
        0.23509        0.24253        0.24817        0.25526        0.25710
        0.26647        0.26900        0.28477        0.28751        0.30290
        0.30938        0.31132        0.31609        0.32849        0.33757
        0.34399        0.35983        0.36319        0.39219        0.39942
        0.42060        0.45695        0.47211        0.49130        0.60557
        0.63602        0.63980        0.65515        0.68379        0.68990
        0.70781        0.71350        0.72163        0.74599        0.77739
        0.86074        0.95349        0.96234        1.00684        1.14775
        1.15552        1.16312        1.18243        1.18727        1.19231
        1.19866        1.21324        1.22142        1.22689        1.23953
        1.25558        1.27009        1.28652        1.34271        1.41331
        1.43242        1.44717        1.46414        1.48255        1.48509
        1.50574        1.52421        1.55243        1.57581        1.59561
        1.65896        1.69630        1.71697        1.72891        1.75146
        1.78166        1.80144        1.82972        1.83479        1.84586
        1.89005        1.92263        2.05529        2.13529        2.16752
        2.18463        2.21572        2.22198        2.24563        2.31417
        2.32204        2.34848        2.36160        2.36791        2.38691
        2.47321        2.67785        2.70426        2.72259        2.73246
        2.77222        2.80885        2.84102        2.85560        2.88504
        2.89468        2.91998        2.94136        2.95591        2.99305
        3.25138        3.30455        3.31213        3.35374        3.38140
        3.38578        3.39912        3.41526        3.44190        3.45515
        3.51823        3.54922        3.55655        3.56751        3.59560
        3.63705        3.97395        3.99699        4.00186        4.02399
        4.19834        4.23128        4.24727        4.29107        5.08893
        5.19177        5.23870        5.46989        5.47377        5.48636
        5.50986        5.77489        5.83385        5.86479        5.91135
        5.96899        6.00461        6.01528        6.07245       37.00601
       51.45834       51.48254       51.49184       51.52148
 Time used in FCKEIG, thr_jaco:   2.21D-01  7.40D-02  1.68D-08
 CPU and wall times used in FCKEIG, THR_FCKEIG:   2.21D-01  7.40D-02  4.36D-06
 -----------------------------------------------------------------------------

 *** DIIS iteration number    9
 RDSUPM called. NFMAT, ISYMDM(1:NFMAT)                     1
                     1

 ITDIIS, energy, error norm, change in energy, scr.thr., difden:
@ DIIS iter.   9    -361.221217791        1.37395D-04   -2.66D-08  -20    F

 (DIIS_RED) Control Parameters C2DIIS =         F NEVC =    8


 (DIIS_RED) B matrix:

               Column   1     Column   2     Column   3     Column   4     Column   5     Column   6
       1       0.00000002
       2       0.00000762     1.40301207
       3      -0.00000337    -0.00116341     0.14400619
       4       0.00000003     0.08135301     0.00664091     0.01005002
       5       0.00000038     0.00974341     0.00680058     0.00107412     0.00124224
       6      -0.00000007     0.00056443     0.00099189     0.00091611     0.00006181     0.00019427
       7       0.00000013     0.00025289    -0.00004193     0.00001790     0.00005883     0.00000418
       8       0.00000002    -0.00007989     0.00001276     0.00000127     0.00000107     0.00000209

               Column   7     Column   8
       7       0.00000660
       8       0.00000057     0.00000019
    ==== End of matrix output ====

 DIIS C vector; C2DIIS = F, LAMBDA = -1.27D-08
    0.882756    0.000034   -0.000223   -0.000841    0.004650    0.003545   -0.075365    0.185443
* Read MO coefficients from SIRIUS.RST with label "NEWORB  " and header info:  9Dec18  DIIS   9
      Virial theorem: -V/T =      2.003590
@    MULPOP   N      -0.72; H       0.40; H       0.43; H       0.37; H       0.42; O      -0.76; O      -0.72; O      -0.65; O      -0.70; H       0.36; 
@             H       0.42; H       0.38; H       0.36; H       0.40; H       0.30; H       0.38; H       0.34; 

 DIIS Fock eigenvalues in symmetry 1
      -20.66133      -20.64967      -20.63414      -20.62933      -15.70542
       -1.41990       -1.41151       -1.41017       -1.39808       -1.33175
       -0.81385       -0.80680       -0.78107       -0.77593       -0.76541
       -0.75780       -0.74948       -0.67691       -0.65807       -0.64896
       -0.64703       -0.60058       -0.58962       -0.57961       -0.57302
        0.01281        0.03415        0.04810        0.05175        0.05860
        0.07131        0.08848        0.10247        0.10521        0.10923
        0.11057        0.12651        0.16138        0.17914        0.18470
        0.20148        0.20495        0.20720        0.22067        0.22788
        0.23509        0.24253        0.24817        0.25526        0.25711
        0.26647        0.26900        0.28477        0.28751        0.30290
        0.30938        0.31132        0.31610        0.32849        0.33757
        0.34399        0.35983        0.36319        0.39219        0.39943
        0.42060        0.45695        0.47211        0.49130        0.60558
        0.63602        0.63980        0.65515        0.68379        0.68990
        0.70781        0.71351        0.72163        0.74599        0.77739
        0.86074        0.95349        0.96234        1.00684        1.14775
        1.15553        1.16312        1.18243        1.18728        1.19231
        1.19866        1.21324        1.22142        1.22689        1.23954
        1.25558        1.27009        1.28652        1.34272        1.41331
        1.43242        1.44717        1.46414        1.48255        1.48510
        1.50574        1.52421        1.55243        1.57582        1.59561
        1.65896        1.69630        1.71697        1.72892        1.75146
        1.78166        1.80144        1.82972        1.83479        1.84587
        1.89005        1.92263        2.05529        2.13529        2.16752
        2.18464        2.21572        2.22198        2.24563        2.31417
        2.32205        2.34848        2.36160        2.36791        2.38691
[...]
       3       0.86685307     0.36856800    -0.33574303
    ==== End of matrix output ====


 CCSD  Transition strength matrix for state nr. 13 of symmetry 1
 CCSD  excitation energy:15.09798978

 Gauge: length

               Column   1     Column   2     Column   3
       1     4.338093D-07  -3.072504D-06   1.774069D-05
       2    -3.072504D-06   2.161626D-05  -1.251383D-04
       3     1.774069D-05  -1.251383D-04   7.237002D-04
    ==== End of matrix output ====

 Principal values of diagonalized transition strength matrix:

             a.u.               
 1      -0.00000002
 2      -0.00000000
 3       0.00074577

 Principal axis of diagonalized transition strength matrix:


               Column   1     Column   2     Column   3
       1       0.22357076     0.97438848     0.02414946
       2       0.96134144    -0.21635562    -0.17033169
       3       0.16074437    -0.06129707     0.98509082
    ==== End of matrix output ====


 CCSD   oscillator strength matrix for state nr. 13 of symmetry 1
 CCSD  excitation energy:15.09798978


               Column   1     Column   2     Column   3
       1       0.00000437    -0.00003093     0.00017857
       2      -0.00003093     0.00021757    -0.00125956
       3       0.00017857    -0.00125956     0.00728428
    ==== End of matrix output ====

 Principal values of diagonalized oscillator strength matrix:

             a.u.               
 1      -0.00000023
 2      -0.00000000
 3       0.00750645

 Principal axis of diagonalized oscillator strength matrix:


               Column   1     Column   2     Column   3
       1       0.22357076     0.97438848     0.02414946
       2       0.96134144    -0.21635562    -0.17033169
       3       0.16074437    -0.06129707     0.98509082
    ==== End of matrix output ====


 CCSD  Transition strength matrix for state nr. 14 of symmetry 1
 CCSD  excitation energy:15.10573804

 Gauge: length

               Column   1     Column   2     Column   3
       1     8.213227D-06   4.992859D-05   1.964648D-05
       2     4.992859D-05   3.033327D-04   1.193104D-04
       3     1.964648D-05   1.193104D-04   4.691595D-05
    ==== End of matrix output ====

 Principal values of diagonalized transition strength matrix:

             a.u.               
 1      -0.00000002
 2      -0.00000000
 3       0.00035848

 Principal axis of diagonalized transition strength matrix:


               Column   1     Column   2     Column   3
       1      -0.58247801     0.79861890     0.15141736
       2      -0.21269153    -0.32953525     0.91987436
       3       0.78452641     0.50360139     0.36180652
    ==== End of matrix output ====


 CCSD   oscillator strength matrix for state nr. 14 of symmetry 1
 CCSD  excitation energy:15.10573804


               Column   1     Column   2     Column   3
       1       0.00008271     0.00050281     0.00019785
       2       0.00050281     0.00305471     0.00120151
       3       0.00019785     0.00120151     0.00047247
    ==== End of matrix output ====

 Principal values of diagonalized oscillator strength matrix:

             a.u.               
 1      -0.00000017
 2       0.00000000
 3       0.00361006

 Principal axis of diagonalized oscillator strength matrix:


               Column   1     Column   2     Column   3
       1      -0.58247801     0.79861890     0.15141736
       2      -0.21269153    -0.32953525     0.91987436
       3       0.78452641     0.50360139     0.36180652
    ==== End of matrix output ====


 CCSD  Transition strength matrix for state nr. 15 of symmetry 1
 CCSD  excitation energy:15.11237699

 Gauge: length

               Column   1     Column   2     Column   3
       1     4.475766D-07   5.072442D-08   2.930729D-06
       2     5.072442D-08   2.869924D-09   3.255154D-07
       3     2.930729D-06   3.255154D-07   1.917514D-05
    ==== End of matrix output ====

 Principal values of diagonalized transition strength matrix:

             a.u.               
 1      -0.00000000
 2       0.00000000
 3       0.00001963

 Principal axis of diagonalized transition strength matrix:


               Column   1     Column   2     Column   3
       1      -0.33862365     0.92871641     0.15106242
       2       0.94024105     0.34009568     0.01678390
       3       0.03578820    -0.14771851     0.98838173
    ==== End of matrix output ====


 CCSD   oscillator strength matrix for state nr. 15 of symmetry 1
 CCSD  excitation energy:15.11237699


               Column   1     Column   2     Column   3
       1     4.509298D-06   5.110444D-07   2.952685D-05
       2     5.110444D-07   2.891425D-08   3.279541D-06
       3     2.952685D-05   3.279541D-06   1.931879D-04
    ==== End of matrix output ====

 Principal values of diagonalized oscillator strength matrix:

             a.u.               
 1      -0.00000003
 2      -0.00000000
 3       0.00019776

 Principal axis of diagonalized oscillator strength matrix:


               Column   1     Column   2     Column   3
       1      -0.33862365     0.92871641     0.15106242
       2       0.94024105     0.34009568     0.01678390
       3       0.03578820    -0.14771851     0.98838173
    ==== End of matrix output ====

  Total time for    135 linear response residues:      51.25 seconds.
  

 *******************************************************************************
 *******************************************************************************
 *                                                                             *
 *                                                                             *
 *                   SUMMARY OF COUPLED CLUSTER CALCULATION                    *
 *                                                                             *
 *                                                                             *
 *******************************************************************************
 *******************************************************************************

                                                                                
                                                                                
            Total SCF   energy:                  -361.2212177922                
            Total MP2   energy:                  -362.3456995323                
            Total CCSD  energy:                  -362.3836085690                
                                                                                
                                                                                
            Total SCF   energy:                  -361.2212177922                
            Total RSTAR energy:                  -362.3836085690                
            Total CCSD  energy:                  -362.3836484990                
                                                                                
                                                                                
            Total SCF   energy:                  -361.2212177922                
            Total RSTAR energy:                  -362.3836484990                
            Total CCSD  energy:                  -362.3836502999                
                                                                                
                                                                                
            Total SCF   energy:                  -361.2212177922                
            Total RSTAR energy:                  -362.3836502999                
            Total CCSD  energy:                  -362.3836503922                
                                                                                
                                                                                
            Total SCF   energy:                  -361.2212177922                
            Total RSTAR energy:                  -362.3836503922                
            Total CCSD  energy:                  -362.3836503971                
            CCSD Total  energy:                  -362.7950191063                
            CCSD E(PE-CC)     :                    -0.4085658612                
                                                                                
                                                                                
 +=============================================================================+
 |  sym. | Exci.  |        CCSD       Excitation energies            | ||T1||  |
 |(spin, |        +------------------------------------------------------------+
 | spat) |        |     Hartree    |       eV.      |     cm-1       |    %    |
 +=============================================================================+
 | ^1A   |    1   |    14.9159576  |     405.88385  |   3273674.271  |  88.72  |
 | ^1A   |    2   |    14.9735880  |     407.45205  |   3286322.666  |  88.84  |
 | ^1A   |    3   |    14.9956580  |     408.05261  |   3291166.485  |  88.88  |
 | ^1A   |    4   |    15.0003649  |     408.18069  |   3292199.532  |  88.77  |
 | ^1A   |    5   |    15.0181302  |     408.66411  |   3296098.563  |  88.49  |
 | ^1A   |    6   |    15.0235136  |     408.81060  |   3297280.071  |  88.43  |
 | ^1A   |    7   |    15.0430901  |     409.34330  |   3301576.615  |  88.39  |
 | ^1A   |    8   |    15.0552852  |     409.67515  |   3304253.135  |  88.37  |
 | ^1A   |    9   |    15.0681651  |     410.02563  |   3307079.940  |  88.38  |
 | ^1A   |   10   |    15.0719183  |     410.12776  |   3307903.682  |  88.45  |
 | ^1A   |   11   |    15.0802999  |     410.35584  |   3309743.239  |  88.38  |
 | ^1A   |   12   |    15.0938434  |     410.72437  |   3312715.689  |  88.56  |
 | ^1A   |   13   |    15.0979898  |     410.83720  |   3313625.710  |  88.40  |
 | ^1A   |   14   |    15.1057380  |     411.04804  |   3315326.257  |  88.43  |
 | ^1A   |   15   |    15.1123770  |     411.22870  |   3316783.338  |  88.29  |
 +=============================================================================+
                                                                                
                                                                                
     Total energies in Hartree:                                                 
             1 ^1A       -347.4704956220                                        
             2 ^1A       -347.4128652939                                        
             3 ^1A       -347.3907952287                                        
             4 ^1A       -347.3860883215                                        
             5 ^1A       -347.3683230271                                        
             6 ^1A       -347.3629396794                                        
             7 ^1A       -347.3433631858                                        
             8 ^1A       -347.3311680645                                        
             9 ^1A       -347.3182881901                                        
            10 ^1A       -347.3145349476                                        
            11 ^1A       -347.3061533087                                        
            12 ^1A       -347.2926098305                                        
            13 ^1A       -347.2884634666                                        
            14 ^1A       -347.2807152047                                        
            15 ^1A       -347.2740762583                                        
                                                                                
                                                                                
 +=============================================================================+
 |  sym. | Exci.  |        CCSD       Length   Gauge Oscillator Strength       |
 |(spin, |        +------------------------------------------------------------+
 | spat) |        | Dipole Strength(a.u.) | Oscillator strength  | Direction   |
 +=============================================================================+
 | ^1A   |    1   |        0.0002749      |      0.0027340       |  (Y,Z)      |
 | ^1A   |    2   |        0.0021154      |      0.0211169       |  (Y,Z)      |
 | ^1A   |    3   |        0.0022696      |      0.0226898       |  (Y,Z)      |
 | ^1A   |    4   |        0.0015211      |      0.0152118       |  (Y,Z)      |
 | ^1A   |    5   |        0.0015506      |      0.0155246       |  (Y,Z)      |
 | ^1A   |    6   |        0.0008282      |      0.0082952       |  (Y,Z)      |
 | ^1A   |    7   |        0.0006230      |      0.0062475       |  (Y,Z)      |
 | ^1A   |    8   |        0.0001547      |      0.0015528       |  (Y,Z)      |
 | ^1A   |    9   |        0.0002125      |      0.0021347       |  (Y,Z)      |
 | ^1A   |   10   |        0.0005631      |      0.0056576       |  (Y,Z)      |
 | ^1A   |   11   |        0.0003598      |      0.0036172       |  (Y,Z)      |
 | ^1A   |   12   |        0.0007535      |      0.0075820       |  (Y,Z)      |
 | ^1A   |   13   |        0.0007458      |      0.0075062       |  (Y,Z)      |
 | ^1A   |   14   |        0.0003585      |      0.0036099       |  (Y,Z)      |
 | ^1A   |   15   |        0.0000196      |      0.0001977       |  (Y,Z)      |
 +=============================================================================+

  1 a.u. =        27.21138 eV.  
  1 a.u. =    219474.62934 cm-1.
  

 *******************************************************************************
 *******************************************************************************
 *                                                                             *
 *                                                                             *
 *                      END OF COUPLED CLUSTER CALCULATION                     *
 *                                                                             *
 *                                                                             *
 *******************************************************************************
 *******************************************************************************


 CPU and wall time for CC :  521544.821  170858.557

 
     Date and time (Linux)  : Tue Dec 11 11:49:33 2018
     Host name              : s71p21.deic.sdu.dk                      


                      .-------------------------------------.
                      | End of Coupled Cluster Section (CC) |
                      `-------------------------------------'

  Total CPU  time used in DALTON: 144 hours 58 minutes 21 seconds
  Total wall time used in DALTON:  47 hours 30 minutes 32 seconds

 
     Date and time (Linux)  : Tue Dec 11 11:49:33 2018
     Host name              : s71p21.deic.sdu.dk                      
  

 +---------------------------------------------------------+ 
 | List of selected calculated molecular properties (a.u.) | 
 +---------------------------------------------------------+ 

  Properties are read from unit number                      4

 CCSD       properties :
 #  1 1 PE-CCSD  Ground state Energy =    -362.7950191063
 #  2 1 E(PE-CC) Ground state Energy =      -0.4085658612
 #  3 1 Sy: 1 Sp: 1 Exc:  1 E_tot:   -347.4704956220 w:     14.9159576232 E_grs:   -362.3864532452
 #  4 1 Exctot   Excited state Energy =    -347.4704956220
 #  5 1 Sy: 1 Sp: 1 Exc:  2 E_tot:   -347.4128652939 w:     14.9735879513 E_grs:   -362.3864532452
 #  6 1 Exctot   Excited state Energy =    -347.4128652939
 #  7 1 Sy: 1 Sp: 1 Exc:  3 E_tot:   -347.3907952287 w:     14.9956580164 E_grs:   -362.3864532452
 #  8 1 Exctot   Excited state Energy =    -347.3907952287
 #  9 1 Sy: 1 Sp: 1 Exc:  4 E_tot:   -347.3860883215 w:     15.0003649236 E_grs:   -362.3864532452
 # 10 1 Exctot   Excited state Energy =    -347.3860883215
 # 11 1 Sy: 1 Sp: 1 Exc:  5 E_tot:   -347.3683230271 w:     15.0181302181 E_grs:   -362.3864532452
 # 12 1 Exctot   Excited state Energy =    -347.3683230271
 # 13 1 Sy: 1 Sp: 1 Exc:  6 E_tot:   -347.3629396794 w:     15.0235135658 E_grs:   -362.3864532452
 # 14 1 Exctot   Excited state Energy =    -347.3629396794
 # 15 1 Sy: 1 Sp: 1 Exc:  7 E_tot:   -347.3433631858 w:     15.0430900593 E_grs:   -362.3864532452
 # 16 1 Exctot   Excited state Energy =    -347.3433631858
 # 17 1 Sy: 1 Sp: 1 Exc:  8 E_tot:   -347.3311680645 w:     15.0552851806 E_grs:   -362.3864532452
 # 18 1 Exctot   Excited state Energy =    -347.3311680645
 # 19 1 Sy: 1 Sp: 1 Exc:  9 E_tot:   -347.3182881901 w:     15.0681650550 E_grs:   -362.3864532452
 # 20 1 Exctot   Excited state Energy =    -347.3182881901
 # 21 1 Sy: 1 Sp: 1 Exc: 10 E_tot:   -347.3145349476 w:     15.0719182975 E_grs:   -362.3864532452
 # 22 1 Exctot   Excited state Energy =    -347.3145349476
 # 23 1 Sy: 1 Sp: 1 Exc: 11 E_tot:   -347.3061533087 w:     15.0802999365 E_grs:   -362.3864532452
 # 24 1 Exctot   Excited state Energy =    -347.3061533087
 # 25 1 Sy: 1 Sp: 1 Exc: 12 E_tot:   -347.2926098305 w:     15.0938434147 E_grs:   -362.3864532452
 # 26 1 Exctot   Excited state Energy =    -347.2926098305
 # 27 1 Sy: 1 Sp: 1 Exc: 13 E_tot:   -347.2884634666 w:     15.0979897786 E_grs:   -362.3864532452
 # 28 1 Exctot   Excited state Energy =    -347.2884634666
 # 29 1 Sy: 1 Sp: 1 Exc: 14 E_tot:   -347.2807152047 w:     15.1057380404 E_grs:   -362.3864532452
 # 30 1 Exctot   Excited state Energy =    -347.2807152047
 # 31 1 Sy: 1 Sp: 1 Exc: 15 E_tot:   -347.2740762583 w:     15.1123769868 E_grs:   -362.3864532452
 # 32 1 Exctot   Excited state Energy =    -347.2740762583
 # 33 1 |<O|XDIPLEN |i(14.915958)>| =     0.00547336
 # 35 1 |<O|XDIPLEN |i(14.973588)>| =     0.00318277
 # 37 1 |<O|XDIPLEN |i(14.995658)>| =     0.04476414
 # 39 1 |<O|XDIPLEN |i(15.000365)>| =    -0.00033342
 # 41 1 |<O|XDIPLEN |i(15.018130)>| =     0.02703972
 # 43 1 |<O|XDIPLEN |i(15.023514)>| =     0.01578428
 # 45 1 |<O|XDIPLEN |i(15.043090)>| =     0.00115764
 # 47 1 |<O|XDIPLEN |i(15.055285)>| =     0.01232979
 # 49 1 |<O|XDIPLEN |i(15.068165)>| =     0.01227910
 # 51 1 |<O|XDIPLEN |i(15.071918)>| =     0.02132221
 # 53 1 |<O|XDIPLEN |i(15.080300)>| =     0.00053136
 # 55 1 |<O|XDIPLEN |i(15.093843)>| =     0.01593009
 # 57 1 |<O|XDIPLEN |i(15.097990)>| =     0.00065864
 # 59 1 |<O|XDIPLEN |i(15.105738)>| =     0.00286587
 # 61 1 |<O|XDIPLEN |i(15.112377)>| =     0.00066901
 # 63 1 |<O|YDIPLEN |i(14.915958)>| =     0.01358518
 # 65 1 |<O|YDIPLEN |i(14.973588)>| =     0.04561069
 # 67 1 |<O|YDIPLEN |i(14.995658)>| =     0.01624747
 # 69 1 |<O|YDIPLEN |i(15.000365)>| =     0.00485273
 # 71 1 |<O|YDIPLEN |i(15.018130)>| =     0.02492593
 # 73 1 |<O|YDIPLEN |i(15.023514)>| =     0.00112822
 # 75 1 |<O|YDIPLEN |i(15.043090)>| =     0.00978931
 # 77 1 |<O|YDIPLEN |i(15.055285)>| =     0.00020648
 # 79 1 |<O|YDIPLEN |i(15.068165)>| =     0.00458561
 # 81 1 |<O|YDIPLEN |i(15.071918)>| =     0.00966584
 # 83 1 |<O|YDIPLEN |i(15.080300)>| =     0.01441089
 # 85 1 |<O|YDIPLEN |i(15.093843)>| =     0.02036633
 # 87 1 |<O|YDIPLEN |i(15.097990)>| =     0.00464933
 # 89 1 |<O|YDIPLEN |i(15.105738)>| =     0.01741645
 # 91 1 |<O|YDIPLEN |i(15.112377)>| =     0.00005357
 # 93 1 |<O|ZDIPLEN |i(14.915958)>| =     0.00777365
 # 95 1 |<O|ZDIPLEN |i(14.973588)>| =     0.00499543
 # 97 1 |<O|ZDIPLEN |i(14.995658)>| =     0.00135352
 # 99 1 |<O|ZDIPLEN |i(15.000365)>| =     0.03870021
 #101 1 |<O|ZDIPLEN |i(15.018130)>| =     0.01407616
 #103 1 |<O|ZDIPLEN |i(15.023514)>| =     0.02403750
 #105 1 |<O|ZDIPLEN |i(15.043090)>| =     0.02293004
 #107 1 |<O|ZDIPLEN |i(15.055285)>| =     0.00162674
 #109 1 |<O|ZDIPLEN |i(15.068165)>| =     0.00637980
 #111 1 |<O|ZDIPLEN |i(15.071918)>| =     0.00387298
 #113 1 |<O|ZDIPLEN |i(15.080300)>| =     0.01232242
 #115 1 |<O|ZDIPLEN |i(15.093843)>| =     0.00921606
 #117 1 |<O|ZDIPLEN |i(15.097990)>| =     0.02690168
 #119 1 |<O|ZDIPLEN |i(15.105738)>| =     0.00684952
 #121 1 |<O|ZDIPLEN |i(15.112377)>| =     0.00437894

 THE_END   
