

     ************************************************************************
     *************** Dalton - An Electronic Structure Program ***************
     ************************************************************************

    This is output from DALTON release Dalton2017.alpha (2016)
         ( Web site: http://daltonprogram.org )

   ----------------------------------------------------------------------------

    NOTE:
     
    Dalton is an experimental code for the evaluation of molecular
    properties using (MC)SCF, DFT, CI, and CC wave functions.
    The authors accept no responsibility for the performance of
    the code or for the correctness of the results.
     
    The code (in whole or part) is provided under a licence and
    is not to be reproduced for further distribution without
    the written permission of the authors or their representatives.
     
    See the home page "http://daltonprogram.org" for further information.
     
    If results obtained with this code are published,
    the appropriate citations would be both of:
     
       K. Aidas, C. Angeli, K. L. Bak, V. Bakken, R. Bast,
       L. Boman, O. Christiansen, R. Cimiraglia, S. Coriani,
       P. Dahle, E. K. Dalskov, U. Ekstroem,
       T. Enevoldsen, J. J. Eriksen, P. Ettenhuber, B. Fernandez,
       L. Ferrighi, H. Fliegl, L. Frediani, K. Hald, A. Halkier,
       C. Haettig, H. Heiberg, T. Helgaker, A. C. Hennum,
       H. Hettema, E. Hjertenaes, S. Hoest, I.-M. Hoeyvik,
       M. F. Iozzi, B. Jansik, H. J. Aa. Jensen, D. Jonsson,
       P. Joergensen, J. Kauczor, S. Kirpekar,
       T. Kjaergaard, W. Klopper, S. Knecht, R. Kobayashi, H. Koch,
       J. Kongsted, A. Krapp, K. Kristensen, A. Ligabue,
       O. B. Lutnaes, J. I. Melo, K. V. Mikkelsen, R. H. Myhre,
       C. Neiss, C. B. Nielsen, P. Norman, J. Olsen,
       J. M. H. Olsen, A. Osted, M. J. Packer, F. Pawlowski,
       T. B. Pedersen, P. F. Provasi, S. Reine, Z. Rinkevicius,
       T. A. Ruden, K. Ruud, V. Rybkin, P. Salek, C. C. M. Samson,
       A. Sanchez de Meras, T. Saue, S. P. A. Sauer,
       B. Schimmelpfennig, K. Sneskov, A. H. Steindal,
       K. O. Sylvester-Hvid, P. R. Taylor, A. M. Teale,
       E. I. Tellgren, D. P. Tew, A. J. Thorvaldsen, L. Thoegersen,
       O. Vahtras, M. A. Watson, D. J. D. Wilson, M. Ziolkowski
       and H. Agren,
       "The Dalton quantum chemistry program system",
       WIREs Comput. Mol. Sci. 2014, 4:269–284 (doi: 10.1002/wcms.1172)
     
    and
     
       Dalton, a Molecular Electronic Structure Program,
       Release Dalton2017.alpha (2016), see http://daltonprogram.org
   ----------------------------------------------------------------------------

    Authors in alphabetical order (major contribution(s) in parenthesis):

  Kestutis Aidas,           Vilnius University,           Lithuania   (QM/MM)
  Celestino Angeli,         University of Ferrara,        Italy       (NEVPT2)
  Keld L. Bak,              UNI-C,                        Denmark     (AOSOPPA, non-adiabatic coupling, magnetic properties)
  Vebjoern Bakken,          University of Oslo,           Norway      (DALTON; geometry optimizer, symmetry detection)
  Radovan Bast,             UiT The Arctic U. of Norway,  Norway      (DALTON installation and execution frameworks)
  Pablo Baudin,             University of Valencia,       Spain       (Cholesky excitation energies)
  Linus Boman,              NTNU,                         Norway      (Cholesky decomposition and subsystems)
  Ove Christiansen,         Aarhus University,            Denmark     (CC module)
  Renzo Cimiraglia,         University of Ferrara,        Italy       (NEVPT2)
  Sonia Coriani,            University of Trieste,        Italy       (CC module, MCD in RESPONS)
  Janusz Cukras,            University of Trieste,        Italy       (MChD in RESPONS)
  Paal Dahle,               University of Oslo,           Norway      (Parallelization)
  Erik K. Dalskov,          UNI-C,                        Denmark     (SOPPA)
  Thomas Enevoldsen,        Univ. of Southern Denmark,    Denmark     (SOPPA)
  Janus J. Eriksen,         Aarhus University,            Denmark     (Polarizable embedding model, TDA)
  Rasmus Faber,             University of Copenhagen,     Denmark     (Vib.avg. NMR with SOPPA, parallel AO-SOPPA)
  Berta Fernandez,          U. of Santiago de Compostela, Spain       (doublet spin, ESR in RESPONS)
  Lara Ferrighi,            Aarhus University,            Denmark     (PCM Cubic response)
  Heike Fliegl,             University of Oslo,           Norway      (CCSD(R12))
  Luca Frediani,            UiT The Arctic U. of Norway,  Norway      (PCM)
  Bin Gao,                  UiT The Arctic U. of Norway,  Norway      (Gen1Int library)
  Christof Haettig,         Ruhr-University Bochum,       Germany     (CC module)
  Kasper Hald,              Aarhus University,            Denmark     (CC module)
  Asger Halkier,            Aarhus University,            Denmark     (CC module)
  Frederik Beyer Hansen,    University of Copenhagen,     Denmark     (Parallel AO-SOPPA)
  Erik D. Hedegaard,        Univ. of Southern Denmark,    Denmark     (Polarizable embedding model, QM/MM)
  Hanne Heiberg,            University of Oslo,           Norway      (geometry analysis, selected one-electron integrals)
  Trygve Helgaker,          University of Oslo,           Norway      (DALTON; ABACUS, ERI, DFT modules, London, and much more)
  Alf Christian Hennum,     University of Oslo,           Norway      (Parity violation)
  Hinne Hettema,            University of Auckland,       New Zealand (quadratic response in RESPONS; SIRIUS supersymmetry)
  Eirik Hjertenaes,         NTNU,                         Norway      (Cholesky decomposition)
  Pi A. B. Haase,           University of Copenhagen,     Denmark     (Triplet AO-SOPPA)
  Maria Francesca Iozzi,    University of Oslo,           Norway      (RPA)
  Brano Jansik              Technical Univ. of Ostrava    Czech Rep.  (DFT cubic response)
  Hans Joergen Aa. Jensen,  Univ. of Southern Denmark,    Denmark     (DALTON; SIRIUS, RESPONS, ABACUS modules, London, and much more)
  Dan Jonsson,              UiT The Arctic U. of Norway,  Norway      (cubic response in RESPONS module)
  Poul Joergensen,          Aarhus University,            Denmark     (RESPONS, ABACUS, and CC modules)
  Maciej Kaminski,          University of Warsaw,         Poland      (CPPh in RESPONS)
  Joanna Kauczor,           Linkoeping University,        Sweden      (Complex polarization propagator (CPP) module)
  Sheela Kirpekar,          Univ. of Southern Denmark,    Denmark     (Mass-velocity & Darwin integrals)
  Wim Klopper,              KIT Karlsruhe,                Germany     (R12 code in CC, SIRIUS, and ABACUS modules)
  Stefan Knecht,            ETH Zurich,                   Switzerland (Parallel CI and MCSCF)
  Rika Kobayashi,           Australian National Univ.,    Australia   (DIIS in CC, London in MCSCF)
  Henrik Koch,              NTNU,                         Norway      (CC module, Cholesky decomposition)
  Jacob Kongsted,           Univ. of Southern Denmark,    Denmark     (Polarizable embedding model, QM/MM)
  Andrea Ligabue,           University of Modena,         Italy       (CTOCD, AOSOPPA)
  Nanna H. List             Univ. of Southern Denmark,    Denmark     (Polarizable embedding model)
  Ola B. Lutnaes,           University of Oslo,           Norway      (DFT Hessian)
  Juan I. Melo,             University of Buenos Aires,   Argentina   (LRESC, Relativistic Effects on NMR Shieldings)
  Kurt V. Mikkelsen,        University of Copenhagen,     Denmark     (MC-SCRF and QM/MM)
  Rolf H. Myhre,            NTNU,                         Norway      (Cholesky, subsystems and ECC2)
  Christian Neiss,          Univ. Erlangen-Nuernberg,     Germany     (CCSD(R12))
  Christian B. Nielsen,     University of Copenhagen,     Denmark     (QM/MM)
  Patrick Norman,           Linkoeping University,        Sweden      (Cubic response and complex frequency response in RESPONS)
  Jeppe Olsen,              Aarhus University,            Denmark     (SIRIUS CI/density modules)
  Jogvan Magnus H. Olsen,   Univ. of Southern Denmark,    Denmark     (Polarizable embedding model, QM/MM)
  Anders Osted,             Copenhagen University,        Denmark     (QM/MM)
  Martin J. Packer,         University of Sheffield,      UK          (SOPPA)
  Filip Pawlowski,          Kazimierz Wielki University,  Poland      (CC3)
  Morten N. Pedersen,       Univ. of Southern Denmark,    Denmark     (Polarizable embedding model)
  Thomas B. Pedersen,       University of Oslo,           Norway      (Cholesky decomposition)
  Patricio F. Provasi,      University of Northeastern,   Argentina   (Analysis of coupling constants in localized orbitals)
  Zilvinas Rinkevicius,     KTH Stockholm,                Sweden      (open-shell DFT, ESR)
  Elias Rudberg,            KTH Stockholm,                Sweden      (DFT grid and basis info)
  Torgeir A. Ruden,         University of Oslo,           Norway      (Numerical derivatives in ABACUS)
  Kenneth Ruud,             UiT The Arctic U. of Norway,  Norway      (DALTON; ABACUS magnetic properties and much more)
  Pawel Salek,              KTH Stockholm,                Sweden      (DALTON; DFT code)
  Claire C. M. Samson       University of Karlsruhe       Germany     (Boys localization, r12 integrals in ERI)
  Alfredo Sanchez de Meras, University of Valencia,       Spain       (CC module, Cholesky decomposition)
  Trond Saue,               Paul Sabatier University,     France      (direct Fock matrix construction)
  Stephan P. A. Sauer,      University of Copenhagen,     Denmark     (SOPPA(CCSD), SOPPA prop., AOSOPPA, vibrational g-factors)
  Bernd Schimmelpfennig,    Forschungszentrum Karlsruhe,  Germany     (AMFI module)
  Kristian Sneskov,         Aarhus University,            Denmark     (Polarizable embedding model, QM/MM)
  Arnfinn H. Steindal,      UiT The Arctic U. of Norway,  Norway      (parallel QM/MM, Polarizable embedding model)
  Casper Steinmann,         Univ. of Southern Denmark,    Denmark     (QFIT, Polarizable embedding model)
  K. O. Sylvester-Hvid,     University of Copenhagen,     Denmark     (MC-SCRF)
  Peter R. Taylor,          VLSCI/Univ. of Melbourne,     Australia   (Symmetry handling ABACUS, integral transformation)
  Andrew M. Teale,          University of Nottingham,     England     (DFT-AC, DFT-D)
  David P. Tew,             University of Bristol,        England     (CCSD(R12))
  Olav Vahtras,             KTH Stockholm,                Sweden      (triplet response, spin-orbit, ESR, TDDFT, open-shell DFT)
  David J. Wilson,          La Trobe University,          Australia   (DFT Hessian and DFT magnetizabilities)
  Hans Agren,               KTH Stockholm,                Sweden      (SIRIUS module, RESPONS, MC-SCRF solvation model)
 --------------------------------------------------------------------------------

     Date and time (Linux)  : Sun Dec  9 12:19:02 2018
     Host name              : s71p21.deic.sdu.dk                      

 * Work memory size             :  2048000000 = 15.259 gigabytes.

 * Directories for basis set searches:
   1) /work/sdujk/reinholdt/ECP-Sonia/6-311++G**
   2) /gpfs/gss1/work/sdujk/reinholdt/Programs/dalton-private/pe-cvs/basis


Compilation information
-----------------------

 Who compiled             | reinholdt
 Host                     | fe1.deic.sdu.dk
 System                   | Linux-3.10.0-327.36.3.el7.x86_64
 CMake generator          | Unix Makefiles
 Processor                | x86_64
 64-bit integers          | ON
 MPI                      | OFF
 Fortran compiler         | /opt/sys/apps/intel/2018.05/compilers_and_librarie
                          | s_2018.3.222/linux/bin/intel64/ifort
 Fortran compiler version | ifort (IFORT) 18.0.3 20180410
 C compiler               | /opt/sys/apps/intel/2018.05/compilers_and_librarie
                          | s_2018.3.222/linux/bin/intel64/icc
 C compiler version       | icc (ICC) 18.0.3 20180410
 C++ compiler             | /opt/sys/apps/intel/2018.05/compilers_and_librarie
                          | s_2018.3.222/linux/bin/intel64/icpc
 C++ compiler version     | icpc (ICC) 18.0.3 20180410
 Static linking           | OFF
 Last Git revision        | 252a54078a0f9a1f0a59b3262fa4a57829155fe9
 Git branch               | pe/cc-cvs
 Configuration time       | 2018-12-09 12:09:40.474621


   Content of the .dal input file
 ----------------------------------

**DALTON
.RUN WAVE FUNCTIONS
.PEQM
**INTEGRALS
.DIPLEN
**WAVE FUNCTIONS
.CC
*PRINT
!To check the origin of excit
.PRINTL
   0 11
*SCF INP
.THRESH
1.0D-7
*CC INP
.CCSD
.THRLEQ
 1.0D-9
.THRENR
 1.0D-10
.FROIMP
4
0
.PRINT
 1
.MAX IT
 1200
.MAXRED
 1200
.MXLRV
1199
*PECC
*CCEXCI
.NCCEXC
 15
.CVSEPARA
1
1
*CCLRSD
.DIPOLE
**END OF DALTON INPUT


   Content of the .mol file
 ----------------------------

ATOMBASIS


Atomtypes=4 Charge=1 Nosymm Angstrom
   7.00000    1    Basis=6-311++G**
N          0.000000        0.000000        0.000000
   1.00000    4    Basis=6-311++G**
H         -0.112056        0.826728       -0.621615
H          0.861780       -0.386913       -0.433710
H         -0.830681       -0.681981        0.014581
H          0.326220        0.231556        0.925057
   8.00000    4    Basis=6-311++G**
O          0.232816        2.105672       -1.793888
O         -2.413538       -1.137317       -0.152441
O          2.309668       -0.154431        1.652299
O          2.255505       -1.317352       -1.498130
   1.00000    8    Basis=6-311++G**
H         -0.261784        2.028034       -2.700384
H          1.198413        2.216169       -2.069678
H         -2.512175       -2.113269       -0.337352
H         -3.091959       -0.666527        0.410825
H          2.707529        0.669763        1.328129
H          2.328645        0.007792        2.619872
H          2.387514       -2.270762       -1.217689
H          3.119135       -0.823974       -1.305614


       *******************************************************************
       *********** Output from DALTON general input processing ***********
       *******************************************************************

 --------------------------------------------------------------------------------
   Overall default print level:    0
   Print level for DALTON.STAT:    1

    HERMIT 1- and 2-electron integral sections will be executed
    "Old" integral transformation used (limited to max 255 basis functions)
    Wave function sections will be executed (SIRIUS module)
    Environment is modeled using polarizable embedding scheme (PE library)
 --------------------------------------------------------------------------------


   ****************************************************************************
   *************** Output of molecule and basis set information ***************
   ****************************************************************************


    The two title cards from your ".mol" input:
    ------------------------------------------------------------------------
 1:                                                                         
 2:                                                                         
    ------------------------------------------------------------------------

  Coordinates are entered in Angstrom and converted to atomic units.
          - Conversion factor : 1 bohr = 0.52917721 A

  Atomic type no.    1
  --------------------
  Nuclear charge:   7.00000
  Number of symmetry independent centers:    1
  Number of basis sets to read;    2
  The basis set is "6-311++G**" from the basis set library.
  Basis set file used for this atomic type with Z =   7 :
     "/gpfs/gss1/work/sdujk/reinholdt/Programs/dalton-private/pe-cvs/basis/6-311++G**"

  Info about the basis set file: your basis has no documentation.
  Basis set: 6-311++G**                                                                      

  Atomic type no.    2
  --------------------
  Nuclear charge:   1.00000
  Number of symmetry independent centers:    4
  Number of basis sets to read;    2
  The basis set is "6-311++G**" from the basis set library.
  Basis set file used for this atomic type with Z =   1 :
     "/gpfs/gss1/work/sdujk/reinholdt/Programs/dalton-private/pe-cvs/basis/6-311++G**"

  Info about the basis set file: your basis has no documentation.
  Basis set: 6-311++G**                                                                      

  Atomic type no.    3
  --------------------
  Nuclear charge:   8.00000
  Number of symmetry independent centers:    4
  Number of basis sets to read;    2
  The basis set is "6-311++G**" from the basis set library.
  Basis set file used for this atomic type with Z =   8 :
     "/gpfs/gss1/work/sdujk/reinholdt/Programs/dalton-private/pe-cvs/basis/6-311++G**"

  Info about the basis set file: your basis has no documentation.
  Basis set: 6-311++G**                                                                      

  Atomic type no.    4
  --------------------
  Nuclear charge:   1.00000
  Number of symmetry independent centers:    8
  Number of basis sets to read;    2
  The basis set is "6-311++G**" from the basis set library.
  Basis set file used for this atomic type with Z =   1 :
     "/gpfs/gss1/work/sdujk/reinholdt/Programs/dalton-private/pe-cvs/basis/6-311++G**"

  Info about the basis set file: your basis has no documentation.
  Basis set: 6-311++G**                                                                      


                         SYMGRP: Point group information
                         -------------------------------

@    Point group: C1 


                                 Isotopic Masses
                                 ---------------

                           N          14.003074
                           H           1.007825
                           H           1.007825
                           H           1.007825
                           H           1.007825
                           O          15.994915
                           O          15.994915
                           O          15.994915
                           O          15.994915
                           H           1.007825
                           H           1.007825
                           H           1.007825
                           H           1.007825
                           H           1.007825
                           H           1.007825
                           H           1.007825
                           H           1.007825

                       Total mass:    90.076634 amu
                       Natural abundance:  98.500 %

 Center-of-mass coordinates (a.u.):    0.929533   -0.189299   -0.673000


  Atoms and basis sets
  --------------------

  Number of atom types :    4
  Total number of atoms:   17

  label    atoms   charge   prim   cont     basis
  ----------------------------------------------------------------------
  N           1    7.0000    35    22      [12s6p1d|5s4p1d]                                   
  H           4    1.0000     9     7      [6s1p|4s1p]                                        
  O           4    8.0000    35    22      [12s6p1d|5s4p1d]                                   
  H           8    1.0000     9     7      [6s1p|4s1p]                                        
  ----------------------------------------------------------------------
  total:     17   51.0000   283   194
  ----------------------------------------------------------------------
  Spherical harmonic basis used.

  Threshold for neglecting AO integrals:  1.00D-12


  Cartesian Coordinates (a.u.)
  ----------------------------

  Total number of coordinates:   51
  N       :     1  x   0.0000000000    2  y   0.0000000000    3  z   0.0000000000
  H       :     4  x  -0.2117551507    5  y   1.5622894999    6  z  -1.1746821052
  H       :     7  x   1.6285281800    8  y  -0.7311596042    9  z  -0.8195931177
  H       :    10  x  -1.5697595872   11  y  -1.2887573124   12  z   0.0275540966
  H       :    13  x   0.6164664565   14  y   0.4375774226   15  z   1.7481043800
  O       :    16  x   0.4399584775   17  y   3.9791433891   18  z  -3.3899570189
  O       :    19  x  -4.5609258123   20  y  -2.1492176473   21  z  -0.2880717402
  O       :    22  x   4.3646399597   23  y  -0.2918322952   24  z   3.1223925866
  O       :    25  x   4.2622867236   26  y  -2.4894344902   27  z  -2.8310553996
  H       :    28  x  -0.4947000639   29  y   3.8324288322   30  z  -5.1029861923
  H       :    31  x   2.2646723546   32  y   4.1879524567   33  z  -3.9111245869
  H       :    34  x  -4.7473227281   35  y  -3.9934996384   36  z  -0.6375028877
  H       :    37  x  -5.8429556997   38  y  -1.2595534849   39  z   0.7763467353
  H       :    40  x   5.1164882855   41  y   1.2656686387   42  z   2.5098000687
  H       :    43  x   4.4005012923   44  y   0.0147247460   45  z   4.9508405625
  H       :    46  x   4.5117475796   47  y  -4.2911182750   48  z  -2.3010987154
  H       :    49  x   5.8943108969   50  y  -1.5570851941   51  z  -2.4672528850

  Max    interatomic separation is    6.4458 Angstrom (   12.1808 Bohr)
  between atoms   17 and   13, "H     " and "H     ".

  Min HX interatomic separation is    0.9709 Angstrom (    1.8348 Bohr)

  Min YX interatomic separation is    2.6724 Angstrom (    5.0502 Bohr)


  Bond distances (Angstrom):
  --------------------------

                  atom 1     atom 2       distance
                  ------     ------       --------
  bond distance:  H          N            1.040404
  bond distance:  H          N            1.039457
  bond distance:  H          N            1.074868
  bond distance:  H          N            1.007853
  bond distance:  H          O            1.035564
  bond distance:  H          O            1.010271
  bond distance:  H          O            0.998200
  bond distance:  H          O            0.999583
  bond distance:  H          O            0.970915
  bond distance:  H          O            0.981261
  bond distance:  H          O            1.002529
  bond distance:  H          O            1.013085


  Bond angles (degrees):
  ----------------------

                  atom 1     atom 2     atom 3         angle
                  ------     ------     ------         -----
  bond angle:     H          N          H             97.804
  bond angle:     H          N          H            115.407
  bond angle:     H          N          H            113.621
  bond angle:     H          N          H            114.218
  bond angle:     H          N          H            101.545
  bond angle:     H          N          H            112.549
  bond angle:     H          O          H            103.046
  bond angle:     H          O          H            119.855
  bond angle:     H          O          H            100.426
  bond angle:     H          O          H            107.322




 Principal moments of inertia (u*A**2) and principal axes
 --------------------------------------------------------

   IA     282.370064          0.988279    0.003964    0.152606
   IB     392.125874         -0.105994   -0.701597    0.704646
   IC     470.084327         -0.109861    0.712563    0.692954


 Rotational constants
 --------------------

               A                   B                   C

           1789.7754           1288.8183           1075.0816 MHz
            0.059700            0.042990            0.035861 cm-1


@  Nuclear repulsion energy :  203.429446796516 Hartree

  Reading potential input file for polarizable embedding calculation
 
    .------------------------------------------------.
    | Information from polarizable embedding library |
    `------------------------------------------------´

      Number of classical sites:    177

      Multipole moments upto 0th order.

      Dipole-dipole polarizabilities.

      Iterative solver for induced moments will be used
      with convergence threshold: 1.0E-08
      Total charge of classical region:    0.0000
 


                     .---------------------------------------.
                     | Starting in Integral Section (HERMIT) |
                     `---------------------------------------'



 ***************************************************************************************
 ****************** Output from **INTEGRALS input processing (HERMIT) ******************
 ***************************************************************************************



    *************************************************************************
    ****************** Output from HERMIT input processing ******************
    *************************************************************************


 Default print level:        1

 * Nuclear model: Point charge

 Calculation of one- and two-electron Hamiltonian integrals.

 The following one-electron property integrals are calculated as requested:
          - overlap integrals
          - dipole length integrals

 Center of mass  (bohr):      0.929532560839     -0.189298777579     -0.672999514538
 Operator center (bohr):      0.000000000000      0.000000000000      0.000000000000
 Gauge origin    (bohr):      0.000000000000      0.000000000000      0.000000000000
 Dipole origin   (bohr):      0.000000000000      0.000000000000      0.000000000000


     ************************************************************************
     ************************** Output from HERINT **************************
     ************************************************************************



                      Nuclear contribution to dipole moments
                      --------------------------------------

                 au               Debye          C m (/(10**-30)

      x     47.61389660       121.02244589       403.68742661
      y     -9.43126026       -23.97187095       -79.96155443
      z    -33.49512722       -85.13611595      -283.98351485


  Time used in POPOVLP    is       0.14 seconds
  Time used in QUADRUP    is       0.14 seconds
  Time used in KINENE     is       0.12 seconds

 Threshold for neglecting two-electron integrals:  1.00D-12
 HERMIT - Number of two-electron integrals written:   108603022 ( 60.7% )
 HERMIT - Megabytes written:                           1243.560

  Time used in TWOINT     is      19.52 seconds
  Total CPU  time used in HERMIT:  20.22 seconds
  Total wall time used in HERMIT:  11.24 seconds


                        .----------------------------------.
                        | End of Integral Section (HERMIT) |
                        `----------------------------------'



                   .--------------------------------------------.
                   | Starting in Wave Function Section (SIRIUS) |
                   `--------------------------------------------'

 INPUT: SIMPLE =  F
NCCEXCI for singlet:   15
 CCSD_INPUT: core-val requested
 Requested number of core orbs per sym
                     1
 Indices of requested core orbs
                     1

 *** Output from Huckel module :

     Using EWMO model:          T
     Using EHT  model:          F
     Number of Huckel orbitals each symmetry:   37

 EWMO - Energy Weighted Maximum Overlap - is a Huckel type method,
        which normally is better than Extended Huckel Theory.
 Reference: Linderberg and Ohrn, Propagators in Quantum Chemistry (Wiley, 1973)

 Huckel EWMO eigenvalues for symmetry :  1
          -20.684779     -20.684501     -20.684233     -20.684118     -15.675603
           -1.813351      -1.618700      -1.595818      -1.575744      -1.480393
           -0.831393      -0.813496      -0.793122      -0.781569      -0.768643
           -0.757463      -0.740639      -0.696764      -0.670003      -0.649121
           -0.634528      -0.610394      -0.581192      -0.562200      -0.555478
           -0.267485      -0.251157      -0.248472      -0.231626      -0.189137
           -0.183689      -0.177472      -0.176552      -0.174364      -0.151309
           -0.142151      -0.139142

 **********************************************************************
 *SIRIUS* a direct, restricted step, second order MCSCF program       *
 **********************************************************************

 
     Date and time (Linux)  : Sun Dec  9 12:19:13 2018
     Host name              : s71p21.deic.sdu.dk                      

 Title lines from ".mol" input file:
                                                                             
                                                                             

 Print level on unit LUPRI =   2 is   0
 Print level on unit LUW4  =   2 is  11

@    (Integral direct) CC calculation.

@    This is a combination run starting with
@              a restricted, closed shell Hartree-Fock calculation


 Initial molecular orbitals are obtained according to
 ".MOSTART EWMO  " input option

@    QM part is embedded in an environment :

@         Model: PE

     Wave function specification
     ============================

     For the specification of the Coupled Cluster: see later.


     Wave function environment is modeled using the
     polarizable embedding model (PE library).

@    Wave function type        --- PE-CC ---
@    Number of closed shell electrons          50
@    Number of electrons in active shells       0
@    Total charge of the molecule               1

@    Spin multiplicity and 2 M_S                1         0
@    Total number of symmetries                 1 (point group: C1 )
@    Reference state symmetry                   1 (irrep name : A  )

     Orbital specifications
     ======================
@    Abelian symmetry species          All |    1
@                                          |  A  
                                       --- |  ---
@    Occupied SCF orbitals              25 |   25
@    Secondary orbitals                169 |  169
@    Total number of orbitals          194 |  194
@    Number of basis functions         194 |  194

     Optimization information
     ========================
@    Number of configurations                 1
@    Number of orbital rotations           4225
     ------------------------------------------
@    Total number of variables             4226

     Maximum number of Fock   iterations      0
     Maximum number of DIIS   iterations     60
     Maximum number of QC-SCF iterations     60
     Threshold for SCF convergence     1.00D-07


 Changes of defaults for CC:
 ---------------------------


 -Implicit frozen core calculation
 -Excitation energies calculated
 -One-photon absorption strengths will be calculated
 -Oscillator strengths calculated
  
* Read MO coefficients from SIRIUS.RST with label "NEWORB  " and header info:  9Dec18  REORTHO 


 ***********************************************
 ***** DIIS acceleration of SCF iterations *****
 ***********************************************

 C1-DIIS algorithm; max error vectors =    8
 -----------------------------------------------------------------------------

 *** DIIS iteration number    1
 RDSUPM called. NFMAT, ISYMDM(1:NFMAT)                     1
                     1

Calculating AOSUPINT
     (Precalculated AO two-electron integrals are transformed to P-supermatrix elements.
      Threshold for discarding integrals :  1.00D-12 )
  CPU  time used in FORMSUP    is   9.53 seconds
  WALL time used in FORMSUP    is  13.11 seconds

 ITDIIS, energy, error norm, change in energy, scr.thr., difden:
@ DIIS iter.   1    -360.223453985        3.97330D+00   -3.60D+02  -20    F

 (DIIS_RED) Control Parameters C2DIIS =         F NEVC =    1


 (DIIS_RED) B matrix:

               Column   1
       1      15.78708444
    ==== End of matrix output ====

 DIIS C vector; C2DIIS = F, LAMBDA = -1.58D+01
    1.000000
* Read MO coefficients from SIRIUS.RST with label "NEWORB  " and header info:  9Dec18  DIIS   1
      Virial theorem: -V/T =      2.003888
@    MULPOP   N      -0.04; H       0.24; H       0.23; H       0.25; H       0.21; O      -0.64; O      -0.63; O      -0.66; O      -0.65; H       0.34; 
@             H       0.34; H       0.34; H       0.34; H       0.34; H       0.34; H       0.34; H       0.34; 
   1  Level shift: doubly occupied orbital energies shifted by -2.00D-01

 DIIS Fock eigenvalues in symmetry 1
      -20.86434      -20.85572      -20.83758      -20.81467      -16.46048
       -1.73879       -1.68651       -1.64650       -1.64051       -1.61023
       -1.22263       -1.21189       -1.18638       -1.05263       -1.04215
       -1.02137       -0.97709       -0.93939       -0.89682       -0.89116
       -0.88618       -0.87370       -0.86795       -0.85773       -0.83282
       -0.05617       -0.02785       -0.01873       -0.01030        0.00948
        0.01549        0.02879        0.03695        0.04624        0.04882
        0.06442        0.08166        0.09376        0.10876        0.11532
        0.12554        0.14062        0.15208        0.15559        0.16693
        0.17287        0.17847        0.18325        0.19771        0.20501
        0.21338        0.22510        0.22835        0.23151        0.24054
        0.25202        0.25424        0.26127        0.26802        0.27106
        0.28004        0.29120        0.29589        0.30853        0.32374
        0.35478        0.36938        0.40445        0.43124        0.51070
        0.52378        0.55753        0.58303        0.60196        0.61424
        0.61956        0.64277        0.65056        0.66186        0.67827
        0.74680        0.75465        0.82122        0.83014        0.98577
        1.03747        1.09977        1.09985        1.11269        1.12094
        1.14041        1.14445        1.15828        1.16609        1.17596
        1.18832        1.19615        1.22407        1.23545        1.30509
        1.35368        1.37093        1.39087        1.39420        1.39797
        1.42703        1.44478        1.47424        1.48675        1.54533
        1.56009        1.61672        1.64312        1.66908        1.71260
        1.71826        1.73778        1.74364        1.75409        1.78433
        1.81302        1.82491        1.95790        1.99191        2.03822
        2.11562        2.13653        2.14178        2.14604        2.20310
        2.24072        2.25295        2.27035        2.27963        2.29279
        2.31822        2.50975        2.55354        2.61896        2.66973
        2.67712        2.69888        2.71803        2.73167        2.74810
        2.77876        2.78918        2.82259        2.85469        2.85861
        3.01422        3.07511        3.11774        3.15271        3.30347
        3.33528        3.34784        3.35265        3.36106        3.36405
        3.39825        3.40391        3.47221        3.50408        3.51891
        3.53423        3.91987        3.95672        3.96435        4.05902
        4.06922        4.14266        4.17972        4.19432        4.65756
        4.81087        4.84998        5.40403        5.42630        5.46657
        5.48747        5.72863        5.78169        5.81360        5.82764
        5.93529        5.96791        5.98170        6.04282       36.41585
       51.48133       51.48759       51.49609       51.50916
 Time used in FCKEIG, thr_jaco:   3.78D-01  1.00D-01  1.53D-04
 CPU and wall times used in FCKEIG, THR_FCKEIG:   3.78D-01  1.00D-01  3.97D-02
 -----------------------------------------------------------------------------

 *** DIIS iteration number    2
 RDSUPM called. NFMAT, ISYMDM(1:NFMAT)                     1
                     1

 ITDIIS, energy, error norm, change in energy, scr.thr., difden:
@ DIIS iter.   2    -361.121855945        1.15108D+00   -8.98D-01  -20    F

 (DIIS_RED) Control Parameters C2DIIS =         F NEVC =    2


 (DIIS_RED) B matrix:

               Column   1     Column   2
       1      15.78708444
       2       0.85125137     1.32498074
    ==== End of matrix output ====

 DIIS C vector; C2DIIS = F, LAMBDA = -1.31D+00
    0.030743    0.969257
* Read MO coefficients from SIRIUS.RST with label "NEWORB  " and header info:  9Dec18  DIIS   2
      Virial theorem: -V/T =      2.003042
@    MULPOP   N      -0.82; H       0.44; H       0.40; H       0.44; H       0.37; O      -0.66; O      -0.69; O      -0.62; O      -0.61; H       0.39; 
@             H       0.32; H       0.37; H       0.38; H       0.32; H       0.32; H       0.29; H       0.36; 
   2  Level shift: doubly occupied orbital energies shifted by -1.00D-01

 DIIS Fock eigenvalues in symmetry 1
      -20.80399      -20.80054      -20.78415      -20.77434      -15.63615
       -1.57220       -1.54160       -1.54070       -1.51090       -1.39147
       -0.92400       -0.92375       -0.90557       -0.90041       -0.89093
       -0.86054       -0.85235       -0.82824       -0.78948       -0.76904
       -0.76054       -0.75023       -0.73569       -0.72579       -0.70465
       -0.03394       -0.02059       -0.00960        0.00140        0.01730
        0.02756        0.03750        0.04659        0.05476        0.05907
        0.07877        0.09208        0.12206        0.15015        0.15471
        0.16478        0.17014        0.17313        0.18193        0.18921
        0.20106        0.20639        0.22373        0.22738        0.23060
        0.24165        0.24301        0.25425        0.26221        0.27372
        0.27508        0.28476        0.28698        0.29204        0.30354
        0.30371        0.31437        0.34049        0.35210        0.36820
        0.38868        0.41009        0.42265        0.45367        0.57329
        0.58743        0.60743        0.62286        0.63370        0.64253
        0.65284        0.67652        0.67885        0.68726        0.70492
        0.82814        0.91746        0.97187        0.97712        1.08830
        1.12306        1.13054        1.14507        1.15418        1.15794
        1.16564        1.17738        1.18812        1.20796        1.21186
        1.22552        1.25445        1.29395        1.32970        1.37049
        1.40618        1.42324        1.44554        1.45046        1.45662
        1.48697        1.50788        1.53960        1.55018        1.61121
        1.62156        1.67257        1.69739        1.71659        1.75184
        1.76232        1.78569        1.80341        1.83095        1.85226
        1.88636        1.90928        2.06982        2.09221        2.14559
        2.17776        2.17830        2.19128        2.25122        2.27516
        2.29408        2.30241        2.32157        2.35407        2.38899
        2.45893        2.61997        2.67728        2.72395        2.75813
        2.77983        2.78803        2.80957        2.81841        2.84475
        2.86859        2.89692        2.96378        2.97826        2.99150
        3.19388        3.24750        3.29546        3.33597        3.36626
        3.37314        3.37564        3.38303        3.40584        3.42234
        3.43606        3.49986        3.52402        3.54639        3.56384
        3.57856        3.94678        3.97014        3.97807        4.08511
        4.09975        4.15632        4.19484        4.22118        5.04828
        5.19963        5.23652        5.41296        5.43453        5.46086
        5.47857        5.74341        5.77890        5.80818        5.83733
        5.93892        5.97208        6.00349        6.06457       37.12325
       51.43520       51.44657       51.45158       51.45851
 Time used in FCKEIG, thr_jaco:   3.09D-01  7.90D-02  4.43D-05
 CPU and wall times used in FCKEIG, THR_FCKEIG:   3.09D-01  7.90D-02  1.15D-02
 -----------------------------------------------------------------------------

 *** DIIS iteration number    3
 RDSUPM called. NFMAT, ISYMDM(1:NFMAT)                     1
                     1

 ITDIIS, energy, error norm, change in energy, scr.thr., difden:
@ DIIS iter.   3    -361.201262076        3.87637D-01   -7.94D-02  -20    F

 (DIIS_RED) Control Parameters C2DIIS =         F NEVC =    3


 (DIIS_RED) B matrix:

               Column   1     Column   2     Column   3
       1      15.78708444
       2       0.85125137     1.32498074
       3       0.84253464     0.00306317     0.15026220
    ==== End of matrix output ====

 DIIS C vector; C2DIIS = F, LAMBDA = -1.00D-01
   -0.049727    0.105473    0.944254
* Read MO coefficients from SIRIUS.RST with label "NEWORB  " and header info:  9Dec18  DIIS   3
      Virial theorem: -V/T =      2.003921
@    MULPOP   N      -0.77; H       0.45; H       0.39; H       0.44; H       0.35; O      -0.74; O      -0.76; O      -0.67; O      -0.67; H       0.43; 
@             H       0.35; H       0.39; H       0.42; H       0.34; H       0.35; H       0.31; H       0.40; 
   3  Level shift: doubly occupied orbital energies shifted by -5.00D-02

 DIIS Fock eigenvalues in symmetry 1
      -20.72152      -20.70336      -20.69790      -20.67301      -15.79653
       -1.50820       -1.47455       -1.47052       -1.43924       -1.39167
       -0.87999       -0.87339       -0.85825       -0.85502       -0.83358
       -0.82895       -0.78814       -0.76336       -0.71893       -0.70145
       -0.69337       -0.68036       -0.66063       -0.65584       -0.62815
       -0.03114       -0.02000       -0.00839        0.00306        0.01791
        0.02860        0.03863        0.04783        0.05640        0.06026
        0.08068        0.09447        0.12719        0.15470        0.15653
        0.16885        0.17456        0.17778        0.18787        0.19450
        0.20542        0.21040        0.22799        0.23064        0.23670
        0.24591        0.24823        0.25992        0.26590        0.27867
        0.28048        0.28812        0.29208        0.29760        0.30674
        0.30944        0.31957        0.34271        0.35249        0.36755
        0.39070        0.40856        0.42692        0.45806        0.57439
        0.58736        0.61526        0.62788        0.64156        0.65032
        0.66055        0.68436        0.68847        0.69541        0.71439
        0.83029        0.89656        0.95401        0.95968        1.09507
        1.13427        1.14269        1.15893        1.16458        1.16956
        1.18174        1.18984        1.20414        1.21627        1.22360
        1.24098        1.27161        1.29617        1.32825        1.37737
        1.41609        1.43573        1.45734        1.46426        1.46754
        1.49848        1.51867        1.55138        1.55782        1.62232
        1.63088        1.68321        1.70617        1.72679        1.76524
        1.77435        1.79581        1.81582        1.83715        1.86275
        1.89696        1.91210        2.06940        2.09588        2.14733
        2.19394        2.19589        2.20537        2.24904        2.28839
        2.30679        2.32017        2.33460        2.36889        2.38663
        2.45259        2.62637        2.68215        2.73249        2.76877
        2.78690        2.79139        2.81650        2.82634        2.85557
        2.87251        2.90182        2.95439        2.96416        2.97817
        3.18344        3.25001        3.28604        3.35245        3.37788
        3.38863        3.40257        3.40507        3.41259        3.42273
        3.45366        3.49779        3.55144        3.56660        3.57705
        3.58924        3.96743        3.99816        4.00514        4.10906
        4.12525        4.18609        4.22547        4.24374        4.96623
        5.11891        5.15743        5.44075        5.45854        5.49336
        5.51410        5.77043        5.81161        5.84483        5.86254
        5.97581        6.00709        6.02927        6.09362       36.91937
       51.47897       51.48293       51.49449       51.50287
 Time used in FCKEIG, thr_jaco:   3.03D-01  7.50D-02  1.49D-05
 CPU and wall times used in FCKEIG, THR_FCKEIG:   3.03D-01  7.50D-02  3.88D-03
 -----------------------------------------------------------------------------

 *** DIIS iteration number    4
 RDSUPM called. NFMAT, ISYMDM(1:NFMAT)                     1
                     1

 ITDIIS, energy, error norm, change in energy, scr.thr., difden:
@ DIIS iter.   4    -361.212827265        1.04186D-01   -1.16D-02  -20    F

 (DIIS_RED) Control Parameters C2DIIS =         F NEVC =    4


 (DIIS_RED) B matrix:

               Column   1     Column   2     Column   3     Column   4
       1      15.78708444
       2       0.85125137     1.32498074
       3       0.84253464     0.00306317     0.15026220
       4       0.05939876     0.08378741     0.00681062     0.01085475
    ==== End of matrix output ====

 DIIS C vector; C2DIIS = F, LAMBDA = -6.30D-03
    0.000066   -0.062837   -0.005604    1.068375
* Read MO coefficients from SIRIUS.RST with label "NEWORB  " and header info:  9Dec18  DIIS   4
      Virial theorem: -V/T =      2.004003
@    MULPOP   N      -0.83; H       0.46; H       0.41; H       0.46; H       0.37; O      -0.75; O      -0.78; O      -0.69; O      -0.69; H       0.44; 
@             H       0.35; H       0.40; H       0.43; H       0.35; H       0.35; H       0.31; H       0.41; 
   4  Level shift: doubly occupied orbital energies shifted by -2.50D-02

 DIIS Fock eigenvalues in symmetry 1
      -20.70866      -20.69513      -20.68961      -20.66865      -15.73977
       -1.48890       -1.45496       -1.45152       -1.42099       -1.35544
       -0.84693       -0.83946       -0.83865       -0.83256       -0.81355
       -0.79422       -0.76916       -0.74143       -0.69692       -0.67887
       -0.67124       -0.65611       -0.63629       -0.63144       -0.60514
       -0.03112       -0.02035       -0.00876        0.00296        0.01753
        0.02883        0.03842        0.04800        0.05694        0.06085
        0.08089        0.09499        0.12874        0.15547        0.15849
        0.17063        0.17537        0.17891        0.18837        0.19423
        0.20557        0.21022        0.22820        0.23139        0.23656
        0.24566        0.24811        0.25925        0.26658        0.27823
        0.28104        0.28928        0.29219        0.29724        0.30785
        0.30972        0.31994        0.34463        0.35582        0.37018
        0.39233        0.41133        0.42759        0.45902        0.57731
        0.59108        0.61558        0.62786        0.64076        0.64890
        0.65949        0.68255        0.68635        0.69333        0.71174
        0.83464        0.90429        0.96142        0.96732        1.09713
        1.13423        1.14185        1.15771        1.16423        1.16885
        1.18064        1.18932        1.20236        1.21743        1.22114
        1.23903        1.26943        1.29824        1.33038        1.37648
        1.41448        1.43420        1.45741        1.46127        1.46610
        1.49758        1.51831        1.55056        1.55955        1.62304
        1.63201        1.68117        1.70741        1.72608        1.76330
        1.77293        1.79448        1.81416        1.83992        1.86146
        1.89397        1.91631        2.07471        2.10013        2.15170
        2.18956        2.19212        2.20088        2.25408        2.28571
        2.30451        2.31645        2.33201        2.36407        2.39077
        2.45937        2.62690        2.68373        2.73217        2.76754
        2.78926        2.79443        2.81667        2.82602        2.85464
        2.87442        2.90243        2.96111        2.97150        2.98423
        3.18911        3.25443        3.29182        3.35112        3.38100
        3.38624        3.39937        3.40044        3.41129        3.42016
        3.44921        3.49951        3.54699        3.56349        3.57608
        3.58620        3.96308        3.99239        4.00000        4.10414
        4.12068        4.18134        4.21948        4.23965        4.98315
        5.13589        5.17411        5.43271        5.45209        5.48483
        5.50443        5.76277        5.80349        5.83471        5.85599
        5.96486        5.99814        6.02197        6.08486       36.95073
       51.46534       51.46805       51.47837       51.48283
 Time used in FCKEIG, thr_jaco:   1.86D-01  4.80D-02  4.01D-06
 CPU and wall times used in FCKEIG, THR_FCKEIG:   1.86D-01  4.80D-02  1.04D-03
 -----------------------------------------------------------------------------

 *** DIIS iteration number    5
 RDSUPM called. NFMAT, ISYMDM(1:NFMAT)                     1
                     1

 ITDIIS, energy, error norm, change in energy, scr.thr., difden:
@ DIIS iter.   5    -361.214185141        3.62331D-02   -1.36D-03  -20    F

 (DIIS_RED) Control Parameters C2DIIS =         F NEVC =    5


 (DIIS_RED) B matrix:

               Column   1     Column   2     Column   3     Column   4     Column   5
       1      15.78708444
       2       0.85125137     1.32498074
       3       0.84253464     0.00306317     0.15026220
       4       0.05939876     0.08378741     0.00681062     0.01085475
       5       0.02454207     0.01061802     0.00713112     0.00134249     0.00131284
    ==== End of matrix output ====

 DIIS C vector; C2DIIS = F, LAMBDA = -9.07D-04
    0.001870   -0.014422   -0.054586    0.099224    0.967914
* Read MO coefficients from SIRIUS.RST with label "NEWORB  " and header info:  9Dec18  DIIS   5
      Virial theorem: -V/T =      2.003596
@    MULPOP   N      -0.82; H       0.47; H       0.41; H       0.46; H       0.36; O      -0.77; O      -0.80; O      -0.70; O      -0.70; H       0.45; 
@             H       0.36; H       0.41; H       0.43; H       0.36; H       0.36; H       0.32; H       0.41; 
   5  Level shift: doubly occupied orbital energies shifted by -1.25D-02

 DIIS Fock eigenvalues in symmetry 1
      -20.69168      -20.67447      -20.66846      -20.64582      -15.72278
       -1.47504       -1.43974       -1.43624       -1.40499       -1.34115
       -0.83307       -0.82552       -0.82465       -0.81901       -0.79930
       -0.77981       -0.75426       -0.72798       -0.68212       -0.66391
       -0.65606       -0.64118       -0.61995       -0.61524       -0.58817
       -0.03103       -0.02040       -0.00879        0.00302        0.01750
        0.02895        0.03844        0.04811        0.05714        0.06106
        0.08107        0.09523        0.12934        0.15591        0.15892
        0.17113        0.17572        0.17951        0.18889        0.19456
        0.20592        0.21053        0.22858        0.23166        0.23695
        0.24589        0.24860        0.25947        0.26701        0.27851
        0.28164        0.28975        0.29263        0.29760        0.30830
        0.31046        0.32034        0.34530        0.35676        0.37072
        0.39282        0.41203        0.42801        0.45949        0.57797
        0.59181        0.61613        0.62820        0.64130        0.64932
        0.66000        0.68287        0.68676        0.69364        0.71225
        0.83550        0.90551        0.96256        0.96861        1.09839
        1.13559        1.14294        1.15915        1.16556        1.17006
        1.18247        1.19083        1.20410        1.21892        1.22291
        1.24073        1.27157        1.29930        1.33151        1.37693
        1.41484        1.43493        1.45839        1.46153        1.46671
        1.49834        1.51944        1.55138        1.56105        1.62425
        1.63304        1.68145        1.70825        1.72667        1.76429
        1.77350        1.79500        1.81439        1.84066        1.86164
        1.89369        1.91732        2.07579        2.10112        2.15292
        2.19050        2.19285        2.20104        2.25526        2.28645
        2.30576        2.31742        2.33293        2.36439        2.39199
        2.46052        2.62714        2.68419        2.73230        2.76760
        2.78980        2.79514        2.81672        2.82595        2.85458
        2.87483        2.90255        2.96226        2.97254        2.98539
        3.19124        3.25626        3.29424        3.35368        3.38257
        3.38840        3.40212        3.40286        3.41392        3.42274
        3.45201        3.50247        3.54974        3.56677        3.57833
        3.58799        3.96454        3.99570        4.00287        4.10679
        4.12368        4.18441        4.22322        4.24123        4.98569
        5.13839        5.17668        5.43759        5.45511        5.48980
        5.51005        5.76736        5.80803        5.84018        5.85842
        5.97022        6.00238        6.02408        6.08917       36.95512
       51.47142       51.47471       51.48672       51.49292
 Time used in FCKEIG, thr_jaco:   2.38D-01  5.90D-02  1.39D-06
 CPU and wall times used in FCKEIG, THR_FCKEIG:   2.38D-01  5.90D-02  3.62D-04
 -----------------------------------------------------------------------------

 *** DIIS iteration number    6
 RDSUPM called. NFMAT, ISYMDM(1:NFMAT)                     1
                     1

 ITDIIS, energy, error norm, change in energy, scr.thr., difden:
@ DIIS iter.   6    -361.214344122        1.46167D-02   -1.59D-04  -20    F

 (DIIS_RED) Control Parameters C2DIIS =         F NEVC =    6


 (DIIS_RED) B matrix:

               Column   1     Column   2     Column   3     Column   4     Column   5     Column   6
       1      15.78708444
       2       0.85125137     1.32498074
       3       0.84253464     0.00306317     0.15026220
       4       0.05939876     0.08378741     0.00681062     0.01085475
       5       0.02454207     0.01061802     0.00713112     0.00134249     0.00131284
       6      -0.00546451     0.00058235     0.00104456     0.00097793     0.00006603     0.00021365
    ==== End of matrix output ====

 DIIS C vector; C2DIIS = F, LAMBDA = -5.23D-05
    0.000891    0.008828   -0.010560   -0.171651    0.132384    1.040108
* Read MO coefficients from SIRIUS.RST with label "NEWORB  " and header info:  9Dec18  DIIS   6
      Virial theorem: -V/T =      2.003907
@    MULPOP   N      -0.81; H       0.47; H       0.41; H       0.46; H       0.36; O      -0.77; O      -0.80; O      -0.70; O      -0.70; H       0.45; 
@             H       0.36; H       0.41; H       0.44; H       0.36; H       0.36; H       0.32; H       0.41; 

 DIIS Fock eigenvalues in symmetry 1
      -20.68077      -20.66475      -20.65916      -20.63693      -15.71294
       -1.46310       -1.42846       -1.42467       -1.39372       -1.32954
       -0.82152       -0.81388       -0.81356       -0.80733       -0.78787
       -0.76808       -0.74305       -0.71635       -0.67078       -0.65269
       -0.64491       -0.62895       -0.60797       -0.60325       -0.57637
       -0.03111       -0.02048       -0.00887        0.00294        0.01744
        0.02889        0.03838        0.04806        0.05713        0.06104
        0.08102        0.09517        0.12933        0.15574        0.15879
        0.17101        0.17558        0.17947        0.18881        0.19437
        0.20571        0.21038        0.22838        0.23156        0.23670
        0.24571        0.24839        0.25920        0.26685        0.27823
        0.28149        0.28956        0.29240        0.29726        0.30815
        0.31011        0.32015        0.34498        0.35630        0.37040
        0.39260        0.41165        0.42784        0.45934        0.57774
        0.59156        0.61574        0.62787        0.64093        0.64888
        0.65957        0.68241        0.68632        0.69319        0.71175
        0.83521        0.90495        0.96196        0.96800        1.09799
        1.13486        1.14240        1.15852        1.16497        1.16949
        1.18185        1.19023        1.20342        1.21828        1.22221
        1.24010        1.27091        1.29881        1.33093        1.37633
        1.41413        1.43434        1.45782        1.46094        1.46613
        1.49766        1.51877        1.55080        1.56032        1.62368
        1.63242        1.68092        1.70767        1.72602        1.76361
        1.77284        1.79435        1.81387        1.84019        1.86108
        1.89318        1.91684        2.07528        2.10069        2.15243
        2.18959        2.19205        2.20034        2.25464        2.28549
        2.30487        2.31666        2.33208        2.36377        2.39132
        2.45990        2.62661        2.68359        2.73168        2.76684
        2.78927        2.79462        2.81604        2.82540        2.85399
        2.87433        2.90188        2.96150        2.97179        2.98493
        3.19015        3.25550        3.29312        3.35268        3.38172
        3.38741        3.40106        3.40162        3.41275        3.42145
        3.45057        3.50119        3.54864        3.56537        3.57722
        3.58705        3.96376        3.99433        4.00166        4.10534
        4.12224        4.18325        4.22175        4.24043        4.98428
        5.13696        5.17525        5.43577        5.45404        5.48814
        5.50814        5.76542        5.80636        5.83814        5.85737
        5.96812        6.00071        6.02303        6.08720       36.95251
       51.46952       51.47220       51.48361       51.48937
 Time used in FCKEIG, thr_jaco:   2.69D-01  6.70D-02  5.62D-07
 CPU and wall times used in FCKEIG, THR_FCKEIG:   2.69D-01  6.70D-02  1.46D-04
 -----------------------------------------------------------------------------

 *** DIIS iteration number    7
 RDSUPM called. NFMAT, ISYMDM(1:NFMAT)                     1
                     1

 ITDIIS, energy, error norm, change in energy, scr.thr., difden:
@ DIIS iter.   7    -361.214369491        2.57730D-03   -2.54D-05  -20    F

 (DIIS_RED) Control Parameters C2DIIS =         F NEVC =    7


 (DIIS_RED) B matrix:

               Column   1     Column   2     Column   3     Column   4     Column   5     Column   6
       1      15.78708444
       2       0.85125137     1.32498074
       3       0.84253464     0.00306317     0.15026220
       4       0.05939876     0.08378741     0.00681062     0.01085475
       5       0.02454207     0.01061802     0.00713112     0.00134249     0.00131284
       6      -0.00546451     0.00058235     0.00104456     0.00097793     0.00006603     0.00021365
       7       0.00036253     0.00021927    -0.00003756     0.00002097     0.00006007     0.00000280

               Column   7
       7       0.00000664
    ==== End of matrix output ====

 DIIS C vector; C2DIIS = F, LAMBDA = -1.91D-06
   -0.000312   -0.000721    0.006305    0.024007   -0.093816   -0.124401    1.188938
* Read MO coefficients from SIRIUS.RST with label "NEWORB  " and header info:  9Dec18  DIIS   7
      Virial theorem: -V/T =      2.003834
@    MULPOP   N      -0.81; H       0.47; H       0.41; H       0.46; H       0.36; O      -0.77; O      -0.80; O      -0.70; O      -0.71; H       0.45; 
@             H       0.36; H       0.41; H       0.44; H       0.36; H       0.36; H       0.32; H       0.42; 

 DIIS Fock eigenvalues in symmetry 1
      -20.68085      -20.66449      -20.65893      -20.63651      -15.71249
       -1.46312       -1.42835       -1.42456       -1.39356       -1.32934
       -0.82141       -0.81377       -0.81354       -0.80729       -0.78784
       -0.76794       -0.74297       -0.71644       -0.67078       -0.65265
       -0.64485       -0.62889       -0.60776       -0.60306       -0.57611
       -0.03110       -0.02048       -0.00887        0.00294        0.01743
        0.02890        0.03838        0.04806        0.05715        0.06106
        0.08103        0.09519        0.12936        0.15577        0.15883
        0.17106        0.17560        0.17951        0.18883        0.19439
        0.20574        0.21040        0.22840        0.23158        0.23672
        0.24571        0.24841        0.25920        0.26686        0.27824
        0.28153        0.28959        0.29242        0.29728        0.30817
        0.31016        0.32017        0.34502        0.35638        0.37046
        0.39264        0.41171        0.42787        0.45936        0.57780
        0.59164        0.61578        0.62790        0.64096        0.64890
        0.65960        0.68242        0.68633        0.69320        0.71176
        0.83530        0.90508        0.96210        0.96813        1.09805
        1.13494        1.14243        1.15858        1.16503        1.16954
        1.18193        1.19030        1.20350        1.21835        1.22227
        1.24016        1.27100        1.29886        1.33101        1.37634
        1.41412        1.43435        1.45786        1.46091        1.46615
        1.49770        1.51883        1.55083        1.56042        1.62375
        1.63249        1.68091        1.70773        1.72605        1.76365
        1.77285        1.79436        1.81386        1.84025        1.86107
        1.89316        1.91693        2.07539        2.10076        2.15252
        2.18961        2.19204        2.20031        2.25474        2.28550
        2.30491        2.31666        2.33210        2.36373        2.39142
        2.46003        2.62662        2.68363        2.73167        2.76682
        2.78929        2.79467        2.81605        2.82540        2.85397
        2.87439        2.90188        2.96163        2.97192        2.98503
        3.19031        3.25564        3.29329        3.35278        3.38176
        3.38749        3.40113        3.40172        3.41289        3.42155
        3.45067        3.50137        3.54874        3.56554        3.57732
        3.58710        3.96374        3.99447        4.00176        4.10544
        4.12236        4.18337        4.22193        4.24043        4.98454
        5.13723        5.17552        5.43592        5.45404        5.48831
        5.50837        5.76557        5.80651        5.83837        5.85734
        5.96834        6.00086        6.02299        6.08733       36.95294
       51.46954       51.47237       51.48383       51.48978
 Time used in FCKEIG, thr_jaco:   2.52D-01  6.30D-02  9.91D-08
 CPU and wall times used in FCKEIG, THR_FCKEIG:   2.52D-01  6.30D-02  2.58D-05
 -----------------------------------------------------------------------------

 *** DIIS iteration number    8
 RDSUPM called. NFMAT, ISYMDM(1:NFMAT)                     1
                     1

 ITDIIS, energy, error norm, change in energy, scr.thr., difden:
@ DIIS iter.   8    -361.214370300        4.83087D-04   -8.08D-07  -20    F

 (DIIS_RED) Control Parameters C2DIIS =         F NEVC =    8


 (DIIS_RED) B matrix:

               Column   1     Column   2     Column   3     Column   4     Column   5     Column   6
       1      15.78708444
       2       0.85125137     1.32498074
       3       0.84253464     0.00306317     0.15026220
       4       0.05939876     0.08378741     0.00681062     0.01085475
       5       0.02454207     0.01061802     0.00713112     0.00134249     0.00131284
       6      -0.00546451     0.00058235     0.00104456     0.00097793     0.00006603     0.00021365
       7       0.00036253     0.00021927    -0.00003756     0.00002097     0.00006007     0.00000280
       8       0.00022623    -0.00007056     0.00001455     0.00000137     0.00000108     0.00000229

               Column   7     Column   8
       7       0.00000664
       8       0.00000055     0.00000023
    ==== End of matrix output ====

 DIIS C vector; C2DIIS = F, LAMBDA = -1.58D-07
   -0.000015   -0.000054   -0.000336    0.001563    0.007026   -0.017703   -0.131075    1.140594
* Read MO coefficients from SIRIUS.RST with label "NEWORB  " and header info:  9Dec18  DIIS   8
      Virial theorem: -V/T =      2.003850
@    MULPOP   N      -0.81; H       0.47; H       0.41; H       0.46; H       0.36; O      -0.77; O      -0.80; O      -0.70; O      -0.71; H       0.45; 
@             H       0.36; H       0.41; H       0.44; H       0.36; H       0.36; H       0.32; H       0.42; 

 DIIS Fock eigenvalues in symmetry 1
      -20.68069      -20.66452      -20.65890      -20.63661      -15.71253
       -1.46306       -1.42834       -1.42457       -1.39359       -1.32936
       -0.82141       -0.81378       -0.81353       -0.80727       -0.78784
       -0.76796       -0.74300       -0.71641       -0.67081       -0.65267
       -0.64489       -0.62884       -0.60775       -0.60305       -0.57613
       -0.03110       -0.02048       -0.00887        0.00294        0.01744
        0.02890        0.03838        0.04806        0.05715        0.06105
        0.08103        0.09519        0.12936        0.15577        0.15883
        0.17105        0.17560        0.17951        0.18883        0.19439
        0.20574        0.21040        0.22840        0.23158        0.23672
        0.24571        0.24841        0.25921        0.26686        0.27824
        0.28153        0.28958        0.29242        0.29728        0.30817
        0.31015        0.32017        0.34501        0.35636        0.37046
        0.39264        0.41170        0.42786        0.45936        0.57780
        0.59163        0.61578        0.62790        0.64096        0.64890
        0.65960        0.68243        0.68633        0.69321        0.71175
        0.83529        0.90507        0.96208        0.96812        1.09806
        1.13494        1.14244        1.15858        1.16503        1.16955
        1.18192        1.19029        1.20350        1.21834        1.22227
        1.24015        1.27098        1.29886        1.33101        1.37635
        1.41412        1.43434        1.45786        1.46092        1.46615
        1.49769        1.51882        1.55083        1.56041        1.62374
        1.63248        1.68092        1.70772        1.72605        1.76364
        1.77285        1.79436        1.81386        1.84024        1.86107
        1.89317        1.91691        2.07537        2.10075        2.15251
        2.18959        2.19204        2.20033        2.25473        2.28550
        2.30490        2.31665        2.33210        2.36375        2.39140
        2.46001        2.62662        2.68361        2.73166        2.76682
        2.78929        2.79466        2.81604        2.82539        2.85397
        2.87438        2.90187        2.96161        2.97190        2.98501
        3.19030        3.25561        3.29327        3.35278        3.38179
        3.38750        3.40114        3.40172        3.41287        3.42155
        3.45067        3.50134        3.54874        3.56551        3.57733
        3.58713        3.96379        3.99444        4.00175        4.10544
        4.12236        4.18336        4.22189        4.24049        4.98451
        5.13720        5.17549        5.43593        5.45411        5.48829
        5.50833        5.76557        5.80650        5.83832        5.85742
        5.96829        6.00084        6.02308        6.08734       36.95291
       51.46965       51.47239       51.48386       51.48968
 Time used in FCKEIG, thr_jaco:   2.44D-01  6.10D-02  1.86D-08
 CPU and wall times used in FCKEIG, THR_FCKEIG:   2.45D-01  6.10D-02  4.83D-06
 -----------------------------------------------------------------------------

 *** DIIS iteration number    9
 RDSUPM called. NFMAT, ISYMDM(1:NFMAT)                     1
                     1

 ITDIIS, energy, error norm, change in energy, scr.thr., difden:
@ DIIS iter.   9    -361.214370329        2.00273D-04   -2.88D-08  -20    F

 (DIIS_RED) Control Parameters C2DIIS =         F NEVC =    8


 (DIIS_RED) B matrix:

               Column   1     Column   2     Column   3     Column   4     Column   5     Column   6
       1       0.00000004
       2      -0.00000353     1.32498074
       3      -0.00000180     0.00306317     0.15026220
       4       0.00000023     0.08378741     0.00681062     0.01085475
       5       0.00000031     0.01061802     0.00713112     0.00134249     0.00131284
       6       0.00000008     0.00058235     0.00104456     0.00097793     0.00006603     0.00021365
       7       0.00000017     0.00021927    -0.00003756     0.00002097     0.00006007     0.00000280
       8       0.00000001    -0.00007056     0.00001455     0.00000137     0.00000108     0.00000229

               Column   7     Column   8
       7       0.00000664
       8       0.00000055     0.00000023
    ==== End of matrix output ====

 DIIS C vector; C2DIIS = F, LAMBDA = -1.84D-08
    0.802491    0.000043   -0.000335   -0.000976    0.006747    0.001907   -0.104592    0.294715
* Read MO coefficients from SIRIUS.RST with label "NEWORB  " and header info:  9Dec18  DIIS   9
      Virial theorem: -V/T =      2.003850
@    MULPOP   N      -0.81; H       0.47; H       0.41; H       0.46; H       0.36; O      -0.77; O      -0.80; O      -0.70; O      -0.71; H       0.45; 
@             H       0.36; H       0.41; H       0.44; H       0.36; H       0.36; H       0.32; H       0.42; 

 DIIS Fock eigenvalues in symmetry 1
      -20.68077      -20.66451      -20.65892      -20.63656      -15.71253
       -1.46309       -1.42835       -1.42456       -1.39357       -1.32936
       -0.82142       -0.81378       -0.81353       -0.80728       -0.78784
       -0.76796       -0.74298       -0.71643       -0.67081       -0.65268
       -0.64488       -0.62886       -0.60775       -0.60305       -0.57611
       -0.03110       -0.02048       -0.00887        0.00294        0.01744
        0.02890        0.03838        0.04806        0.05715        0.06105
        0.08103        0.09519        0.12936        0.15577        0.15883
        0.17105        0.17560        0.17951        0.18883        0.19439
        0.20574        0.21040        0.22839        0.23158        0.23672
        0.24571        0.24841        0.25921        0.26686        0.27824
        0.28153        0.28958        0.29242        0.29728        0.30817
        0.31015        0.32017        0.34501        0.35636        0.37046
        0.39263        0.41170        0.42786        0.45936        0.57780
        0.59163        0.61578        0.62790        0.64096        0.64889
        0.65960        0.68243        0.68633        0.69320        0.71176
        0.83528        0.90507        0.96208        0.96811        1.09805
        1.13494        1.14244        1.15858        1.16503        1.16954
        1.18192        1.19029        1.20350        1.21834        1.22227
        1.24015        1.27099        1.29886        1.33101        1.37634
        1.41412        1.43434        1.45785        1.46091        1.46615
        1.49769        1.51882        1.55082        1.56041        1.62374
        1.63248        1.68091        1.70772        1.72605        1.76364
        1.77285        1.79436        1.81386        1.84024        1.86107
        1.89316        1.91691        2.07537        2.10075        2.15251
        2.18960        2.19204        2.20032        2.25472        2.28549
        2.30490        2.31665        2.33210        2.36374        2.39140
        2.46001        2.62662        2.68361        2.73166        2.76682
        2.78928        2.79466        2.81604        2.82539        2.85397
        2.87438        2.90187        2.96161        2.97190        2.98501
        3.19029        3.25561        3.29327        3.35278        3.38177
        3.38749        3.40114        3.40172        3.41288        3.42155
        3.45067        3.50135        3.54874        3.56552        3.57732
        3.58711        3.96376        3.99445        4.00175        4.10544
        4.12236        4.18336        4.22191        4.24046        4.98451
        5.13720        5.17549        5.43592        5.45407        5.48830
        5.50835        5.76556        5.80650        5.83834        5.85738
        5.96832        6.00085        6.02303        6.08733       36.95290
       51.46959       51.47237       51.48384       51.48973
 Time used in FCKEIG, thr_jaco:   1.54D-01  3.80D-02  7.70D-09
 CPU and wall times used in FCKEIG, THR_FCKEIG:   1.54D-01  3.80D-02  2.00D-06
 -----------------------------------------------------------------------------

 *** DIIS iteration number   10
 RDSUPM called. NFMAT, ISYMDM(1:NFMAT)                     1
                     1

 ITDIIS, energy, error norm, change in energy, scr.thr., difden:
@ DIIS iter.  10    -361.214370331        5.25489D-05   -2.74D-09  -20    F

 (DIIS_RED) Control Parameters C2DIIS =         F NEVC =    8


 (DIIS_RED) B matrix:

               Column   1     Column   2     Column   3     Column   4     Column   5     Column   6
       1       0.00000004
       2      -0.00000000     0.00000000
       3      -0.00000180    -0.00000133     0.15026220
       4       0.00000023    -0.00000013     0.00681062     0.01085475
       5       0.00000031    -0.00000004     0.00713112     0.00134249     0.00131284
       6       0.00000008    -0.00000001     0.00104456     0.00097793     0.00006603     0.00021365
       7       0.00000017     0.00000002    -0.00003756     0.00002097     0.00006007     0.00000280
       8       0.00000001     0.00000002     0.00001455     0.00000137     0.00000108     0.00000229

               Column   7     Column   8
       7       0.00000664
       8       0.00000055     0.00000023
    ==== End of matrix output ====

 DIIS C vector; C2DIIS = F, LAMBDA = -6.50D-10
    0.002766    1.125547    0.000065   -0.000081   -0.000966    0.001770    0.016523   -0.145624
* Read MO coefficients from SIRIUS.RST with label "NEWORB  " and header info:  9Dec18  DIIS  10
      Virial theorem: -V/T =      2.003850
@    MULPOP   N      -0.81; H       0.47; H       0.41; H       0.46; H       0.36; O      -0.77; O      -0.80; O      -0.70; O      -0.71; H       0.45; 
@             H       0.36; H       0.41; H       0.44; H       0.36; H       0.36; H       0.32; H       0.42; 

 DIIS Fock eigenvalues in symmetry 1
      -20.68076      -20.66451      -20.65891      -20.63657      -15.71253
       -1.46308       -1.42835       -1.42456       -1.39357       -1.32936
       -0.82141       -0.81378       -0.81353       -0.80728       -0.78784
       -0.76796       -0.74298       -0.71643       -0.67081       -0.65268
       -0.64489       -0.62886       -0.60774       -0.60305       -0.57611
       -0.03110       -0.02048       -0.00887        0.00294        0.01744
        0.02890        0.03838        0.04806        0.05715        0.06105
        0.08103        0.09519        0.12936        0.15577        0.15883
        0.17105        0.17560        0.17951        0.18883        0.19439
        0.20574        0.21040        0.22839        0.23158        0.23672
        0.24571        0.24841        0.25921        0.26686        0.27824
        0.28153        0.28958        0.29242        0.29728        0.30817
        0.31015        0.32017        0.34501        0.35636        0.37046
        0.39263        0.41170        0.42786        0.45936        0.57780
        0.59163        0.61578        0.62790        0.64096        0.64889
        0.65960        0.68243        0.68633        0.69321        0.71176
        0.83528        0.90507        0.96208        0.96812        1.09805
        1.13494        1.14244        1.15858        1.16503        1.16954
        1.18192        1.19029        1.20350        1.21834        1.22227
        1.24015        1.27099        1.29886        1.33101        1.37634
        1.41412        1.43434        1.45785        1.46091        1.46615
        1.49769        1.51882        1.55082        1.56041        1.62374
        1.63248        1.68092        1.70772        1.72605        1.76364
        1.77285        1.79436        1.81386        1.84024        1.86107
        1.89316        1.91691        2.07537        2.10075        2.15251
        2.18960        2.19204        2.20032        2.25472        2.28549
        2.30490        2.31665        2.33210        2.36374        2.39140
        2.46001        2.62662        2.68361        2.73166        2.76682
        2.78928        2.79466        2.81604        2.82539        2.85397
        2.87438        2.90187        2.96161        2.97190        2.98501
        3.19029        3.25561        3.29327        3.35278        3.38177
        3.38749        3.40114        3.40172        3.41288        3.42155
        3.45067        3.50135        3.54874        3.56552        3.57732
        3.58711        3.96377        3.99445        4.00175        4.10544
        4.12236        4.18336        4.22191        4.24046        4.98451
        5.13720        5.17549        5.43593        5.45408        5.48830
        5.50834        5.76557        5.80650        5.83834        5.85738
        5.96831        6.00085        6.02304        6.08734       36.95291
       51.46960       51.47237       51.48385       51.48972
 Time used in FCKEIG, thr_jaco:   1.77D-01  4.40D-02  2.02D-09
 CPU and wall times used in FCKEIG, THR_FCKEIG:   1.77D-01  4.40D-02  5.25D-07
 -----------------------------------------------------------------------------

 *** DIIS iteration number   11
 RDSUPM called. NFMAT, ISYMDM(1:NFMAT)                     1
                     1

 ITDIIS, energy, error norm, change in energy, scr.thr., difden:
@ DIIS iter.  11    -361.214370332        8.62755D-06   -3.18D-10  -20    F

 (DIIS_RED) Control Parameters C2DIIS =         F NEVC =    8


 (DIIS_RED) B matrix:

               Column   1     Column   2     Column   3     Column   4     Column   5     Column   6
       1       0.00000004
       2      -0.00000000     0.00000000
       3       0.00000000     0.00000000     0.00000000
       4       0.00000023    -0.00000013     0.00000010     0.01085475
       5       0.00000031    -0.00000004    -0.00000005     0.00134249     0.00131284
       6       0.00000008    -0.00000001     0.00000003     0.00097793     0.00006603     0.00021365
       7       0.00000017     0.00000002    -0.00000000     0.00002097     0.00006007     0.00000280
       8       0.00000001     0.00000002     0.00000000     0.00000137     0.00000108     0.00000229

               Column   7     Column   8
       7       0.00000664
       8       0.00000055     0.00000023
    ==== End of matrix output ====

 DIIS C vector; C2DIIS = F, LAMBDA = -4.32D-11
   -0.027950   -0.104447    1.125406    0.000014   -0.000034   -0.000275    0.001680    0.005607
* Read MO coefficients from SIRIUS.RST with label "NEWORB  " and header info:  9Dec18  DIIS  11
      Virial theorem: -V/T =      2.003850
@    MULPOP   N      -0.81; H       0.47; H       0.41; H       0.46; H       0.36; O      -0.77; O      -0.80; O      -0.70; O      -0.71; H       0.45; 
@             H       0.36; H       0.41; H       0.44; H       0.36; H       0.36; H       0.32; H       0.42; 

 DIIS Fock eigenvalues in symmetry 1
      -20.68076      -20.66451      -20.65892      -20.63657      -15.71253
       -1.46308       -1.42835       -1.42457       -1.39357       -1.32936
       -0.82141       -0.81378       -0.81353       -0.80728       -0.78784
       -0.76797       -0.74298       -0.71643       -0.67081       -0.65268
       -0.64489       -0.62886       -0.60774       -0.60305       -0.57611
       -0.03110       -0.02048       -0.00887        0.00294        0.01744
        0.02890        0.03838        0.04806        0.05715        0.06105
        0.08103        0.09519        0.12936        0.15577        0.15883
        0.17105        0.17560        0.17951        0.18883        0.19439
        0.20574        0.21040        0.22839        0.23158        0.23672
        0.24571        0.24841        0.25921        0.26686        0.27824
[...]
       3      -0.37752838     0.92599217    -0.00328895
    ==== End of matrix output ====


 CCSD  Transition strength matrix for state nr. 13 of symmetry 1
 CCSD  excitation energy:15.06058086

 Gauge: length

               Column   1     Column   2     Column   3
       1    -3.837674D-10  -1.312768D-07   1.256977D-07
       2    -1.312768D-07   3.431371D-05  -3.393206D-05
       3     1.256977D-07  -3.393206D-05   3.353550D-05
    ==== End of matrix output ====

 Principal values of diagonalized transition strength matrix:

             a.u.               
 1      -0.00000001
 2      -0.00000000
 3       0.00006786

 Principal axis of diagonalized transition strength matrix:


               Column   1     Column   2     Column   3
       1       0.28719169     0.95786939    -0.00267798
       2       0.67397087    -0.20008406     0.71114671
       3       0.68064984    -0.20604031    -0.70303854
    ==== End of matrix output ====


 CCSD   oscillator strength matrix for state nr. 13 of symmetry 1
 CCSD  excitation energy:15.06058086


               Column   1     Column   2     Column   3
       1    -3.853174D-09  -1.318070D-06   1.262054D-06
       2    -1.318070D-06   3.445229D-04  -3.406910D-04
       3     1.262054D-06  -3.406910D-04   3.367094D-04
    ==== End of matrix output ====

 Principal values of diagonalized oscillator strength matrix:

             a.u.               
 1      -0.00000011
 2      -0.00000000
 3       0.00068133

 Principal axis of diagonalized oscillator strength matrix:


               Column   1     Column   2     Column   3
       1       0.28719169     0.95786939    -0.00267798
       2       0.67397087    -0.20008406     0.71114671
       3       0.68064984    -0.20604031    -0.70303854
    ==== End of matrix output ====


 CCSD  Transition strength matrix for state nr. 14 of symmetry 1
 CCSD  excitation energy:15.06197546

 Gauge: length

               Column   1     Column   2     Column   3
       1     4.176609D-04   4.995382D-04   4.737428D-05
       2     4.995382D-04   5.974548D-04   5.666872D-05
       3     4.737428D-05   5.666872D-05   5.369080D-06
    ==== End of matrix output ====

 Principal values of diagonalized transition strength matrix:

             a.u.               
 1      -0.00000001
 2      -0.00000000
 3       0.00102049

 Principal axis of diagonalized transition strength matrix:


               Column   1     Column   2     Column   3
       1       0.49768229    -0.58569361     0.63974630
       2      -0.48435595     0.42419460     0.76515244
       3       0.71952182     0.69066775     0.07257005
    ==== End of matrix output ====


 CCSD   oscillator strength matrix for state nr. 14 of symmetry 1
 CCSD  excitation energy:15.06197546


               Column   1     Column   2     Column   3
       1       0.00419387     0.00501602     0.00047570
       2       0.00501602     0.00599923     0.00056903
       3       0.00047570     0.00056903     0.00005391
    ==== End of matrix output ====

 Principal values of diagonalized oscillator strength matrix:

             a.u.               
 1      -0.00000010
 2      -0.00000000
 3       0.01024711

 Principal axis of diagonalized oscillator strength matrix:


               Column   1     Column   2     Column   3
       1       0.49768229    -0.58569361     0.63974630
       2      -0.48435595     0.42419460     0.76515244
       3       0.71952182     0.69066775     0.07257005
    ==== End of matrix output ====


 CCSD  Transition strength matrix for state nr. 15 of symmetry 1
 CCSD  excitation energy:15.08529840

 Gauge: length

               Column   1     Column   2     Column   3
       1     2.512221D-06  -2.324497D-05   1.029948D-05
       2    -2.324497D-05   2.150800D-04  -9.529825D-05
       3     1.029948D-05  -9.529825D-05   4.222456D-05
    ==== End of matrix output ====

 Principal values of diagonalized transition strength matrix:

             a.u.               
 1      -0.00000000
 2      -0.00000000
 3       0.00025982

 Principal axis of diagonalized transition strength matrix:


               Column   1     Column   2     Column   3
       1      -0.11105061     0.98893809    -0.09833213
       2       0.39253558     0.13454639     0.90984234
       3       0.91300799     0.06243969    -0.40313484
    ==== End of matrix output ====


 CCSD   oscillator strength matrix for state nr. 15 of symmetry 1
 CCSD  excitation energy:15.08529840


               Column   1     Column   2     Column   3
       1       0.00002527    -0.00023377     0.00010358
       2      -0.00023377     0.00216303    -0.00095840
       3       0.00010358    -0.00095840     0.00042465
    ==== End of matrix output ====

 Principal values of diagonalized oscillator strength matrix:

             a.u.               
 1      -0.00000000
 2      -0.00000000
 3       0.00261295

 Principal axis of diagonalized oscillator strength matrix:


               Column   1     Column   2     Column   3
       1      -0.11105061     0.98893809    -0.09833213
       2       0.39253558     0.13454639     0.90984234
       3       0.91300799     0.06243969    -0.40313484
    ==== End of matrix output ====

  Total time for    135 linear response residues:      44.09 seconds.
  

 *******************************************************************************
 *******************************************************************************
 *                                                                             *
 *                                                                             *
 *                   SUMMARY OF COUPLED CLUSTER CALCULATION                    *
 *                                                                             *
 *                                                                             *
 *******************************************************************************
 *******************************************************************************

                                                                                
                                                                                
            Total SCF   energy:                  -361.2143703317                
            Total MP2   energy:                  -362.3407325817                
            Total CCSD  energy:                  -362.3775027773                
                                                                                
                                                                                
            Total SCF   energy:                  -361.2143703317                
            Total RSTAR energy:                  -362.3775027773                
            Total CCSD  energy:                  -362.3775554164                
                                                                                
                                                                                
            Total SCF   energy:                  -361.2143703317                
            Total RSTAR energy:                  -362.3775554164                
            Total CCSD  energy:                  -362.3775580395                
                                                                                
                                                                                
            Total SCF   energy:                  -361.2143703317                
            Total RSTAR energy:                  -362.3775580395                
            Total CCSD  energy:                  -362.3775581870                
                                                                                
                                                                                
            Total SCF   energy:                  -361.2143703317                
            Total RSTAR energy:                  -362.3775581870                
            Total CCSD  energy:                  -362.3775581955                
            CCSD Total  energy:                  -362.8006206141                
            CCSD E(PE-CC)     :                    -0.4190817401                
                                                                                
                                                                                
 +=============================================================================+
 |  sym. | Exci.  |        CCSD       Excitation energies            | ||T1||  |
 |(spin, |        +------------------------------------------------------------+
 | spat) |        |     Hartree    |       eV.      |     cm-1       |    %    |
 +=============================================================================+
 | ^1A   |    1   |    14.9030447  |     405.53247  |   3270840.203  |  88.48  |
 | ^1A   |    2   |    14.9492681  |     406.79028  |   3280985.071  |  88.72  |
 | ^1A   |    3   |    14.9624265  |     407.14834  |   3283873.002  |  88.39  |
 | ^1A   |    4   |    14.9802698  |     407.63388  |   3287789.170  |  88.38  |
 | ^1A   |    5   |    14.9939664  |     408.00658  |   3290795.213  |  88.26  |
 | ^1A   |    6   |    14.9988978  |     408.14077  |   3291877.543  |  88.24  |
 | ^1A   |    7   |    15.0113561  |     408.47978  |   3294611.812  |  88.38  |
 | ^1A   |    8   |    15.0157774  |     408.60009  |   3295582.184  |  88.22  |
 | ^1A   |    9   |    15.0197653  |     408.70860  |   3296457.423  |  88.20  |
 | ^1A   |   10   |    15.0298030  |     408.98175  |   3298660.453  |  88.35  |
 | ^1A   |   11   |    15.0437619  |     409.36159  |   3301724.076  |  88.14  |
 | ^1A   |   12   |    15.0482450  |     409.48358  |   3302708.001  |  88.27  |
 | ^1A   |   13   |    15.0605809  |     409.81925  |   3305415.401  |  88.15  |
 | ^1A   |   14   |    15.0619755  |     409.85720  |   3305721.482  |  88.41  |
 | ^1A   |   15   |    15.0852984  |     410.49185  |   3310840.275  |  88.26  |
 +=============================================================================+
                                                                                
                                                                                
     Total energies in Hartree:                                                 
             1 ^1A       -347.4784942117                                        
             2 ^1A       -347.4322707910                                        
             3 ^1A       -347.4191124099                                        
             4 ^1A       -347.4012690366                                        
             5 ^1A       -347.3875724960                                        
             6 ^1A       -347.3826410368                                        
             7 ^1A       -347.3701827902                                        
             8 ^1A       -347.3657614540                                        
             9 ^1A       -347.3617735677                                        
            10 ^1A       -347.3517358272                                        
            11 ^1A       -347.3377769344                                        
            12 ^1A       -347.3332938390                                        
            13 ^1A       -347.3209580160                                        
            14 ^1A       -347.3195634101                                        
            15 ^1A       -347.2962404725                                        
                                                                                
                                                                                
 +=============================================================================+
 |  sym. | Exci.  |        CCSD       Length   Gauge Oscillator Strength       |
 |(spin, |        +------------------------------------------------------------+
 | spat) |        | Dipole Strength(a.u.) | Oscillator strength  | Direction   |
 +=============================================================================+
 | ^1A   |    1   |        0.0002049      |      0.0020356       |  (Y,Z)      |
 | ^1A   |    2   |        0.0021855      |      0.0217811       |  (Y,Z)      |
 | ^1A   |    3   |        0.0011496      |      0.0114677       |  (Y,Z)      |
 | ^1A   |    4   |        0.0006991      |      0.0069813       |  (Y,Z)      |
 | ^1A   |    5   |        0.0010608      |      0.0106033       |  (Y,Z)      |
 | ^1A   |    6   |        0.0007236      |      0.0072359       |  (Y,Z)      |
 | ^1A   |    7   |        0.0013629      |      0.0136394       |  (Y,Z)      |
 | ^1A   |    8   |        0.0001499      |      0.0015004       |  (Y,Z)      |
 | ^1A   |    9   |        0.0001928      |      0.0019307       |  (Y,Z)      |
 | ^1A   |   10   |        0.0004600      |      0.0046087       |  (Y,Z)      |
 | ^1A   |   11   |        0.0001075      |      0.0010782       |  (Y,Z)      |
 | ^1A   |   12   |        0.0007702      |      0.0077266       |  (Y,Z)      |
 | ^1A   |   13   |        0.0000678      |      0.0006812       |  (Y,Z)      |
 | ^1A   |   14   |        0.0010205      |      0.0102470       |  (Y,Z)      |
 | ^1A   |   15   |        0.0002598      |      0.0026129       |  (Y,Z)      |
 +=============================================================================+

  1 a.u. =        27.21138 eV.  
  1 a.u. =    219474.62934 cm-1.
  

 *******************************************************************************
 *******************************************************************************
 *                                                                             *
 *                                                                             *
 *                      END OF COUPLED CLUSTER CALCULATION                     *
 *                                                                             *
 *                                                                             *
 *******************************************************************************
 *******************************************************************************


 CPU and wall time for CC :  514758.340  173600.788

 
     Date and time (Linux)  : Tue Dec 11 12:35:13 2018
     Host name              : s71p21.deic.sdu.dk                      


                      .-------------------------------------.
                      | End of Coupled Cluster Section (CC) |
                      `-------------------------------------'

  Total CPU  time used in DALTON: 143 hours  5 minutes 10 seconds
  Total wall time used in DALTON:  48 hours 16 minutes 11 seconds

 
     Date and time (Linux)  : Tue Dec 11 12:35:13 2018
     Host name              : s71p21.deic.sdu.dk                      
  

 +---------------------------------------------------------+ 
 | List of selected calculated molecular properties (a.u.) | 
 +---------------------------------------------------------+ 

  Properties are read from unit number                      4

 CCSD       properties :
 #  1 1 PE-CCSD  Ground state Energy =    -362.8006206141
 #  2 1 E(PE-CC) Ground state Energy =      -0.4190817401
 #  3 1 Sy: 1 Sp: 1 Exc:  1 E_tot:   -347.4784942117 w:     14.9030446623 E_grs:   -362.3815388740
 #  4 1 Exctot   Excited state Energy =    -347.4784942117
 #  5 1 Sy: 1 Sp: 1 Exc:  2 E_tot:   -347.4322707910 w:     14.9492680830 E_grs:   -362.3815388740
 #  6 1 Exctot   Excited state Energy =    -347.4322707910
 #  7 1 Sy: 1 Sp: 1 Exc:  3 E_tot:   -347.4191124099 w:     14.9624264640 E_grs:   -362.3815388740
 #  8 1 Exctot   Excited state Energy =    -347.4191124099
 #  9 1 Sy: 1 Sp: 1 Exc:  4 E_tot:   -347.4012690366 w:     14.9802698374 E_grs:   -362.3815388740
 # 10 1 Exctot   Excited state Energy =    -347.4012690366
 # 11 1 Sy: 1 Sp: 1 Exc:  5 E_tot:   -347.3875724960 w:     14.9939663780 E_grs:   -362.3815388740
 # 12 1 Exctot   Excited state Energy =    -347.3875724960
 # 13 1 Sy: 1 Sp: 1 Exc:  6 E_tot:   -347.3826410368 w:     14.9988978371 E_grs:   -362.3815388740
 # 14 1 Exctot   Excited state Energy =    -347.3826410368
 # 15 1 Sy: 1 Sp: 1 Exc:  7 E_tot:   -347.3701827902 w:     15.0113560837 E_grs:   -362.3815388740
 # 16 1 Exctot   Excited state Energy =    -347.3701827902
 # 17 1 Sy: 1 Sp: 1 Exc:  8 E_tot:   -347.3657614540 w:     15.0157774200 E_grs:   -362.3815388740
 # 18 1 Exctot   Excited state Energy =    -347.3657614540
 # 19 1 Sy: 1 Sp: 1 Exc:  9 E_tot:   -347.3617735677 w:     15.0197653062 E_grs:   -362.3815388740
 # 20 1 Exctot   Excited state Energy =    -347.3617735677
 # 21 1 Sy: 1 Sp: 1 Exc: 10 E_tot:   -347.3517358272 w:     15.0298030468 E_grs:   -362.3815388740
 # 22 1 Exctot   Excited state Energy =    -347.3517358272
 # 23 1 Sy: 1 Sp: 1 Exc: 11 E_tot:   -347.3377769344 w:     15.0437619396 E_grs:   -362.3815388740
 # 24 1 Exctot   Excited state Energy =    -347.3377769344
 # 25 1 Sy: 1 Sp: 1 Exc: 12 E_tot:   -347.3332938390 w:     15.0482450349 E_grs:   -362.3815388740
 # 26 1 Exctot   Excited state Energy =    -347.3332938390
 # 27 1 Sy: 1 Sp: 1 Exc: 13 E_tot:   -347.3209580160 w:     15.0605808580 E_grs:   -362.3815388740
 # 28 1 Exctot   Excited state Energy =    -347.3209580160
 # 29 1 Sy: 1 Sp: 1 Exc: 14 E_tot:   -347.3195634101 w:     15.0619754639 E_grs:   -362.3815388740
 # 30 1 Exctot   Excited state Energy =    -347.3195634101
 # 31 1 Sy: 1 Sp: 1 Exc: 15 E_tot:   -347.2962404725 w:     15.0852984014 E_grs:   -362.3815388740
 # 32 1 Exctot   Excited state Energy =    -347.2962404725
 # 33 1 |<O|XDIPLEN |i(14.903045)>| =     0.00528200
 # 35 1 |<O|XDIPLEN |i(14.949268)>| =     0.00062792
 # 37 1 |<O|XDIPLEN |i(14.962426)>| =     0.02714276
 # 39 1 |<O|XDIPLEN |i(14.980270)>| =     0.01747630
 # 41 1 |<O|XDIPLEN |i(14.993966)>| =     0.02604033
 # 43 1 |<O|XDIPLEN |i(14.998898)>| =     0.02101510
 # 45 1 |<O|XDIPLEN |i(15.011356)>| =     0.00822635
 # 47 1 |<O|XDIPLEN |i(15.015777)>| =     0.00148155
 # 49 1 |<O|XDIPLEN |i(15.019765)>| =     0.00953703
 # 51 1 |<O|XDIPLEN |i(15.029803)>| =     0.00331044
 # 53 1 |<O|XDIPLEN |i(15.043762)>| =     0.00900766
 # 55 1 |<O|XDIPLEN |i(15.048245)>| =     0.02770268
 # 57 1 |<O|XDIPLEN |i(15.060581)>| =    -0.00001959
 # 59 1 |<O|XDIPLEN |i(15.061975)>| =     0.02043675
 # 61 1 |<O|XDIPLEN |i(15.085298)>| =     0.00158500
 # 63 1 |<O|YDIPLEN |i(14.903045)>| =     0.00101379
 # 65 1 |<O|YDIPLEN |i(14.949268)>| =     0.02990781
 # 67 1 |<O|YDIPLEN |i(14.962426)>| =     0.00148675
 # 69 1 |<O|YDIPLEN |i(14.980270)>| =     0.01232458
 # 71 1 |<O|YDIPLEN |i(14.993966)>| =     0.01784796
 # 73 1 |<O|YDIPLEN |i(14.998898)>| =     0.01489036
 # 75 1 |<O|YDIPLEN |i(15.011356)>| =     0.02339369
 # 77 1 |<O|YDIPLEN |i(15.015777)>| =     0.01030343
 # 79 1 |<O|YDIPLEN |i(15.019765)>| =     0.00605006
 # 81 1 |<O|YDIPLEN |i(15.029803)>| =     0.02117770
 # 83 1 |<O|YDIPLEN |i(15.043762)>| =     0.00254557
 # 85 1 |<O|YDIPLEN |i(15.048245)>| =     0.00165388
 # 87 1 |<O|YDIPLEN |i(15.060581)>| =     0.00585779
 # 89 1 |<O|YDIPLEN |i(15.061975)>| =     0.02444289
 # 91 1 |<O|YDIPLEN |i(15.085298)>| =     0.01466561
 # 93 1 |<O|ZDIPLEN |i(14.903045)>| =     0.01326476
 # 95 1 |<O|ZDIPLEN |i(14.949268)>| =     0.03592539
 # 97 1 |<O|ZDIPLEN |i(14.962426)>| =     0.02026598
 # 99 1 |<O|ZDIPLEN |i(14.980270)>| =     0.01554788
 #101 1 |<O|ZDIPLEN |i(14.993966)>| =     0.00800652
 #103 1 |<O|ZDIPLEN |i(14.998898)>| =     0.00776471
 #105 1 |<O|ZDIPLEN |i(15.011356)>| =     0.02734909
 #107 1 |<O|ZDIPLEN |i(15.015777)>| =     0.00644376
 #109 1 |<O|ZDIPLEN |i(15.019765)>| =     0.00807814
 #111 1 |<O|ZDIPLEN |i(15.029803)>| =     0.00071129
 #113 1 |<O|ZDIPLEN |i(15.043762)>| =     0.00445973
 #115 1 |<O|ZDIPLEN |i(15.048245)>| =     0.00008327
 #117 1 |<O|ZDIPLEN |i(15.060581)>| =     0.00579098
 #119 1 |<O|ZDIPLEN |i(15.061975)>| =     0.00231713
 #121 1 |<O|ZDIPLEN |i(15.085298)>| =     0.00649804

 THE_END   
