

     ************************************************************************
     *************** Dalton - An Electronic Structure Program ***************
     ************************************************************************

    This is output from DALTON release Dalton2017.alpha (2016)
         ( Web site: http://daltonprogram.org )

   ----------------------------------------------------------------------------

    NOTE:
     
    Dalton is an experimental code for the evaluation of molecular
    properties using (MC)SCF, DFT, CI, and CC wave functions.
    The authors accept no responsibility for the performance of
    the code or for the correctness of the results.
     
    The code (in whole or part) is provided under a licence and
    is not to be reproduced for further distribution without
    the written permission of the authors or their representatives.
     
    See the home page "http://daltonprogram.org" for further information.
     
    If results obtained with this code are published,
    the appropriate citations would be both of:
     
       K. Aidas, C. Angeli, K. L. Bak, V. Bakken, R. Bast,
       L. Boman, O. Christiansen, R. Cimiraglia, S. Coriani,
       P. Dahle, E. K. Dalskov, U. Ekstroem,
       T. Enevoldsen, J. J. Eriksen, P. Ettenhuber, B. Fernandez,
       L. Ferrighi, H. Fliegl, L. Frediani, K. Hald, A. Halkier,
       C. Haettig, H. Heiberg, T. Helgaker, A. C. Hennum,
       H. Hettema, E. Hjertenaes, S. Hoest, I.-M. Hoeyvik,
       M. F. Iozzi, B. Jansik, H. J. Aa. Jensen, D. Jonsson,
       P. Joergensen, J. Kauczor, S. Kirpekar,
       T. Kjaergaard, W. Klopper, S. Knecht, R. Kobayashi, H. Koch,
       J. Kongsted, A. Krapp, K. Kristensen, A. Ligabue,
       O. B. Lutnaes, J. I. Melo, K. V. Mikkelsen, R. H. Myhre,
       C. Neiss, C. B. Nielsen, P. Norman, J. Olsen,
       J. M. H. Olsen, A. Osted, M. J. Packer, F. Pawlowski,
       T. B. Pedersen, P. F. Provasi, S. Reine, Z. Rinkevicius,
       T. A. Ruden, K. Ruud, V. Rybkin, P. Salek, C. C. M. Samson,
       A. Sanchez de Meras, T. Saue, S. P. A. Sauer,
       B. Schimmelpfennig, K. Sneskov, A. H. Steindal,
       K. O. Sylvester-Hvid, P. R. Taylor, A. M. Teale,
       E. I. Tellgren, D. P. Tew, A. J. Thorvaldsen, L. Thoegersen,
       O. Vahtras, M. A. Watson, D. J. D. Wilson, M. Ziolkowski
       and H. Agren,
       "The Dalton quantum chemistry program system",
       WIREs Comput. Mol. Sci. 2014, 4:269–284 (doi: 10.1002/wcms.1172)
     
    and
     
       Dalton, a Molecular Electronic Structure Program,
       Release Dalton2017.alpha (2016), see http://daltonprogram.org
   ----------------------------------------------------------------------------

    Authors in alphabetical order (major contribution(s) in parenthesis):

  Kestutis Aidas,           Vilnius University,           Lithuania   (QM/MM)
  Celestino Angeli,         University of Ferrara,        Italy       (NEVPT2)
  Keld L. Bak,              UNI-C,                        Denmark     (AOSOPPA, non-adiabatic coupling, magnetic properties)
  Vebjoern Bakken,          University of Oslo,           Norway      (DALTON; geometry optimizer, symmetry detection)
  Radovan Bast,             UiT The Arctic U. of Norway,  Norway      (DALTON installation and execution frameworks)
  Pablo Baudin,             University of Valencia,       Spain       (Cholesky excitation energies)
  Linus Boman,              NTNU,                         Norway      (Cholesky decomposition and subsystems)
  Ove Christiansen,         Aarhus University,            Denmark     (CC module)
  Renzo Cimiraglia,         University of Ferrara,        Italy       (NEVPT2)
  Sonia Coriani,            University of Trieste,        Italy       (CC module, MCD in RESPONS)
  Janusz Cukras,            University of Trieste,        Italy       (MChD in RESPONS)
  Paal Dahle,               University of Oslo,           Norway      (Parallelization)
  Erik K. Dalskov,          UNI-C,                        Denmark     (SOPPA)
  Thomas Enevoldsen,        Univ. of Southern Denmark,    Denmark     (SOPPA)
  Janus J. Eriksen,         Aarhus University,            Denmark     (Polarizable embedding model, TDA)
  Rasmus Faber,             University of Copenhagen,     Denmark     (Vib.avg. NMR with SOPPA, parallel AO-SOPPA)
  Berta Fernandez,          U. of Santiago de Compostela, Spain       (doublet spin, ESR in RESPONS)
  Lara Ferrighi,            Aarhus University,            Denmark     (PCM Cubic response)
  Heike Fliegl,             University of Oslo,           Norway      (CCSD(R12))
  Luca Frediani,            UiT The Arctic U. of Norway,  Norway      (PCM)
  Bin Gao,                  UiT The Arctic U. of Norway,  Norway      (Gen1Int library)
  Christof Haettig,         Ruhr-University Bochum,       Germany     (CC module)
  Kasper Hald,              Aarhus University,            Denmark     (CC module)
  Asger Halkier,            Aarhus University,            Denmark     (CC module)
  Frederik Beyer Hansen,    University of Copenhagen,     Denmark     (Parallel AO-SOPPA)
  Erik D. Hedegaard,        Univ. of Southern Denmark,    Denmark     (Polarizable embedding model, QM/MM)
  Hanne Heiberg,            University of Oslo,           Norway      (geometry analysis, selected one-electron integrals)
  Trygve Helgaker,          University of Oslo,           Norway      (DALTON; ABACUS, ERI, DFT modules, London, and much more)
  Alf Christian Hennum,     University of Oslo,           Norway      (Parity violation)
  Hinne Hettema,            University of Auckland,       New Zealand (quadratic response in RESPONS; SIRIUS supersymmetry)
  Eirik Hjertenaes,         NTNU,                         Norway      (Cholesky decomposition)
  Pi A. B. Haase,           University of Copenhagen,     Denmark     (Triplet AO-SOPPA)
  Maria Francesca Iozzi,    University of Oslo,           Norway      (RPA)
  Brano Jansik              Technical Univ. of Ostrava    Czech Rep.  (DFT cubic response)
  Hans Joergen Aa. Jensen,  Univ. of Southern Denmark,    Denmark     (DALTON; SIRIUS, RESPONS, ABACUS modules, London, and much more)
  Dan Jonsson,              UiT The Arctic U. of Norway,  Norway      (cubic response in RESPONS module)
  Poul Joergensen,          Aarhus University,            Denmark     (RESPONS, ABACUS, and CC modules)
  Maciej Kaminski,          University of Warsaw,         Poland      (CPPh in RESPONS)
  Joanna Kauczor,           Linkoeping University,        Sweden      (Complex polarization propagator (CPP) module)
  Sheela Kirpekar,          Univ. of Southern Denmark,    Denmark     (Mass-velocity & Darwin integrals)
  Wim Klopper,              KIT Karlsruhe,                Germany     (R12 code in CC, SIRIUS, and ABACUS modules)
  Stefan Knecht,            ETH Zurich,                   Switzerland (Parallel CI and MCSCF)
  Rika Kobayashi,           Australian National Univ.,    Australia   (DIIS in CC, London in MCSCF)
  Henrik Koch,              NTNU,                         Norway      (CC module, Cholesky decomposition)
  Jacob Kongsted,           Univ. of Southern Denmark,    Denmark     (Polarizable embedding model, QM/MM)
  Andrea Ligabue,           University of Modena,         Italy       (CTOCD, AOSOPPA)
  Nanna H. List             Univ. of Southern Denmark,    Denmark     (Polarizable embedding model)
  Ola B. Lutnaes,           University of Oslo,           Norway      (DFT Hessian)
  Juan I. Melo,             University of Buenos Aires,   Argentina   (LRESC, Relativistic Effects on NMR Shieldings)
  Kurt V. Mikkelsen,        University of Copenhagen,     Denmark     (MC-SCRF and QM/MM)
  Rolf H. Myhre,            NTNU,                         Norway      (Cholesky, subsystems and ECC2)
  Christian Neiss,          Univ. Erlangen-Nuernberg,     Germany     (CCSD(R12))
  Christian B. Nielsen,     University of Copenhagen,     Denmark     (QM/MM)
  Patrick Norman,           Linkoeping University,        Sweden      (Cubic response and complex frequency response in RESPONS)
  Jeppe Olsen,              Aarhus University,            Denmark     (SIRIUS CI/density modules)
  Jogvan Magnus H. Olsen,   Univ. of Southern Denmark,    Denmark     (Polarizable embedding model, QM/MM)
  Anders Osted,             Copenhagen University,        Denmark     (QM/MM)
  Martin J. Packer,         University of Sheffield,      UK          (SOPPA)
  Filip Pawlowski,          Kazimierz Wielki University,  Poland      (CC3)
  Morten N. Pedersen,       Univ. of Southern Denmark,    Denmark     (Polarizable embedding model)
  Thomas B. Pedersen,       University of Oslo,           Norway      (Cholesky decomposition)
  Patricio F. Provasi,      University of Northeastern,   Argentina   (Analysis of coupling constants in localized orbitals)
  Zilvinas Rinkevicius,     KTH Stockholm,                Sweden      (open-shell DFT, ESR)
  Elias Rudberg,            KTH Stockholm,                Sweden      (DFT grid and basis info)
  Torgeir A. Ruden,         University of Oslo,           Norway      (Numerical derivatives in ABACUS)
  Kenneth Ruud,             UiT The Arctic U. of Norway,  Norway      (DALTON; ABACUS magnetic properties and much more)
  Pawel Salek,              KTH Stockholm,                Sweden      (DALTON; DFT code)
  Claire C. M. Samson       University of Karlsruhe       Germany     (Boys localization, r12 integrals in ERI)
  Alfredo Sanchez de Meras, University of Valencia,       Spain       (CC module, Cholesky decomposition)
  Trond Saue,               Paul Sabatier University,     France      (direct Fock matrix construction)
  Stephan P. A. Sauer,      University of Copenhagen,     Denmark     (SOPPA(CCSD), SOPPA prop., AOSOPPA, vibrational g-factors)
  Bernd Schimmelpfennig,    Forschungszentrum Karlsruhe,  Germany     (AMFI module)
  Kristian Sneskov,         Aarhus University,            Denmark     (Polarizable embedding model, QM/MM)
  Arnfinn H. Steindal,      UiT The Arctic U. of Norway,  Norway      (parallel QM/MM, Polarizable embedding model)
  Casper Steinmann,         Univ. of Southern Denmark,    Denmark     (QFIT, Polarizable embedding model)
  K. O. Sylvester-Hvid,     University of Copenhagen,     Denmark     (MC-SCRF)
  Peter R. Taylor,          VLSCI/Univ. of Melbourne,     Australia   (Symmetry handling ABACUS, integral transformation)
  Andrew M. Teale,          University of Nottingham,     England     (DFT-AC, DFT-D)
  David P. Tew,             University of Bristol,        England     (CCSD(R12))
  Olav Vahtras,             KTH Stockholm,                Sweden      (triplet response, spin-orbit, ESR, TDDFT, open-shell DFT)
  David J. Wilson,          La Trobe University,          Australia   (DFT Hessian and DFT magnetizabilities)
  Hans Agren,               KTH Stockholm,                Sweden      (SIRIUS module, RESPONS, MC-SCRF solvation model)
 --------------------------------------------------------------------------------

     Date and time (Linux)  : Sun Dec  9 12:19:01 2018
     Host name              : s71p21.deic.sdu.dk                      

 * Work memory size             :  2048000000 = 15.259 gigabytes.

 * Directories for basis set searches:
   1) /work/sdujk/reinholdt/ECP-Sonia/6-311++G**
   2) /gpfs/gss1/work/sdujk/reinholdt/Programs/dalton-private/pe-cvs/basis


Compilation information
-----------------------

 Who compiled             | reinholdt
 Host                     | fe1.deic.sdu.dk
 System                   | Linux-3.10.0-327.36.3.el7.x86_64
 CMake generator          | Unix Makefiles
 Processor                | x86_64
 64-bit integers          | ON
 MPI                      | OFF
 Fortran compiler         | /opt/sys/apps/intel/2018.05/compilers_and_librarie
                          | s_2018.3.222/linux/bin/intel64/ifort
 Fortran compiler version | ifort (IFORT) 18.0.3 20180410
 C compiler               | /opt/sys/apps/intel/2018.05/compilers_and_librarie
                          | s_2018.3.222/linux/bin/intel64/icc
 C compiler version       | icc (ICC) 18.0.3 20180410
 C++ compiler             | /opt/sys/apps/intel/2018.05/compilers_and_librarie
                          | s_2018.3.222/linux/bin/intel64/icpc
 C++ compiler version     | icpc (ICC) 18.0.3 20180410
 Static linking           | OFF
 Last Git revision        | 252a54078a0f9a1f0a59b3262fa4a57829155fe9
 Git branch               | pe/cc-cvs
 Configuration time       | 2018-12-09 12:09:40.474621


   Content of the .dal input file
 ----------------------------------

**DALTON
.RUN WAVE FUNCTIONS
.PEQM
**INTEGRALS
.DIPLEN
**WAVE FUNCTIONS
.CC
*PRINT
!To check the origin of excit
.PRINTL
   0 11
*SCF INP
.THRESH
1.0D-7
*CC INP
.CCSD
.THRLEQ
 1.0D-9
.THRENR
 1.0D-10
.FROIMP
4
0
.PRINT
 1
.MAX IT
 1200
.MAXRED
 1200
.MXLRV
1199
*PECC
*CCEXCI
.NCCEXC
 15
.CVSEPARA
1
1
*CCLRSD
.DIPOLE
**END OF DALTON INPUT


   Content of the .mol file
 ----------------------------

ATOMBASIS


Atomtypes=4 Charge=0 Nosymm Angstrom
   7.00000    1    Basis=6-311++G**
N          0.000000        0.000000        0.000000
   1.00000    3    Basis=6-311++G**
H         -0.289697       -0.595427       -0.786813
H          0.725456       -0.549821        0.359388
H         -0.662062       -0.013191        0.779102
   8.00000    4    Basis=6-311++G**
O         -1.568349       -1.999512       -1.363307
O          1.970561       -2.148947        0.621290
O          0.430559        2.677908       -0.288482
O         -3.104181        0.240492        1.996511
   1.00000    8    Basis=6-311++G**
H         -0.853407       -2.521728       -1.772188
H         -2.401309       -2.086574       -1.991420
H          2.758511       -2.517247        0.173949
H          1.247031       -2.187999       -0.034818
H          1.362711        3.056804       -0.043166
H          0.396938        1.667331       -0.210000
H         -3.490122        0.621238        1.201654
H         -2.592811        0.919226        2.434691


       *******************************************************************
       *********** Output from DALTON general input processing ***********
       *******************************************************************

 --------------------------------------------------------------------------------
   Overall default print level:    0
   Print level for DALTON.STAT:    1

    HERMIT 1- and 2-electron integral sections will be executed
    "Old" integral transformation used (limited to max 255 basis functions)
    Wave function sections will be executed (SIRIUS module)
    Environment is modeled using polarizable embedding scheme (PE library)
 --------------------------------------------------------------------------------


   ****************************************************************************
   *************** Output of molecule and basis set information ***************
   ****************************************************************************


    The two title cards from your ".mol" input:
    ------------------------------------------------------------------------
 1:                                                                         
 2:                                                                         
    ------------------------------------------------------------------------

  Coordinates are entered in Angstrom and converted to atomic units.
          - Conversion factor : 1 bohr = 0.52917721 A

  Atomic type no.    1
  --------------------
  Nuclear charge:   7.00000
  Number of symmetry independent centers:    1
  Number of basis sets to read;    2
  The basis set is "6-311++G**" from the basis set library.
  Basis set file used for this atomic type with Z =   7 :
     "/gpfs/gss1/work/sdujk/reinholdt/Programs/dalton-private/pe-cvs/basis/6-311++G**"

  Info about the basis set file: your basis has no documentation.
  Basis set: 6-311++G**                                                                      

  Atomic type no.    2
  --------------------
  Nuclear charge:   1.00000
  Number of symmetry independent centers:    3
  Number of basis sets to read;    2
  The basis set is "6-311++G**" from the basis set library.
  Basis set file used for this atomic type with Z =   1 :
     "/gpfs/gss1/work/sdujk/reinholdt/Programs/dalton-private/pe-cvs/basis/6-311++G**"

  Info about the basis set file: your basis has no documentation.
  Basis set: 6-311++G**                                                                      

  Atomic type no.    3
  --------------------
  Nuclear charge:   8.00000
  Number of symmetry independent centers:    4
  Number of basis sets to read;    2
  The basis set is "6-311++G**" from the basis set library.
  Basis set file used for this atomic type with Z =   8 :
     "/gpfs/gss1/work/sdujk/reinholdt/Programs/dalton-private/pe-cvs/basis/6-311++G**"

  Info about the basis set file: your basis has no documentation.
  Basis set: 6-311++G**                                                                      

  Atomic type no.    4
  --------------------
  Nuclear charge:   1.00000
  Number of symmetry independent centers:    8
  Number of basis sets to read;    2
  The basis set is "6-311++G**" from the basis set library.
  Basis set file used for this atomic type with Z =   1 :
     "/gpfs/gss1/work/sdujk/reinholdt/Programs/dalton-private/pe-cvs/basis/6-311++G**"

  Info about the basis set file: your basis has no documentation.
  Basis set: 6-311++G**                                                                      


                         SYMGRP: Point group information
                         -------------------------------

@    Point group: C1 


                                 Isotopic Masses
                                 ---------------

                           N          14.003074
                           H           1.007825
                           H           1.007825
                           H           1.007825
                           O          15.994915
                           O          15.994915
                           O          15.994915
                           O          15.994915
                           H           1.007825
                           H           1.007825
                           H           1.007825
                           H           1.007825
                           H           1.007825
                           H           1.007825
                           H           1.007825
                           H           1.007825

                       Total mass:    89.068809 amu
                       Natural abundance:  98.514 %

 Center-of-mass coordinates (a.u.):   -0.852043   -0.507392    0.330182


  Atoms and basis sets
  --------------------

  Number of atom types :    4
  Total number of atoms:   16

  label    atoms   charge   prim   cont     basis
  ----------------------------------------------------------------------
  N           1    7.0000    35    22      [12s6p1d|5s4p1d]                                   
  H           3    1.0000     9     7      [6s1p|4s1p]                                        
  O           4    8.0000    35    22      [12s6p1d|5s4p1d]                                   
  H           8    1.0000     9     7      [6s1p|4s1p]                                        
  ----------------------------------------------------------------------
  total:     16   50.0000   274   187
  ----------------------------------------------------------------------
  Spherical harmonic basis used.

  Threshold for neglecting AO integrals:  1.00D-12


  Cartesian Coordinates (a.u.)
  ----------------------------

  Total number of coordinates:   48
  N       :     1  x   0.0000000000    2  y   0.0000000000    3  z   0.0000000000
  H       :     4  x  -0.5474479892    5  y  -1.1251939574    6  z  -1.4868610816
  H       :     7  x   1.3709131557    8  y  -1.0390111078    9  z   0.6791448926
  H       :    10  x  -1.2511158578   11  y  -0.0249273773   12  z   1.4722894034
  O       :    13  x  -2.9637500784   14  y  -3.7785300636   15  z  -2.5762768543
  O       :    16  x   3.7238206026   17  y  -4.0609212871   18  z   1.1740679442
  O       :    19  x   0.8136385907   20  y   5.0605127079   21  z  -0.5451519720
  O       :    22  x  -5.8660519324   23  y   0.4544640153   24  z   3.7728589955
  H       :    25  x  -1.6127055032   26  y  -4.7653752817   27  z  -3.3489499620
  H       :    28  x  -4.5378163515   29  y  -3.9430533995   30  z  -3.7632383998
  H       :    31  x   5.2128303028   32  y  -4.7569074190   33  z   0.3287159697
  H       :    34  x   2.3565470594   35  y  -4.1347188718   36  z  -0.0657964842
  H       :    37  x   2.5751505775   38  y   5.7765223778   39  z  -0.0815719179
  H       :    40  x   0.7501041086   41  y   3.1507989497   42  z  -0.3968424862
  H       :    43  x  -6.5953747228   44  y   1.1739696784   45  z   2.2707969570
  H       :    46  x  -4.8997026839   47  y   1.7370853870   48  z   4.6008991890


   Interatomic separations (in Angstrom):
   --------------------------------------

            N           H           H           H           O           O     
            ------      ------      ------      ------      ------      ------
 N     :    0.000000
 H     :    1.028364    0.000000
 H     :    0.978647    1.531794    0.000000
 H     :    1.022497    1.711650    1.545748    0.000000
 O     :    2.883812    1.984629    3.214160    3.058879    0.000000
 O     :    2.981121    3.083009    2.043547    3.393680    4.060153    0.000000
 O     :    2.727599    3.388484    3.305289    3.094442    5.198956    5.147603
 O     :    3.698626    4.045612    4.239208    2.740508    4.320275    5.775263
 H     :    3.198135    2.235927    3.305275    3.583078    0.975210    3.720551
 H     :    3.753109    2.851930    4.202924    3.872943    1.046866    5.093466
 H     :    3.738472    3.729347    2.835219    4.282152    4.620922    0.978072
 H     :    2.518658    2.337374    1.763821    3.006142    3.118778    0.977496
 H     :    3.347073    4.077040    3.684547    3.768382    5.991679    5.283070
 H     :    1.726746    2.433979    2.312550    2.218999    4.317199    4.210856
 H     :    3.743108    3.959419    4.455546    2.928989    4.140117    6.150594
 H     :    3.673604    4.239882    4.180416    2.708905    4.898300    5.790205

            O           O           H           H           H           H     
            ------      ------      ------      ------      ------      ------
 O     :    0.000000
 O     :    4.863803    0.000000
 H     :    5.557532    5.186418    0.000000
 H     :    5.798255    4.670424    1.622782    0.000000
 H     :    5.711641    6.730380    4.102855    5.612312    0.000000
 H     :    4.940448    5.381163    2.746210    4.141131    1.560948    0.000000
 H     :    1.035688    5.660832    6.246656    6.664674    5.750256    5.246085
 H     :    1.014177    4.377487    4.642414    5.009536    4.820284    3.951824
 H     :    4.671417    0.962141    5.066975    4.325908    7.067650    5.644581
 H     :    4.432764    0.956128    5.706446    5.353687    6.749589    5.522473

            H           H           H           H     
            ------      ------      ------      ------
 H     :    0.000000
 H     :    1.700349    0.000000
 H     :    5.570597    4.265714    0.000000
 H     :    5.133729    4.061114    1.553816    0.000000


  Max    interatomic separation is    7.0677 Angstrom (   13.3559 Bohr)
  between atoms   15 and   11, "H     " and "H     ".

  Min HX interatomic separation is    0.9561 Angstrom (    1.8068 Bohr)

  Min YX interatomic separation is    2.7276 Angstrom (    5.1544 Bohr)


  Bond distances (Angstrom):
  --------------------------

                  atom 1     atom 2       distance
                  ------     ------       --------
  bond distance:  H          N            1.028364
  bond distance:  H          N            0.978647
  bond distance:  H          N            1.022497
  bond distance:  H          O            0.975210
  bond distance:  H          O            1.046866
  bond distance:  H          O            0.978072
  bond distance:  H          O            0.977496
  bond distance:  H          O            1.035688
  bond distance:  H          O            1.014177
  bond distance:  H          O            0.962141
  bond distance:  H          O            0.956128


  Bond angles (degrees):
  ----------------------

                  atom 1     atom 2     atom 3         angle
                  ------     ------     ------         -----
  bond angle:     H          N          H             99.468
  bond angle:     H          N          H            113.148
  bond angle:     H          N          H            101.123
  bond angle:     H          O          H            106.692
  bond angle:     H          O          H            105.918
  bond angle:     H          O          H            112.089
  bond angle:     H          O          H            108.193




 Principal moments of inertia (u*A**2) and principal axes
 --------------------------------------------------------

   IA     356.232876          0.680719   -0.686091   -0.256712
   IB     418.933396          0.698951    0.713220   -0.052761
   IC     576.457040          0.219291   -0.143514    0.965047


 Rotational constants
 --------------------

               A                   B                   C

           1418.6759           1206.3469            876.6985 MHz
            0.047322            0.040239            0.029244 cm-1


@  Nuclear repulsion energy :  183.073223734266 Hartree

  Reading potential input file for polarizable embedding calculation
 
    .------------------------------------------------.
    | Information from polarizable embedding library |
    `------------------------------------------------´

      Number of classical sites:    177

      Multipole moments upto 0th order.

      Dipole-dipole polarizabilities.

      Iterative solver for induced moments will be used
      with convergence threshold: 1.0E-08
      Total charge of classical region:    0.0000
 


                     .---------------------------------------.
                     | Starting in Integral Section (HERMIT) |
                     `---------------------------------------'



 ***************************************************************************************
 ****************** Output from **INTEGRALS input processing (HERMIT) ******************
 ***************************************************************************************



    *************************************************************************
    ****************** Output from HERMIT input processing ******************
    *************************************************************************


 Default print level:        1

 * Nuclear model: Point charge

 Calculation of one- and two-electron Hamiltonian integrals.

 The following one-electron property integrals are calculated as requested:
          - overlap integrals
          - dipole length integrals

 Center of mass  (bohr):     -0.852042931295     -0.507391989554      0.330181864489
 Operator center (bohr):      0.000000000000      0.000000000000      0.000000000000
 Gauge origin    (bohr):      0.000000000000      0.000000000000      0.000000000000
 Dipole origin   (bohr):      0.000000000000      0.000000000000      0.000000000000


     ************************************************************************
     ************************** Output from HERINT **************************
     ************************************************************************



                      Nuclear contribution to dipole moments
                      --------------------------------------

                 au               Debye          C m (/(10**-30)

      x    -41.51736044      -105.52659762      -351.99884053
      y    -26.54660804       -67.47474297      -225.07151589
      z     14.81257099        37.64979762       125.58620676


  Time used in ONEDRV     is       0.12 seconds
  Time used in OVERLAP    is       0.14 seconds
  Time used in POPOVLP    is       0.21 seconds
  Time used in QUADRUP    is       0.15 seconds
  Time used in KINENE     is       0.11 seconds

 Threshold for neglecting two-electron integrals:  1.00D-12
 HERMIT - Number of two-electron integrals written:    85501832 ( 55.3% )
 HERMIT - Megabytes written:                            979.041

  Time used in TWOINT     is      15.12 seconds
  Total CPU  time used in HERMIT:  15.97 seconds
  Total wall time used in HERMIT:   8.86 seconds


                        .----------------------------------.
                        | End of Integral Section (HERMIT) |
                        `----------------------------------'



                   .--------------------------------------------.
                   | Starting in Wave Function Section (SIRIUS) |
                   `--------------------------------------------'

 INPUT: SIMPLE =  F
NCCEXCI for singlet:   15
 CCSD_INPUT: core-val requested
 Requested number of core orbs per sym
                     1
 Indices of requested core orbs
                     1

 *** Output from Huckel module :

     Using EWMO model:          T
     Using EHT  model:          F
     Number of Huckel orbitals each symmetry:   36

 EWMO - Energy Weighted Maximum Overlap - is a Huckel type method,
        which normally is better than Extended Huckel Theory.
 Reference: Linderberg and Ohrn, Propagators in Quantum Chemistry (Wiley, 1973)

 Huckel EWMO eigenvalues for symmetry :  1
          -20.684941     -20.684706     -20.684252     -20.684025     -15.674299
           -1.756025      -1.611654      -1.589881      -1.579552      -1.441409
           -0.842181      -0.792638      -0.788212      -0.785638      -0.733949
           -0.710084      -0.685551      -0.681994      -0.678524      -0.658182
           -0.616014      -0.615359      -0.597781      -0.581449      -0.509841
           -0.262033      -0.241275      -0.233933      -0.232595      -0.185109
           -0.180177      -0.170432      -0.167976      -0.157303      -0.142964
           -0.133861

 **********************************************************************
 *SIRIUS* a direct, restricted step, second order MCSCF program       *
 **********************************************************************

 
     Date and time (Linux)  : Sun Dec  9 12:19:11 2018
     Host name              : s71p21.deic.sdu.dk                      

 Title lines from ".mol" input file:
                                                                             
                                                                             

 Print level on unit LUPRI =   2 is   0
 Print level on unit LUW4  =   2 is  11

@    (Integral direct) CC calculation.

@    This is a combination run starting with
@              a restricted, closed shell Hartree-Fock calculation


 Initial molecular orbitals are obtained according to
 ".MOSTART EWMO  " input option

@    QM part is embedded in an environment :

@         Model: PE

     Wave function specification
     ============================

     For the specification of the Coupled Cluster: see later.


     Wave function environment is modeled using the
     polarizable embedding model (PE library).

@    Wave function type        --- PE-CC ---
@    Number of closed shell electrons          50
@    Number of electrons in active shells       0
@    Total charge of the molecule               0

@    Spin multiplicity and 2 M_S                1         0
@    Total number of symmetries                 1 (point group: C1 )
@    Reference state symmetry                   1 (irrep name : A  )

     Orbital specifications
     ======================
@    Abelian symmetry species          All |    1
@                                          |  A  
                                       --- |  ---
@    Occupied SCF orbitals              25 |   25
@    Secondary orbitals                162 |  162
@    Total number of orbitals          187 |  187
@    Number of basis functions         187 |  187

     Optimization information
     ========================
@    Number of configurations                 1
@    Number of orbital rotations           4050
     ------------------------------------------
@    Total number of variables             4051

     Maximum number of Fock   iterations      0
     Maximum number of DIIS   iterations     60
     Maximum number of QC-SCF iterations     60
     Threshold for SCF convergence     1.00D-07


 Changes of defaults for CC:
 ---------------------------


 -Implicit frozen core calculation
 -Excitation energies calculated
 -One-photon absorption strengths will be calculated
 -Oscillator strengths calculated
  
* Read MO coefficients from SIRIUS.RST with label "NEWORB  " and header info:  9Dec18  REORTHO 


 ***********************************************
 ***** DIIS acceleration of SCF iterations *****
 ***********************************************

 C1-DIIS algorithm; max error vectors =    8
 -----------------------------------------------------------------------------

 *** DIIS iteration number    1
 RDSUPM called. NFMAT, ISYMDM(1:NFMAT)                     1
                     1

Calculating AOSUPINT
     (Precalculated AO two-electron integrals are transformed to P-supermatrix elements.
      Threshold for discarding integrals :  1.00D-12 )
  CPU  time used in FORMSUP    is   7.54 seconds
  WALL time used in FORMSUP    is  11.92 seconds

 ITDIIS, energy, error norm, change in energy, scr.thr., difden:
@ DIIS iter.   1    -359.931527163        3.84932D+00   -3.60D+02  -20    F

 (DIIS_RED) Control Parameters C2DIIS =         F NEVC =    1


 (DIIS_RED) B matrix:

               Column   1
       1      14.81725095
    ==== End of matrix output ====

 DIIS C vector; C2DIIS = F, LAMBDA = -1.48D+01
    1.000000
* Read MO coefficients from SIRIUS.RST with label "NEWORB  " and header info:  9Dec18  DIIS   1
      Virial theorem: -V/T =      1.998708
@    MULPOP   N      -0.50; H       0.22; H       0.24; H       0.20; O      -0.66; O      -0.69; O      -0.85; O      -0.67; H       0.34; H       0.33; 
@             H       0.33; H       0.35; H       0.34; H       0.35; H       0.34; H       0.34; 
   1  Level shift: doubly occupied orbital energies shifted by -2.00D-01

 DIIS Fock eigenvalues in symmetry 1
      -20.73348      -20.72903      -20.72051      -20.52819      -15.98430
       -1.56946       -1.54842       -1.52278       -1.46774       -1.42872
       -0.97563       -0.95815       -0.93346       -0.92829       -0.89546
       -0.86493       -0.80855       -0.79482       -0.78372       -0.76368
       -0.74706       -0.74408       -0.73299       -0.67834       -0.64793
        0.04478        0.07940        0.08830        0.10551        0.11172
        0.11707        0.12736        0.13750        0.15831        0.16420
        0.17706        0.19380        0.21554        0.23493        0.24541
        0.24970        0.26611        0.26989        0.27951        0.28628
        0.30002        0.30566        0.31504        0.31699        0.33025
        0.33244        0.33492        0.34571        0.35909        0.36937
        0.37598        0.38399        0.39007        0.40011        0.40385
        0.40935        0.43302        0.44824        0.46917        0.48636
        0.48774        0.51072        0.63192        0.67216        0.68803
        0.72642        0.73440        0.74596        0.75139        0.76834
        0.78015        0.79631        0.83398        0.97376        0.99617
        1.04184        1.16582        1.19036        1.21097        1.22517
        1.24789        1.25177        1.26023        1.27267        1.28705
        1.30118        1.30876        1.32939        1.34493        1.37111
        1.41493        1.45368        1.49379        1.49998        1.51947
        1.54353        1.55944        1.56544        1.63298        1.65667
        1.66093        1.68349        1.69881        1.71875        1.74311
        1.76962        1.78634        1.80924        1.85471        1.87835
        1.88912        1.89649        1.91062        1.97636        2.03555
        2.17726        2.24300        2.26177        2.27814        2.32923
        2.33523        2.38632        2.41756        2.44247        2.54580
        2.61656        2.71630        2.73747        2.75702        2.79414
        2.83385        2.83630        2.84653        2.85930        2.87483
        2.92682        2.97843        3.02129        3.10219        3.12540
        3.34379        3.40820        3.42135        3.44165        3.46949
        3.48043        3.48803        3.51290        3.52639        3.60078
        3.62921        3.64545        3.67496        3.68066        4.06702
        4.07574        4.10686        4.16675        4.28450        4.28910
        4.29314        4.31009        4.57746        5.04568        5.08973
        5.53990        5.55084        5.56933        5.63795        5.85226
        5.87412        5.90004        5.94024        6.09490        6.15205
        6.20732        6.26787       36.85931       51.59506       51.61133
       51.61451       51.79760
 Time used in FCKEIG, thr_jaco:   1.83D-01  1.28D-01  1.51D-04
 CPU and wall times used in FCKEIG, THR_FCKEIG:   1.83D-01  1.28D-01  3.85D-02
 -----------------------------------------------------------------------------

 *** DIIS iteration number    2
 RDSUPM called. NFMAT, ISYMDM(1:NFMAT)                     1
                     1

 ITDIIS, energy, error norm, change in energy, scr.thr., difden:
@ DIIS iter.   2    -360.756851418        9.72012D-01   -8.25D-01  -20    F

 (DIIS_RED) Control Parameters C2DIIS =         F NEVC =    2


 (DIIS_RED) B matrix:

               Column   1     Column   2
       1      14.81725095
       2       1.05222547     0.94480817
    ==== End of matrix output ====

 DIIS C vector; C2DIIS = F, LAMBDA = -9.44D-01
   -0.007865    1.007865
* Read MO coefficients from SIRIUS.RST with label "NEWORB  " and header info:  9Dec18  DIIS   2
      Virial theorem: -V/T =      2.004649
@    MULPOP   N      -0.84; H       0.28; H       0.27; H       0.29; O      -0.70; O      -0.57; O      -0.76; O      -0.64; H       0.36; H       0.37; 
@             H       0.35; H       0.22; H       0.32; H       0.39; H       0.33; H       0.32; 
   2  Level shift: doubly occupied orbital energies shifted by -1.00D-01

 DIIS Fock eigenvalues in symmetry 1
      -20.73724      -20.71570      -20.66229      -20.64854      -15.52163
       -1.46734       -1.42954       -1.41995       -1.41007       -1.21467
       -0.83500       -0.80010       -0.79248       -0.77078       -0.72056
       -0.71140       -0.69890       -0.68017       -0.67804       -0.66230
       -0.64136       -0.62458       -0.60937       -0.60369       -0.51219
        0.06209        0.08919        0.09685        0.11343        0.11827
        0.12660        0.13417        0.14230        0.16615        0.17240
        0.18214        0.22753        0.23385        0.25260        0.26496
        0.27875        0.28015        0.28719        0.29739        0.30607
        0.31641        0.32081        0.32991        0.33379        0.33839
        0.34573        0.35424        0.36323        0.37483        0.38471
        0.39887        0.40412        0.41028        0.41898        0.43111
        0.43607        0.46495        0.47111        0.49498        0.51039
        0.51328        0.53134        0.68650        0.71908        0.73440
        0.74563        0.75777        0.76756        0.78541        0.80349
        0.80757        0.83276        0.91251        1.07620        1.10618
        1.14109        1.21180        1.22748        1.26165        1.26369
        1.26745        1.27271        1.27635        1.29655        1.29944
        1.32304        1.33255        1.34971        1.37847        1.42652
        1.48118        1.50624        1.54441        1.55400        1.57729
        1.58787        1.60973        1.61765        1.63910        1.67413
        1.68248        1.71453        1.74284        1.76425        1.79134
        1.81080        1.82626        1.85803        1.90140        1.93642
        1.95258        1.95331        1.98933        2.06970        2.10858
        2.28655        2.30946        2.31478        2.32740        2.38115
        2.39280        2.44252        2.47568        2.50691        2.60731
        2.75023        2.79340        2.80621        2.82083        2.88267
        2.89020        2.91862        2.92862        2.95734        2.98682
        3.02475        3.07412        3.11677        3.20143        3.26828
        3.38793        3.43711        3.44219        3.47622        3.49282
        3.50317        3.52725        3.55875        3.56829        3.59534
        3.65745        3.66585        3.68625        3.72014        4.07993
        4.09846        4.10444        4.14184        4.22493        4.31209
        4.32471        4.33200        4.76965        5.27570        5.32317
        5.47485        5.52768        5.55752        5.58433        5.78551
        5.86041        5.87236        5.90613        6.11449        6.13636
        6.15228        6.24488       37.21591       51.49403       51.52786
       51.55633       51.60087
 Time used in FCKEIG, thr_jaco:   1.77D-01  5.20D-02  3.82D-05
 CPU and wall times used in FCKEIG, THR_FCKEIG:   1.77D-01  5.20D-02  9.72D-03
 -----------------------------------------------------------------------------

 *** DIIS iteration number    3
 RDSUPM called. NFMAT, ISYMDM(1:NFMAT)                     1
                     1

 ITDIIS, energy, error norm, change in energy, scr.thr., difden:
@ DIIS iter.   3    -360.823031870        3.74141D-01   -6.62D-02  -20    F

 (DIIS_RED) Control Parameters C2DIIS =         F NEVC =    3


 (DIIS_RED) B matrix:

               Column   1     Column   2     Column   3
       1      14.81725095
       2       1.05222547     0.94480817
       3       0.70818670     0.06567749     0.13998139
    ==== End of matrix output ====

 DIIS C vector; C2DIIS = F, LAMBDA = -1.07D-01
   -0.044980    0.097669    0.947311
* Read MO coefficients from SIRIUS.RST with label "NEWORB  " and header info:  9Dec18  DIIS   3
      Virial theorem: -V/T =      2.002270
@    MULPOP   N      -0.86; H       0.26; H       0.27; H       0.28; O      -0.77; O      -0.62; O      -0.87; O      -0.68; H       0.40; H       0.40; 
@             H       0.38; H       0.24; H       0.39; H       0.48; H       0.35; H       0.34; 
   3  Level shift: doubly occupied orbital energies shifted by -5.00D-02

 DIIS Fock eigenvalues in symmetry 1
      -20.60872      -20.58564      -20.57822      -20.53182      -15.59878
       -1.39719       -1.37360       -1.34633       -1.31945       -1.19744
       -0.76734       -0.74232       -0.71142       -0.70509       -0.68240
       -0.66380       -0.63981       -0.61899       -0.59981       -0.58224
       -0.56877       -0.54374       -0.53402       -0.51675       -0.48033
        0.06233        0.08984        0.09764        0.11508        0.11987
        0.12711        0.13491        0.14332        0.16684        0.17379
        0.18433        0.23140        0.23844        0.25763        0.26835
        0.28182        0.28378        0.29179        0.29989        0.31022
        0.32114        0.32561        0.33419        0.33838        0.34479
        0.35064        0.35878        0.36803        0.37858        0.38796
        0.40273        0.40726        0.41446        0.42337        0.43579
        0.43789        0.46794        0.47655        0.49705        0.51422
        0.51657        0.53939        0.68640        0.72259        0.73941
        0.75667        0.76359        0.77275        0.79280        0.80994
        0.81373        0.83844        0.91389        1.06436        1.09237
        1.13314        1.22684        1.23983        1.27232        1.27662
        1.28407        1.29173        1.30295        1.30854        1.31214
        1.33560        1.34603        1.35992        1.39020        1.42505
        1.48193        1.51632        1.55442        1.56333        1.58695
        1.60006        1.61775        1.62556        1.65558        1.68558
        1.69524        1.72442        1.75426        1.77556        1.80202
        1.82158        1.84496        1.86434        1.90974        1.94456
        1.96051        1.96082        1.99055        2.07451        2.11522
        2.29610        2.30117        2.32943        2.34988        2.38537
        2.38974        2.45761        2.48781        2.51619        2.62310
        2.74809        2.80013        2.81337        2.82833        2.88934
        2.89830        2.92564        2.93584        2.95711        2.97544
        3.01739        3.08463        3.10585        3.20533        3.25261
        3.44669        3.46127        3.46427        3.48562        3.49586
        3.52869        3.55437        3.57450        3.58692        3.63124
        3.66883        3.68471        3.69226        3.73295        4.10671
        4.11998        4.15313        4.15699        4.28084        4.33718
        4.33993        4.35563        4.71781        5.22738        5.27339
        5.55760        5.56656        5.58483        5.59859        5.87173
        5.88341        5.89994        5.93192        6.13933        6.18867
        6.22169        6.25852       37.09287       51.58348       51.59088
       51.61414       51.64844
 Time used in FCKEIG, thr_jaco:   1.61D-01  4.00D-02  1.47D-05
 CPU and wall times used in FCKEIG, THR_FCKEIG:   1.61D-01  4.00D-02  3.74D-03
 -----------------------------------------------------------------------------

 *** DIIS iteration number    4
 RDSUPM called. NFMAT, ISYMDM(1:NFMAT)                     1
                     1

 ITDIIS, energy, error norm, change in energy, scr.thr., difden:
@ DIIS iter.   4    -360.833449963        1.30781D-01   -1.04D-02  -20    F

 (DIIS_RED) Control Parameters C2DIIS =         F NEVC =    4


 (DIIS_RED) B matrix:

               Column   1     Column   2     Column   3     Column   4
       1      14.81725095
       2       1.05222547     0.94480817
       3       0.70818670     0.06567749     0.13998139
       4       0.01969686     0.09714448    -0.00644894     0.01710369
    ==== End of matrix output ====

 DIIS C vector; C2DIIS = F, LAMBDA = -5.72D-03
    0.000015   -0.102911    0.133703    0.969193
* Read MO coefficients from SIRIUS.RST with label "NEWORB  " and header info:  9Dec18  DIIS   4
      Virial theorem: -V/T =      2.003444
@    MULPOP   N      -0.92; H       0.28; H       0.29; H       0.30; O      -0.79; O      -0.63; O      -0.86; O      -0.70; H       0.41; H       0.41; 
@             H       0.39; H       0.25; H       0.39; H       0.48; H       0.36; H       0.35; 
   4  Level shift: doubly occupied orbital energies shifted by -2.50D-02

 DIIS Fock eigenvalues in symmetry 1
      -20.60132      -20.56434      -20.56412      -20.55390      -15.54730
       -1.37978       -1.35125       -1.32611       -1.31016       -1.16453
       -0.74827       -0.72014       -0.69355       -0.68686       -0.65234
       -0.63354       -0.61876       -0.59369       -0.57647       -0.56785
       -0.54618       -0.51658       -0.50882       -0.50281       -0.44838
        0.06149        0.08924        0.09731        0.11514        0.12028
        0.12665        0.13484        0.14322        0.16687        0.17367
        0.18454        0.23184        0.23832        0.25846        0.26917
        0.28223        0.28458        0.29261        0.30020        0.31036
        0.32111        0.32490        0.33456        0.33673        0.34427
        0.35069        0.35765        0.36784        0.37841        0.38827
        0.40300        0.40755        0.41439        0.42281        0.43543
        0.43842        0.46787        0.47681        0.49795        0.51465
        0.51743        0.53866        0.68817        0.72248        0.73843
        0.75245        0.76208        0.77213        0.78988        0.80822
        0.81279        0.83646        0.91604        1.06915        1.09847
        1.13716        1.22428        1.23868        1.27123        1.27542
        1.28243        1.28796        1.29662        1.30671        1.31082
        1.33726        1.34217        1.35781        1.38964        1.42759
        1.48352        1.51383        1.55313        1.56107        1.58505
        1.59643        1.61674        1.62380        1.65160        1.68425
        1.69261        1.72254        1.75059        1.77305        1.79997
        1.81957        1.84107        1.86418        1.90806        1.94200
        1.95848        1.95930        1.99233        2.07637        2.11647
        2.29398        2.30551        2.32435        2.34169        2.38701
        2.39054        2.45231        2.48331        2.51339        2.62182
        2.75144        2.79840        2.81136        2.82588        2.88859
        2.89486        2.92335        2.93596        2.95847        2.98077
        3.01986        3.08595        3.11033        3.20804        3.25882
        3.43182        3.45716        3.45945        3.48674        3.49907
        3.52296        3.55097        3.57227        3.57825        3.62879
        3.66578        3.68178        3.68720        3.73200        4.10061
        4.11603        4.14206        4.15324        4.26715        4.33322
        4.33819        4.35131        4.73081        5.24039        5.28694
        5.53835        5.55391        5.57727        5.59650        5.84802
        5.88103        5.89080        5.92600        6.13308        6.17867
        6.19798        6.25602       37.11891       51.56658       51.57980
       51.60159       51.61137
 Time used in FCKEIG, thr_jaco:   1.92D-01  6.80D-02  5.14D-06
 CPU and wall times used in FCKEIG, THR_FCKEIG:   1.92D-01  6.80D-02  1.31D-03
 -----------------------------------------------------------------------------

 *** DIIS iteration number    5
 RDSUPM called. NFMAT, ISYMDM(1:NFMAT)                     1
                     1

 ITDIIS, energy, error norm, change in energy, scr.thr., difden:
@ DIIS iter.   5    -360.835057428        3.03683D-02   -1.61D-03  -20    F

 (DIIS_RED) Control Parameters C2DIIS =         F NEVC =    5


 (DIIS_RED) B matrix:

               Column   1     Column   2     Column   3     Column   4     Column   5
       1      14.81725095
       2       1.05222547     0.94480817
       3       0.70818670     0.06567749     0.13998139
       4       0.01969686     0.09714448    -0.00644894     0.01710369
       5       0.01498689     0.01004422     0.00614379     0.00165097     0.00092223
    ==== End of matrix output ====

 DIIS C vector; C2DIIS = F, LAMBDA = -5.43D-04
    0.001871    0.004278   -0.066270   -0.135052    1.195173
* Read MO coefficients from SIRIUS.RST with label "NEWORB  " and header info:  9Dec18  DIIS   5
      Virial theorem: -V/T =      2.003004
@    MULPOP   N      -0.92; H       0.28; H       0.29; H       0.30; O      -0.81; O      -0.64; O      -0.88; O      -0.71; H       0.41; H       0.42; 
@             H       0.40; H       0.25; H       0.40; H       0.50; H       0.36; H       0.36; 

 DIIS Fock eigenvalues in symmetry 1
      -20.57524      -20.53952      -20.53765      -20.52180      -15.51528
       -1.35474       -1.32661       -1.30097       -1.28289       -1.13754
       -0.72385       -0.69629       -0.66788       -0.66229       -0.62637
       -0.60739       -0.59381       -0.56910       -0.55130       -0.54103
       -0.51996       -0.49064       -0.48225       -0.47440       -0.42125
        0.06119        0.08900        0.09725        0.11512        0.12044
        0.12649        0.13481        0.14317        0.16684        0.17365
        0.18469        0.23200        0.23835        0.25883        0.26927
        0.28236        0.28472        0.29284        0.30032        0.31049
        0.32133        0.32481        0.33458        0.33635        0.34457
        0.35076        0.35747        0.36795        0.37844        0.38828
        0.40300        0.40761        0.41418        0.42278        0.43549
        0.43858        0.46787        0.47692        0.49818        0.51471
        0.51778        0.53890        0.68837        0.72230        0.73831
        0.75239        0.76156        0.77172        0.78933        0.80777
        0.81280        0.83591        0.91653        1.06998        1.09957
        1.13808        1.22426        1.23866        1.27098        1.27521
        1.28299        1.28852        1.29794        1.30704        1.31157
        1.33799        1.34283        1.35810        1.39003        1.42812
        1.48382        1.51338        1.55291        1.56029        1.58465
        1.59595        1.61617        1.62361        1.65181        1.68404
        1.69258        1.72232        1.74985        1.77253        1.79951
        1.81913        1.84172        1.86412        1.90784        1.94100
        1.95747        1.95903        1.99272        2.07683        2.11658
        2.29295        2.30646        2.32348        2.34174        2.38588
        2.39123        2.45161        2.48260        2.51248        2.62233
        2.75193        2.79780        2.81027        2.82462        2.88801
        2.89423        2.92217        2.93574        2.95844        2.98132
        3.02012        3.08567        3.11111        3.20849        3.26011
        3.43416        3.45726        3.45953        3.48659        3.50043
        3.52287        3.55143        3.57218        3.57978        3.63084
        3.66748        3.68213        3.68714        3.73143        4.10051
        4.11591        4.14410        4.15272        4.26958        4.33315
        4.33771        4.35134        4.73417        5.24347        5.29003
        5.54192        5.55489        5.57825        5.59643        5.85164
        5.88072        5.89111        5.92643        6.13327        6.17869
        6.20142        6.25534       37.12576       51.56768       51.58125
       51.60733       51.61237
 Time used in FCKEIG, thr_jaco:   2.33D-01  5.90D-02  1.19D-06
 CPU and wall times used in FCKEIG, THR_FCKEIG:   2.33D-01  5.90D-02  3.04D-04
 -----------------------------------------------------------------------------

 *** DIIS iteration number    6
 RDSUPM called. NFMAT, ISYMDM(1:NFMAT)                     1
                     1

 ITDIIS, energy, error norm, change in energy, scr.thr., difden:
@ DIIS iter.   6    -360.835215489        1.09762D-02   -1.58D-04  -20    F

 (DIIS_RED) Control Parameters C2DIIS =         F NEVC =    6


 (DIIS_RED) B matrix:

               Column   1     Column   2     Column   3     Column   4     Column   5     Column   6
       1      14.81725095
       2       1.05222547     0.94480817
       3       0.70818670     0.06567749     0.13998139
       4       0.01969686     0.09714448    -0.00644894     0.01710369
       5       0.01498689     0.01004422     0.00614379     0.00165097     0.00092223
       6      -0.00339271     0.00031272     0.00061351     0.00052963     0.00010499     0.00012048
    ==== End of matrix output ====

 DIIS C vector; C2DIIS = F, LAMBDA = -5.49D-05
    0.000691    0.010673   -0.027260   -0.118098    0.221179    0.912815
* Read MO coefficients from SIRIUS.RST with label "NEWORB  " and header info:  9Dec18  DIIS   6
      Virial theorem: -V/T =      2.003183
@    MULPOP   N      -0.92; H       0.28; H       0.29; H       0.30; O      -0.81; O      -0.65; O      -0.89; O      -0.72; H       0.41; H       0.42; 
@             H       0.40; H       0.25; H       0.40; H       0.50; H       0.37; H       0.36; 

 DIIS Fock eigenvalues in symmetry 1
      -20.57583      -20.53977      -20.53876      -20.52482      -15.52011
       -1.35498       -1.32673       -1.30141       -1.28388       -1.13911
       -0.72433       -0.69666       -0.66894       -0.66304       -0.62769
       -0.60858       -0.59432       -0.56934       -0.55203       -0.54202
       -0.52005       -0.49049       -0.48239       -0.47496       -0.42269
        0.06111        0.08892        0.09720        0.11508        0.12045
        0.12642        0.13478        0.14313        0.16681        0.17359
        0.18466        0.23186        0.23825        0.25878        0.26918
        0.28224        0.28463        0.29279        0.30023        0.31039
        0.32117        0.32466        0.33451        0.33616        0.34448
        0.35069        0.35729        0.36777        0.37836        0.38818
        0.40290        0.40745        0.41407        0.42260        0.43520
        0.43824        0.46761        0.47672        0.49790        0.51440
        0.51754        0.53847        0.68796        0.72199        0.73796
        0.75199        0.76124        0.77152        0.78907        0.80750
        0.81248        0.83569        0.91604        1.06897        1.09858
        1.13718        1.22402        1.23842        1.27064        1.27493
        1.28267        1.28805        1.29740        1.30653        1.31126
        1.33742        1.34229        1.35752        1.38979        1.42741
        1.48312        1.51298        1.55244        1.55995        1.58426
        1.59545        1.61581        1.62308        1.65129        1.68387
        1.69232        1.72186        1.74947        1.77215        1.79910
        1.81864        1.84112        1.86354        1.90731        1.94056
        1.95716        1.95852        1.99195        2.07621        2.11602
        2.29238        2.30539        2.32308        2.34100        2.38552
        2.39022        2.45121        2.48212        2.51218        2.62161
        2.75113        2.79720        2.80987        2.82409        2.88746
        2.89371        2.92177        2.93518        2.95772        2.98013
        3.01913        3.08514        3.10999        3.20772        3.25882
        3.43302        3.45676        3.45904        3.48619        3.49913
        3.52244        3.55066        3.57179        3.57866        3.62952
        3.66615        3.68140        3.68665        3.73120        4.10010
        4.11536        4.14296        4.15245        4.26835        4.33274
        4.33748        4.35084        4.73155        5.24105        5.28756
        5.54047        5.55430        5.57752        5.59624        5.85000
        5.88045        5.89063        5.92573        6.13252        6.17823
        6.19970        6.25507       37.12104       51.56706       51.58016
       51.60507       51.61141
 Time used in FCKEIG, thr_jaco:   1.41D-01  3.60D-02  4.31D-07
 CPU and wall times used in FCKEIG, THR_FCKEIG:   1.41D-01  3.60D-02  1.10D-04
 -----------------------------------------------------------------------------

 *** DIIS iteration number    7
 RDSUPM called. NFMAT, ISYMDM(1:NFMAT)                     1
                     1

 ITDIIS, energy, error norm, change in energy, scr.thr., difden:
@ DIIS iter.   7    -360.835228178        2.84817D-03   -1.27D-05  -20    F

 (DIIS_RED) Control Parameters C2DIIS =         F NEVC =    7


 (DIIS_RED) B matrix:

               Column   1     Column   2     Column   3     Column   4     Column   5     Column   6
       1      14.81725095
       2       1.05222547     0.94480817
       3       0.70818670     0.06567749     0.13998139
       4       0.01969686     0.09714448    -0.00644894     0.01710369
       5       0.01498689     0.01004422     0.00614379     0.00165097     0.00092223
       6      -0.00339271     0.00031272     0.00061351     0.00052963     0.00010499     0.00012048
       7       0.00049677     0.00007258     0.00003700     0.00002657     0.00005219    -0.00000052

               Column   7
       7       0.00000811
    ==== End of matrix output ====

 DIIS C vector; C2DIIS = F, LAMBDA = -2.19D-06
   -0.000274   -0.001419    0.009439    0.024871   -0.147670   -0.009673    1.124727
* Read MO coefficients from SIRIUS.RST with label "NEWORB  " and header info:  9Dec18  DIIS   7
      Virial theorem: -V/T =      2.003140
@    MULPOP   N      -0.92; H       0.28; H       0.29; H       0.30; O      -0.81; O      -0.65; O      -0.89; O      -0.72; H       0.41; H       0.42; 
@             H       0.40; H       0.26; H       0.40; H       0.50; H       0.37; H       0.36; 

 DIIS Fock eigenvalues in symmetry 1
      -20.57596      -20.53984      -20.53872      -20.52422      -15.51933
       -1.35504       -1.32673       -1.30140       -1.28360       -1.13886
       -0.72442       -0.69672       -0.66882       -0.66307       -0.62756
       -0.60848       -0.59442       -0.56942       -0.55208       -0.54186
       -0.52002       -0.49042       -0.48227       -0.47459       -0.42243
        0.06109        0.08889        0.09722        0.11509        0.12046
        0.12640        0.13478        0.14313        0.16681        0.17360
        0.18468        0.23188        0.23825        0.25881        0.26919
        0.28226        0.28465        0.29281        0.30026        0.31041
        0.32121        0.32467        0.33452        0.33614        0.34452
        0.35069        0.35731        0.36780        0.37836        0.38818
        0.40289        0.40746        0.41407        0.42262        0.43523
        0.43827        0.46763        0.47674        0.49792        0.51443
        0.51758        0.53855        0.68802        0.72200        0.73798
        0.75204        0.76122        0.77153        0.78905        0.80750
        0.81258        0.83568        0.91609        1.06911        1.09873
        1.13731        1.22398        1.23842        1.27064        1.27493
        1.28271        1.28812        1.29758        1.30657        1.31132
        1.33749        1.34237        1.35754        1.38983        1.42750
        1.48320        1.51295        1.55247        1.55993        1.58426
        1.59546        1.61580        1.62308        1.65138        1.68386
        1.69232        1.72185        1.74943        1.77217        1.79913
        1.81865        1.84125        1.86360        1.90734        1.94050
        1.95715        1.95852        1.99204        2.07627        2.11609
        2.29230        2.30550        2.32301        2.34107        2.38550
        2.39032        2.45113        2.48206        2.51215        2.62175
        2.75118        2.79721        2.80985        2.82401        2.88746
        2.89370        2.92175        2.93519        2.95772        2.98024
        3.01919        3.08531        3.11012        3.20781        3.25897
        3.43327        3.45673        3.45901        3.48620        3.49930
        3.52239        3.55071        3.57182        3.57886        3.62978
        3.66636        3.68144        3.68662        3.73119        4.10004
        4.11534        4.14321        4.15244        4.26864        4.33271
        4.33747        4.35083        4.73198        5.24140        5.28793
        5.54077        5.55429        5.57756        5.59621        5.85034
        5.88041        5.89058        5.92572        6.13253        6.17815
        6.20007        6.25504       37.12179       51.56694       51.58020
       51.60553       51.61147
 Time used in FCKEIG, thr_jaco:   2.52D-01  6.40D-02  1.12D-07
 CPU and wall times used in FCKEIG, THR_FCKEIG:   2.52D-01  6.40D-02  2.85D-05
 -----------------------------------------------------------------------------

 *** DIIS iteration number    8
 RDSUPM called. NFMAT, ISYMDM(1:NFMAT)                     1
                     1

 ITDIIS, energy, error norm, change in energy, scr.thr., difden:
@ DIIS iter.   8    -360.835229153        5.13595D-04   -9.75D-07  -20    F

 (DIIS_RED) Control Parameters C2DIIS =         F NEVC =    8


 (DIIS_RED) B matrix:

               Column   1     Column   2     Column   3     Column   4     Column   5     Column   6
       1      14.81725095
       2       1.05222547     0.94480817
       3       0.70818670     0.06567749     0.13998139
       4       0.01969686     0.09714448    -0.00644894     0.01710369
       5       0.01498689     0.01004422     0.00614379     0.00165097     0.00092223
       6      -0.00339271     0.00031272     0.00061351     0.00052963     0.00010499     0.00012048
       7       0.00049677     0.00007258     0.00003700     0.00002657     0.00005219    -0.00000052
       8       0.00014129    -0.00001818    -0.00000015     0.00000283     0.00000174     0.00000232

               Column   7     Column   8
       7       0.00000811
       8       0.00000062     0.00000026
    ==== End of matrix output ====

 DIIS C vector; C2DIIS = F, LAMBDA = -1.62D-07
   -0.000003   -0.000055   -0.000425   -0.000206    0.014660   -0.031759   -0.163127    1.180916
* Read MO coefficients from SIRIUS.RST with label "NEWORB  " and header info:  9Dec18  DIIS   8
      Virial theorem: -V/T =      2.003156
@    MULPOP   N      -0.92; H       0.28; H       0.29; H       0.30; O      -0.81; O      -0.65; O      -0.89; O      -0.72; H       0.41; H       0.42; 
@             H       0.40; H       0.26; H       0.40; H       0.50; H       0.37; H       0.36; 

 DIIS Fock eigenvalues in symmetry 1
      -20.57583      -20.53981      -20.53872      -20.52427      -15.51936
       -1.35498       -1.32672       -1.30140       -1.28362       -1.13886
       -0.72437       -0.69670       -0.66883       -0.66307       -0.62757
       -0.60848       -0.59440       -0.56943       -0.55210       -0.54189
       -0.51997       -0.49040       -0.48225       -0.47458       -0.42244
        0.06109        0.08889        0.09722        0.11509        0.12046
        0.12640        0.13478        0.14313        0.16681        0.17360
        0.18468        0.23188        0.23825        0.25881        0.26919
        0.28226        0.28465        0.29281        0.30026        0.31041
        0.32122        0.32467        0.33451        0.33614        0.34453
        0.35069        0.35730        0.36780        0.37836        0.38818
        0.40289        0.40746        0.41407        0.42262        0.43523
        0.43827        0.46763        0.47673        0.49793        0.51443
        0.51758        0.53854        0.68801        0.72201        0.73799
        0.75204        0.76122        0.77153        0.78905        0.80749
        0.81257        0.83568        0.91609        1.06910        1.09872
        1.13731        1.22400        1.23842        1.27065        1.27495
        1.28272        1.28812        1.29758        1.30657        1.31133
        1.33749        1.34237        1.35755        1.38983        1.42750
        1.48320        1.51296        1.55246        1.55993        1.58426
        1.59545        1.61579        1.62309        1.65138        1.68387
        1.69234        1.72185        1.74944        1.77217        1.79913
        1.81864        1.84124        1.86359        1.90734        1.94050
        1.95715        1.95852        1.99203        2.07627        2.11608
        2.29228        2.30550        2.32303        2.34107        2.38551
        2.39031        2.45115        2.48206        2.51215        2.62173
        2.75118        2.79721        2.80985        2.82399        2.88746
        2.89370        2.92175        2.93518        2.95772        2.98023
        3.01918        3.08527        3.11012        3.20780        3.25896
        3.43325        3.45675        3.45903        3.48621        3.49930
        3.52244        3.55071        3.57183        3.57885        3.62976
        3.66635        3.68145        3.68665        3.73120        4.10009
        4.11534        4.14319        4.15245        4.26862        4.33275
        4.33748        4.35085        4.73196        5.24139        5.28792
        5.54076        5.55434        5.57756        5.59623        5.85031
        5.88044        5.89063        5.92573        6.13253        6.17822
        6.20003        6.25506       37.12177       51.56706       51.58021
       51.60550       51.61148
 Time used in FCKEIG, thr_jaco:   1.64D-01  4.10D-02  2.02D-08
 CPU and wall times used in FCKEIG, THR_FCKEIG:   1.64D-01  4.10D-02  5.14D-06
 -----------------------------------------------------------------------------

 *** DIIS iteration number    9
 RDSUPM called. NFMAT, ISYMDM(1:NFMAT)                     1
                     1

 ITDIIS, energy, error norm, change in energy, scr.thr., difden:
@ DIIS iter.   9    -360.835229192        1.66963D-04   -3.88D-08  -20    F

 (DIIS_RED) Control Parameters C2DIIS =         F NEVC =    8


 (DIIS_RED) B matrix:

               Column   1     Column   2     Column   3     Column   4     Column   5     Column   6
       1       0.00000003
       2      -0.00000450     0.94480817
       3       0.00000100     0.06567749     0.13998139
       4       0.00000026     0.09714448    -0.00644894     0.01710369
       5       0.00000039     0.01004422     0.00614379     0.00165097     0.00092223
       6       0.00000012     0.00031272     0.00061351     0.00052963     0.00010499     0.00012048
       7       0.00000017     0.00007258     0.00003700     0.00002657     0.00005219    -0.00000052
       8       0.00000003    -0.00001818    -0.00000015     0.00000283     0.00000174     0.00000232

               Column   7     Column   8
       7       0.00000811
       8       0.00000062     0.00000026
    ==== End of matrix output ====

 DIIS C vector; C2DIIS = F, LAMBDA = -1.89D-08
    0.937030    0.000085   -0.000429   -0.001251    0.008194   -0.003377   -0.075555    0.135302
* Read MO coefficients from SIRIUS.RST with label "NEWORB  " and header info:  9Dec18  DIIS   9
      Virial theorem: -V/T =      2.003157
@    MULPOP   N      -0.92; H       0.28; H       0.29; H       0.30; O      -0.81; O      -0.65; O      -0.89; O      -0.72; H       0.41; H       0.42; 
@             H       0.40; H       0.26; H       0.40; H       0.50; H       0.37; H       0.36; 

 DIIS Fock eigenvalues in symmetry 1
      -20.57591      -20.53982      -20.53872      -20.52424      -15.51937
       -1.35501       -1.32672       -1.30140       -1.28361       -1.13886
       -0.72439       -0.69670       -0.66882       -0.66307       -0.62757
       -0.60849       -0.59443       -0.56944       -0.55211       -0.54189
       -0.51999       -0.49040       -0.48225       -0.47456       -0.42244
        0.06109        0.08889        0.09722        0.11509        0.12046
        0.12640        0.13478        0.14313        0.16681        0.17359
        0.18468        0.23188        0.23825        0.25882        0.26919
        0.28226        0.28464        0.29281        0.30026        0.31041
        0.32122        0.32466        0.33451        0.33613        0.34453
        0.35069        0.35730        0.36780        0.37836        0.38818
        0.40289        0.40746        0.41407        0.42262        0.43523
        0.43827        0.46763        0.47673        0.49793        0.51443
        0.51757        0.53854        0.68801        0.72200        0.73798
        0.75205        0.76121        0.77153        0.78905        0.80749
        0.81257        0.83568        0.91609        1.06910        1.09872
        1.13730        1.22398        1.23842        1.27065        1.27494
        1.28271        1.28812        1.29758        1.30657        1.31133
        1.33749        1.34237        1.35754        1.38983        1.42749
        1.48320        1.51296        1.55246        1.55993        1.58426
        1.59545        1.61579        1.62308        1.65138        1.68387
        1.69233        1.72184        1.74944        1.77217        1.79913
        1.81864        1.84124        1.86359        1.90734        1.94050
        1.95715        1.95851        1.99203        2.07626        2.11608
        2.29228        2.30549        2.32302        2.34107        2.38550
        2.39031        2.45114        2.48206        2.51215        2.62173
        2.75117        2.79721        2.80985        2.82399        2.88746
        2.89370        2.92175        2.93518        2.95772        2.98023
        3.01918        3.08528        3.11011        3.20780        3.25896
        3.43327        3.45674        3.45902        3.48621        3.49929
        3.52241        3.55071        3.57183        3.57886        3.62977
        3.66635        3.68144        3.68663        3.73120        4.10006
        4.11533        4.14320        4.15244        4.26863        4.33273
        4.33748        4.35083        4.73196        5.24139        5.28791
        5.54077        5.55431        5.57755        5.59622        5.85033
        5.88042        5.89060        5.92572        6.13252        6.17818
        6.20005        6.25505       37.12176       51.56698       51.58020
       51.60552       51.61148
 Time used in FCKEIG, thr_jaco:   2.47D-01  6.20D-02  6.56D-09
 CPU and wall times used in FCKEIG, THR_FCKEIG:   2.48D-01  6.20D-02  1.67D-06
 -----------------------------------------------------------------------------

 *** DIIS iteration number   10
 RDSUPM called. NFMAT, ISYMDM(1:NFMAT)                     1
                     1

 ITDIIS, energy, error norm, change in energy, scr.thr., difden:
@ DIIS iter.  10    -360.835229195        6.46707D-05   -2.73D-09  -20    F

 (DIIS_RED) Control Parameters C2DIIS =         F NEVC =    8


 (DIIS_RED) B matrix:

               Column   1     Column   2     Column   3     Column   4     Column   5     Column   6
       1       0.00000003
       2      -0.00000000     0.00000000
       3       0.00000100    -0.00000055     0.13998139
       4       0.00000026    -0.00000031    -0.00644894     0.01710369
       5       0.00000039    -0.00000008     0.00614379     0.00165097     0.00092223
       6       0.00000012     0.00000001     0.00061351     0.00052963     0.00010499     0.00012048
       7       0.00000017     0.00000002     0.00003700     0.00002657     0.00005219    -0.00000052
       8       0.00000003     0.00000002    -0.00000015     0.00000283     0.00000174     0.00000232

               Column   7     Column   8
       7       0.00000811
       8       0.00000062     0.00000026
    ==== End of matrix output ====

 DIIS C vector; C2DIIS = F, LAMBDA = -1.37D-09
    0.173395    0.942693    0.000009   -0.000008   -0.000465    0.002621    0.006434   -0.124681
* Read MO coefficients from SIRIUS.RST with label "NEWORB  " and header info:  9Dec18  DIIS  10
      Virial theorem: -V/T =      2.003157
@    MULPOP   N      -0.92; H       0.28; H       0.29; H       0.30; O      -0.81; O      -0.65; O      -0.89; O      -0.72; H       0.41; H       0.42; 
@             H       0.40; H       0.26; H       0.40; H       0.50; H       0.37; H       0.36; 

 DIIS Fock eigenvalues in symmetry 1
      -20.57588      -20.53982      -20.53872      -20.52425      -15.51936
       -1.35500       -1.32672       -1.30140       -1.28361       -1.13886
       -0.72439       -0.69670       -0.66882       -0.66307       -0.62757
       -0.60849       -0.59442       -0.56944       -0.55211       -0.54189
       -0.51999       -0.49040       -0.48225       -0.47456       -0.42244
        0.06109        0.08889        0.09722        0.11509        0.12046
        0.12640        0.13478        0.14313        0.16681        0.17360
        0.18468        0.23188        0.23825        0.25882        0.26919
        0.28226        0.28464        0.29281        0.30026        0.31041
        0.32122        0.32466        0.33451        0.33614        0.34453
        0.35069        0.35731        0.36780        0.37836        0.38818
        0.40289        0.40746        0.41407        0.42262        0.43523
        0.43827        0.46763        0.47673        0.49793        0.51443
        0.51757        0.53854        0.68801        0.72200        0.73798
        0.75205        0.76122        0.77153        0.78905        0.80749
        0.81257        0.83568        0.91609        1.06910        1.09872
        1.13730        1.22399        1.23842        1.27065        1.27494
        1.28271        1.28813        1.29758        1.30657        1.31133
        1.33749        1.34237        1.35754        1.38983        1.42749
        1.48320        1.51296        1.55246        1.55993        1.58426
        1.59545        1.61579        1.62308        1.65138        1.68387
        1.69233        1.72185        1.74944        1.77217        1.79913
        1.81864        1.84124        1.86359        1.90734        1.94050
        1.95715        1.95851        1.99203        2.07626        2.11608
        2.29228        2.30549        2.32302        2.34107        2.38551
        2.39031        2.45114        2.48206        2.51215        2.62173
        2.75117        2.79721        2.80985        2.82399        2.88746
        2.89370        2.92175        2.93518        2.95772        2.98023
        3.01918        3.08528        3.11011        3.20780        3.25896
        3.43327        3.45674        3.45902        3.48621        3.49930
        3.52242        3.55071        3.57183        3.57886        3.62977
        3.66635        3.68144        3.68663        3.73120        4.10007
        4.11533        4.14320        4.15245        4.26863        4.33273
        4.33748        4.35084        4.73196        5.24139        5.28791
        5.54077        5.55432        5.57756        5.59622        5.85033
        5.88043        5.89061        5.92572        6.13252        6.17819
        6.20005        6.25506       37.12177       51.56701       51.58020
       51.60551       51.61148
 Time used in FCKEIG, thr_jaco:   1.39D-01  3.50D-02  2.54D-09
 CPU and wall times used in FCKEIG, THR_FCKEIG:   1.39D-01  3.50D-02  6.47D-07
 -----------------------------------------------------------------------------

 *** DIIS iteration number   11
 RDSUPM called. NFMAT, ISYMDM(1:NFMAT)                     1
                     1

 ITDIIS, energy, error norm, change in energy, scr.thr., difden:
@ DIIS iter.  11    -360.835229195        1.38642D-05   -3.73D-10  -20    F

 (DIIS_RED) Control Parameters C2DIIS =         F NEVC =    8


 (DIIS_RED) B matrix:

               Column   1     Column   2     Column   3     Column   4     Column   5     Column   6
       1       0.00000003
       2      -0.00000000     0.00000000
       3       0.00000000    -0.00000000     0.00000000
       4       0.00000026    -0.00000031     0.00000014     0.01710369
       5       0.00000039    -0.00000008    -0.00000002     0.00165097     0.00092223
       6       0.00000012     0.00000001     0.00000002     0.00052963     0.00010499     0.00012048
       7       0.00000017     0.00000002    -0.00000000     0.00002657     0.00005219    -0.00000052
       8       0.00000003     0.00000002     0.00000000     0.00000283     0.00000174     0.00000232

               Column   7     Column   8
       7       0.00000811
       8       0.00000062     0.00000026
    ==== End of matrix output ====

 DIIS C vector; C2DIIS = F, LAMBDA = -9.29D-11
   -0.059097    0.038074    1.026304   -0.000006   -0.000124    0.000228    0.003132   -0.008512
* Read MO coefficients from SIRIUS.RST with label "NEWORB  " and header info:  9Dec18  DIIS  11
      Virial theorem: -V/T =      2.003157
@    MULPOP   N      -0.92; H       0.28; H       0.29; H       0.30; O      -0.81; O      -0.65; O      -0.89; O      -0.72; H       0.41; H       0.42; 
@             H       0.40; H       0.26; H       0.40; H       0.50; H       0.37; H       0.36; 

 DIIS Fock eigenvalues in symmetry 1
      -20.57589      -20.53982      -20.53872      -20.52425      -15.51936
[...]
    ==== End of matrix output ====

 Principal values of diagonalized transition strength matrix:

             a.u.               
 1      -0.00000002
 2      -0.00000000
 3       0.00072147

 Principal axis of diagonalized transition strength matrix:


               Column   1     Column   2     Column   3
       1       0.46685894     0.74898940    -0.47016765
       2       0.63076232     0.09061009     0.77066771
       3       0.61982387    -0.65635714    -0.43013216
    ==== End of matrix output ====


 CCSD   oscillator strength matrix for state nr. 13 of symmetry 1
 CCSD  excitation energy:14.97940878


               Column   1     Column   2     Column   3
       1       0.00159263    -0.00261068     0.00145700
       2      -0.00261068     0.00427906    -0.00238840
       3       0.00145700    -0.00238840     0.00133291
    ==== End of matrix output ====

 Principal values of diagonalized oscillator strength matrix:

             a.u.               
 1      -0.00000022
 2       0.00000000
 3       0.00720482

 Principal axis of diagonalized oscillator strength matrix:


               Column   1     Column   2     Column   3
       1       0.46685894     0.74898940    -0.47016765
       2       0.63076232     0.09061009     0.77066771
       3       0.61982387    -0.65635714    -0.43013216
    ==== End of matrix output ====


 CCSD  Transition strength matrix for state nr. 14 of symmetry 1
 CCSD  excitation energy:14.99372504

 Gauge: length

               Column   1     Column   2     Column   3
       1     1.933227D-04  -1.968314D-05   8.526212D-05
       2    -1.968314D-05   1.999714D-06  -8.675500D-06
       3     8.526212D-05  -8.675500D-06   3.759671D-05
    ==== End of matrix output ====

 Principal values of diagonalized transition strength matrix:

             a.u.               
 1      -0.00000001
 2       0.00000000
 3       0.00023293

 Principal axis of diagonalized transition strength matrix:


               Column   1     Column   2     Column   3
       1      -0.36571967    -0.19046989     0.91102708
       2      -0.63181942     0.76954700    -0.09274505
       3       0.68341301     0.60952329     0.40178105
    ==== End of matrix output ====


 CCSD   oscillator strength matrix for state nr. 14 of symmetry 1
 CCSD  excitation energy:14.99372504


               Column   1     Column   2     Column   3
       1       0.00193242    -0.00019675     0.00085226
       2      -0.00019675     0.00001999    -0.00008672
       3       0.00085226    -0.00008672     0.00037581
    ==== End of matrix output ====

 Principal values of diagonalized oscillator strength matrix:

             a.u.               
 1      -0.00000010
 2       0.00000000
 3       0.00232831

 Principal axis of diagonalized oscillator strength matrix:


               Column   1     Column   2     Column   3
       1      -0.36571967    -0.19046989     0.91102708
       2      -0.63181942     0.76954700    -0.09274505
       3       0.68341301     0.60952329     0.40178105
    ==== End of matrix output ====


 CCSD  Transition strength matrix for state nr. 15 of symmetry 1
 CCSD  excitation energy:15.00111831

 Gauge: length

               Column   1     Column   2     Column   3
       1     1.684483D-04  -2.157372D-05   2.280928D-04
       2    -2.157372D-05   2.755409D-06  -2.920258D-05
       3     2.280928D-04  -2.920258D-05   3.088432D-04
    ==== End of matrix output ====

 Principal values of diagonalized transition strength matrix:

             a.u.               
 1      -0.00000001
 2      -0.00000000
 3       0.00048006

 Principal axis of diagonalized transition strength matrix:


               Column   1     Column   2     Column   3
       1       0.55617695    -0.58289664     0.59236703
       2       0.75877932     0.64691650    -0.07584844
       3      -0.33900020     0.49166101     0.80208997
    ==== End of matrix output ====


 CCSD   oscillator strength matrix for state nr. 15 of symmetry 1
 CCSD  excitation energy:15.00111831


               Column   1     Column   2     Column   3
       1       0.00168461    -0.00021575     0.00228110
       2      -0.00021575     0.00002756    -0.00029205
       3       0.00228110    -0.00029205     0.00308866
    ==== End of matrix output ====

 Principal values of diagonalized oscillator strength matrix:

             a.u.               
 1      -0.00000011
 2      -0.00000000
 3       0.00480094

 Principal axis of diagonalized oscillator strength matrix:


               Column   1     Column   2     Column   3
       1       0.55617695    -0.58289664     0.59236703
       2       0.75877932     0.64691650    -0.07584844
       3      -0.33900020     0.49166101     0.80208997
    ==== End of matrix output ====

  Total time for    135 linear response residues:      26.62 seconds.
  

 *******************************************************************************
 *******************************************************************************
 *                                                                             *
 *                                                                             *
 *                   SUMMARY OF COUPLED CLUSTER CALCULATION                    *
 *                                                                             *
 *                                                                             *
 *******************************************************************************
 *******************************************************************************

                                                                                
                                                                                
            Total SCF   energy:                  -360.8352291949                
            Total MP2   energy:                  -361.9576731225                
            Total CCSD  energy:                  -361.9924809456                
                                                                                
                                                                                
            Total SCF   energy:                  -360.8352291949                
            Total RSTAR energy:                  -361.9924809456                
            Total CCSD  energy:                  -361.9925648974                
                                                                                
                                                                                
            Total SCF   energy:                  -360.8352291949                
            Total RSTAR energy:                  -361.9925648974                
            Total CCSD  energy:                  -361.9925693954                
                                                                                
                                                                                
            Total SCF   energy:                  -360.8352291949                
            Total RSTAR energy:                  -361.9925693954                
            Total CCSD  energy:                  -361.9925696863                
                                                                                
                                                                                
            Total SCF   energy:                  -360.8352291949                
            Total RSTAR energy:                  -361.9925696863                
            Total CCSD  energy:                  -361.9925697068                
                                                                                
                                                                                
            Total SCF   energy:                  -360.8352291949                
            Total RSTAR energy:                  -361.9925697068                
            Total CCSD  energy:                  -361.9925697083                
            CCSD Total  energy:                  -362.4583981499                
            CCSD E(PE-CC)     :                    -0.4601015027                
                                                                                
                                                                                
 +=============================================================================+
 |  sym. | Exci.  |        CCSD       Excitation energies            | ||T1||  |
 |(spin, |        +------------------------------------------------------------+
 | spat) |        |     Hartree    |       eV.      |     cm-1       |    %    |
 +=============================================================================+
 | ^1A   |    1   |    14.8069878  |     402.91863  |   3249758.161  |  88.29  |
 | ^1A   |    2   |    14.8611527  |     404.39254  |   3261645.981  |  88.55  |
 | ^1A   |    3   |    14.8764968  |     404.81007  |   3265013.622  |  88.42  |
 | ^1A   |    4   |    14.8806541  |     404.92320  |   3265926.037  |  88.29  |
 | ^1A   |    5   |    14.9099684  |     405.72088  |   3272359.794  |  88.20  |
 | ^1A   |    6   |    14.9190351  |     405.96760  |   3274349.707  |  88.14  |
 | ^1A   |    7   |    14.9229063  |     406.07294  |   3275199.327  |  88.27  |
 | ^1A   |    8   |    14.9331318  |     406.35119  |   3277443.565  |  88.13  |
 | ^1A   |    9   |    14.9492378  |     406.78945  |   3280978.420  |  88.18  |
 | ^1A   |   10   |    14.9509329  |     406.83558  |   3281350.464  |  88.35  |
 | ^1A   |   11   |    14.9560988  |     406.97615  |   3282484.237  |  88.20  |
 | ^1A   |   12   |    14.9588022  |     407.04971  |   3283077.561  |  88.24  |
 | ^1A   |   13   |    14.9794088  |     407.61045  |   3287600.189  |  88.29  |
 | ^1A   |   14   |    14.9937250  |     408.00001  |   3290742.246  |  88.20  |
 | ^1A   |   15   |    15.0011183  |     408.20119  |   3292364.881  |  88.26  |
 +=============================================================================+
                                                                                
                                                                                
     Total energies in Hartree:                                                 
             1 ^1A       -347.1913088396                                        
             2 ^1A       -347.1371439423                                        
             3 ^1A       -347.1217998431                                        
             4 ^1A       -347.1176425741                                        
             5 ^1A       -347.0883282193                                        
             6 ^1A       -347.0792615116                                        
             7 ^1A       -347.0753903556                                        
             8 ^1A       -347.0651648533                                        
             9 ^1A       -347.0490588699                                        
            10 ^1A       -347.0473637145                                        
            11 ^1A       -347.0421978614                                        
            12 ^1A       -347.0394944805                                        
            13 ^1A       -347.0188878695                                        
            14 ^1A       -347.0045716040                                        
            15 ^1A       -346.9971783375                                        
                                                                                
                                                                                
 +=============================================================================+
 |  sym. | Exci.  |        CCSD       Length   Gauge Oscillator Strength       |
 |(spin, |        +------------------------------------------------------------+
 | spat) |        | Dipole Strength(a.u.) | Oscillator strength  | Direction   |
 +=============================================================================+
 | ^1A   |    1   |        0.0003639      |      0.0035924       |  (Y,Z)      |
 | ^1A   |    2   |        0.0017814      |      0.0176496       |  (Y,Z)      |
 | ^1A   |    3   |        0.0009703      |      0.0096234       |  (Y,Z)      |
 | ^1A   |    4   |        0.0007723      |      0.0076611       |  (Y,Z)      |
 | ^1A   |    5   |        0.0003007      |      0.0029890       |  (Y,Z)      |
 | ^1A   |    6   |        0.0006130      |      0.0060964       |  (Y,Z)      |
 | ^1A   |    7   |        0.0008425      |      0.0083815       |  (Y,Z)      |
 | ^1A   |    8   |        0.0001250      |      0.0012443       |  (Y,Z)      |
 | ^1A   |    9   |        0.0004238      |      0.0042242       |  (Y,Z)      |
 | ^1A   |   10   |        0.0011060      |      0.0110236       |  (Y,Z)      |
 | ^1A   |   11   |        0.0002458      |      0.0024513       |  (Y,Z)      |
 | ^1A   |   12   |        0.0000702      |      0.0006998       |  (Y,Z)      |
 | ^1A   |   13   |        0.0007215      |      0.0072046       |  (Y,Z)      |
 | ^1A   |   14   |        0.0002329      |      0.0023282       |  (Y,Z)      |
 | ^1A   |   15   |        0.0004800      |      0.0048008       |  (Y,Z)      |
 +=============================================================================+

  1 a.u. =        27.21138 eV.  
  1 a.u. =    219474.62934 cm-1.
  

 *******************************************************************************
 *******************************************************************************
 *                                                                             *
 *                                                                             *
 *                      END OF COUPLED CLUSTER CALCULATION                     *
 *                                                                             *
 *                                                                             *
 *******************************************************************************
 *******************************************************************************


 CPU and wall time for CC :  451534.458  158960.580

 
     Date and time (Linux)  : Tue Dec 11 08:31:05 2018
     Host name              : s71p21.deic.sdu.dk                      


                      .-------------------------------------.
                      | End of Coupled Cluster Section (CC) |
                      `-------------------------------------'

  Total CPU  time used in DALTON: 125 hours 31 minutes 12 seconds
  Total wall time used in DALTON:  44 hours 12 minutes  3 seconds

 
     Date and time (Linux)  : Tue Dec 11 08:31:05 2018
     Host name              : s71p21.deic.sdu.dk                      
  

 +---------------------------------------------------------+ 
 | List of selected calculated molecular properties (a.u.) | 
 +---------------------------------------------------------+ 

  Properties are read from unit number                      4

 CCSD       properties :
 #  1 1 PE-CCSD  Ground state Energy =    -362.4583981499
 #  2 1 E(PE-CC) Ground state Energy =      -0.4601015027
 #  3 1 Sy: 1 Sp: 1 Exc:  1 E_tot:   -347.1913088396 w:     14.8069878076 E_grs:   -361.9982966472
 #  4 1 Exctot   Excited state Energy =    -347.1913088396
 #  5 1 Sy: 1 Sp: 1 Exc:  2 E_tot:   -347.1371439423 w:     14.8611527049 E_grs:   -361.9982966472
 #  6 1 Exctot   Excited state Energy =    -347.1371439423
 #  7 1 Sy: 1 Sp: 1 Exc:  3 E_tot:   -347.1217998431 w:     14.8764968041 E_grs:   -361.9982966472
 #  8 1 Exctot   Excited state Energy =    -347.1217998431
 #  9 1 Sy: 1 Sp: 1 Exc:  4 E_tot:   -347.1176425741 w:     14.8806540731 E_grs:   -361.9982966472
 # 10 1 Exctot   Excited state Energy =    -347.1176425741
 # 11 1 Sy: 1 Sp: 1 Exc:  5 E_tot:   -347.0883282193 w:     14.9099684279 E_grs:   -361.9982966472
 # 12 1 Exctot   Excited state Energy =    -347.0883282193
 # 13 1 Sy: 1 Sp: 1 Exc:  6 E_tot:   -347.0792615116 w:     14.9190351357 E_grs:   -361.9982966472
 # 14 1 Exctot   Excited state Energy =    -347.0792615116
 # 15 1 Sy: 1 Sp: 1 Exc:  7 E_tot:   -347.0753903556 w:     14.9229062916 E_grs:   -361.9982966472
 # 16 1 Exctot   Excited state Energy =    -347.0753903556
 # 17 1 Sy: 1 Sp: 1 Exc:  8 E_tot:   -347.0651648533 w:     14.9331317939 E_grs:   -361.9982966472
 # 18 1 Exctot   Excited state Energy =    -347.0651648533
 # 19 1 Sy: 1 Sp: 1 Exc:  9 E_tot:   -347.0490588699 w:     14.9492377773 E_grs:   -361.9982966472
 # 20 1 Exctot   Excited state Energy =    -347.0490588699
 # 21 1 Sy: 1 Sp: 1 Exc: 10 E_tot:   -347.0473637145 w:     14.9509329327 E_grs:   -361.9982966472
 # 22 1 Exctot   Excited state Energy =    -347.0473637145
 # 23 1 Sy: 1 Sp: 1 Exc: 11 E_tot:   -347.0421978614 w:     14.9560987858 E_grs:   -361.9982966472
 # 24 1 Exctot   Excited state Energy =    -347.0421978614
 # 25 1 Sy: 1 Sp: 1 Exc: 12 E_tot:   -347.0394944805 w:     14.9588021667 E_grs:   -361.9982966472
 # 26 1 Exctot   Excited state Energy =    -347.0394944805
 # 27 1 Sy: 1 Sp: 1 Exc: 13 E_tot:   -347.0188878695 w:     14.9794087777 E_grs:   -361.9982966472
 # 28 1 Exctot   Excited state Energy =    -347.0188878695
 # 29 1 Sy: 1 Sp: 1 Exc: 14 E_tot:   -347.0045716040 w:     14.9937250433 E_grs:   -361.9982966472
 # 30 1 Exctot   Excited state Energy =    -347.0045716040
 # 31 1 Sy: 1 Sp: 1 Exc: 15 E_tot:   -346.9971783375 w:     15.0011183097 E_grs:   -361.9982966472
 # 32 1 Exctot   Excited state Energy =    -346.9971783375
 # 33 1 |<O|XDIPLEN |i(14.806988)>| =     0.00789843
 # 35 1 |<O|XDIPLEN |i(14.861153)>| =     0.01959272
 # 37 1 |<O|XDIPLEN |i(14.876497)>| =     0.02456899
 # 39 1 |<O|XDIPLEN |i(14.880654)>| =     0.01428939
 # 41 1 |<O|XDIPLEN |i(14.909968)>| =     0.00582757
 # 43 1 |<O|XDIPLEN |i(14.919035)>| =     0.02441165
 # 45 1 |<O|XDIPLEN |i(14.922906)>| =     0.02450740
 # 47 1 |<O|XDIPLEN |i(14.933132)>| =     0.00973971
 # 49 1 |<O|XDIPLEN |i(14.949238)>| =     0.00349795
 # 51 1 |<O|XDIPLEN |i(14.950933)>| =     0.01652921
 # 53 1 |<O|XDIPLEN |i(14.956099)>| =     0.00024881
 # 55 1 |<O|XDIPLEN |i(14.958802)>| =     0.00751608
 # 57 1 |<O|XDIPLEN |i(14.979409)>| =     0.01262862
 # 59 1 |<O|XDIPLEN |i(14.993725)>| =     0.01390405
 # 61 1 |<O|XDIPLEN |i(15.001118)>| =     0.01297876
 # 63 1 |<O|YDIPLEN |i(14.806988)>| =     0.01499838
 # 65 1 |<O|YDIPLEN |i(14.861153)>| =     0.00787589
 # 67 1 |<O|YDIPLEN |i(14.876497)>| =     0.00750418
 # 69 1 |<O|YDIPLEN |i(14.880654)>| =     0.02359096
 # 71 1 |<O|YDIPLEN |i(14.909968)>| =     0.01133700
 # 73 1 |<O|YDIPLEN |i(14.919035)>| =     0.00070842
 # 75 1 |<O|YDIPLEN |i(14.922906)>| =     0.01545108
 # 77 1 |<O|YDIPLEN |i(14.933132)>| =     0.00494507
 # 79 1 |<O|YDIPLEN |i(14.949238)>| =     0.00241473
 # 81 1 |<O|YDIPLEN |i(14.950933)>| =     0.01814331
 # 83 1 |<O|YDIPLEN |i(14.956099)>| =     0.00380658
 # 85 1 |<O|YDIPLEN |i(14.958802)>| =     0.00369896
 # 87 1 |<O|YDIPLEN |i(14.979409)>| =     0.02070010
 # 89 1 |<O|YDIPLEN |i(14.993725)>| =     0.00141411
 # 91 1 |<O|YDIPLEN |i(15.001118)>| =     0.00165994
 # 93 1 |<O|ZDIPLEN |i(14.806988)>| =     0.00875132
 # 95 1 |<O|ZDIPLEN |i(14.861153)>| =     0.03654506
 # 97 1 |<O|ZDIPLEN |i(14.876497)>| =     0.01761778
 # 99 1 |<O|ZDIPLEN |i(14.880654)>| =     0.00339576
 #101 1 |<O|ZDIPLEN |i(14.909968)>| =     0.01175654
 #103 1 |<O|ZDIPLEN |i(14.919035)>| =     0.00406443
 #105 1 |<O|ZDIPLEN |i(14.922906)>| =     0.00176843
 #107 1 |<O|ZDIPLEN |i(14.933132)>| =     0.00238129
 #109 1 |<O|ZDIPLEN |i(14.949238)>| =     0.02014406
 #111 1 |<O|ZDIPLEN |i(14.950933)>| =     0.02244055
 #113 1 |<O|ZDIPLEN |i(14.956099)>| =     0.01520839
 #115 1 |<O|ZDIPLEN |i(14.958802)>| =    -0.00006383
 #117 1 |<O|ZDIPLEN |i(14.979409)>| =     0.01155309
 #119 1 |<O|ZDIPLEN |i(14.993725)>| =     0.00613162
 #121 1 |<O|ZDIPLEN |i(15.001118)>| =     0.01757394

 THE_END   
