     194
 CELL 12.4294 12.4294 12.4294 90.0 90.0 90.0 i =    37620, time =    18810.000, E =     -1097.1258613317
  O        -3.7263524031        3.3801687110        8.7659247156
  H        -4.3038656419        3.3690114189        7.9578333334
  H        -2.7721126751        3.3092449607        8.5606154681
  O         3.2705364306       -8.6379646034        6.7181231718
  H         3.4814294970       -7.8700714952        6.1319657584
  H         3.9067019496       -8.5292183763        7.5272146188
  O        -1.0056490327       -9.4405522636        8.5300182300
  H        -0.3771342593       -8.7043438044        8.2425606235
  H        -0.4027093552      -10.2819957805        8.7923091291
  O        -5.8482045633       -0.2915014567       11.2593870655
  H        -6.3339941752       -1.1855324418       11.1252547649
  H        -6.6719793306        0.3999159313       11.3191177027
  O       -13.7767858586       -6.2892841206        9.4270172780
  H       -13.4838447026       -5.8280840795       10.2860047003
  H       -12.9001122892       -6.5704626405        9.1300995726
  O         2.1303035718       -3.9092118087       16.8420759152
  H         2.0432290603       -3.0337367779       17.3589137484
  H         1.6732365025       -3.7965402676       16.0031865251
  O        -1.3187148297        3.4242877740       -1.0732156571
  H        -0.6283031958        4.1059373772       -0.8340834205
  H        -1.2309892288        3.3423622712       -2.0587022392
  O         0.8279129794        4.6239686559        7.4273343569
  H         1.6814465590        4.1675416420        7.1673603592
  H         0.7978779023        5.4130338910        6.8484882176
  O        -4.0839892357       -4.3184056389        1.6068153111
  H        -4.7930425975       -4.8311321440        1.1711706364
  H        -4.5881169376       -4.0612324586        2.4123261645
  O        -0.2213695722       -0.3809712150        4.1035277734
  H        -0.9074046563       -0.7126240425        4.8200119310
  H         0.0448042726       -1.2291031061        3.6737903228
  O         1.5866133133       -5.1068021207        0.5196832611
  H         2.4082932065       -4.5404453343        0.2539523921
  H         1.9095723996       -5.7242117901        1.1725862518
  O        -4.6235164771        3.5762980715        4.3135390783
  H        -4.0561347237        4.2850911476        3.8619979168
  H        -4.0291051651        3.0872617327        4.8835571192
  O        -8.1504669905        1.5267050509       11.0793358844
  H        -9.0316067351        1.6210145432       11.5354736435
  H        -7.6140456449        2.3063386407       11.3085123254
  O         0.5045807841       -5.6797197142        5.6809864551
  H         1.0603749444       -5.0082838726        5.1856377134
  H         0.0628814487       -5.1507470264        6.3869185581
  O        -2.1729925438       -0.9631384927        5.8402596059
  H        -2.3082715124       -1.9333569256        5.6674991269
  H        -1.8319795883       -0.9030348101        6.7933478052
  O         2.9640685591       -0.1438759641        9.2836114766
  H         3.6756563795       -0.5045524169        8.6865303259
  H         3.5323251233        0.3787024041        9.8831063756
  O         2.1544111987       -1.5646320663        5.9836075310
  H         1.4716127265       -1.0571715632        6.3330585490
  H         2.6546445420       -0.9433759303        5.4497296874
  O         1.0609068381        4.4716195684       12.2983349043
  H         1.5135877290        4.8795427038       11.5263419093
  H         1.5827571036        4.7689707060       13.1007488108
  O         0.2290700393        4.4811052954        4.0527638734
  H         0.1007210023        3.7815420297        4.7707947305
  H         0.3315393782        5.3340030194        4.6543518089
  O        -4.9233260188       -7.2866072970       10.8092227864
  H        -4.3512694750       -6.9533012608       11.6025128149
  H        -4.2797412178       -7.7235423716       10.2209302543
  O         1.8643754596        1.6386919060       -0.3126187184
  H         1.6473853804        1.4962643300        0.6724075705
  H         1.6142016001        2.5869394050       -0.3500297493
  O        -3.4749515495        7.1585751506        7.8104480721
  H        -2.8003481805        6.6925436345        8.3790556389
  H        -4.0544845048        6.4488020865        7.4332412900
  O         3.5228150025       -1.4119548611       13.8879217978
  H         3.0048628988       -1.5022884697       13.0112883222
  H         4.4118725941       -1.0633420304       13.6769216824
  O        -3.5246577832       -1.8832082985        0.5631132017
  H        -3.1281645993       -1.3094797342        1.2415026695
  H        -3.5633638741       -2.7761589754        0.9483179134
  O        -5.6445418708        2.2204817822        2.2481999522
  H        -5.3889006288        1.2603168438        2.2485145672
  H        -5.0785158453        2.5839678164        3.0461115383
  O         3.6487021882       -3.0574776293        8.1695414759
  H         4.3153967195       -3.6939844254        7.7324006060
  H         3.4348409269       -2.4358027451        7.4548267235
  O         6.2690041491       -6.7762616795        6.7750778123
  H         6.0187992452       -6.9499717192        7.7196858518
  H         6.3781996991       -7.6369879838        6.3439739330
  O         2.0385854852       -1.7022479199       11.4392957315
  H         1.4002647471       -1.1367927264       11.9020684799
  H         2.3269816121       -1.2183014099       10.6333804678
  O        -5.4372652604       -3.1459071646        3.9115106794
  H        -6.1942350807       -3.7068776290        4.1783092580
  H        -4.7086016212       -3.2281470059        4.5928555794
  O        -0.7583788896       -4.9837693826       11.7211453548
  H         0.0905958571       -4.9863881391       12.2412193484
  H        -1.2137681387       -4.0834481131       11.7390771225
  O        -6.8278145953       -0.2280953086        7.8406026099
  H        -6.8533917445       -0.6731700814        6.9727872744
  H        -6.3344523806       -0.9316546941        8.3887367173
  O        -1.9030371027        1.0511143520       12.2066344944
  H        -1.4289353333        1.9000220638       12.0791591025
  H        -2.3494645909        1.1088710150       13.0693001763
  O        -1.5141398723       -4.7991856095        3.6699365743
  H        -2.2335322784       -5.3416544753        3.2498357696
  H        -0.9235313799       -5.3812568162        4.1976640011
  O        -4.2842060693        0.8805175089        4.8255093929
  H        -5.0268600098        0.2313436981        4.7018869698
  H        -3.6653118223        0.3001150130        5.3754496300
  O         9.7193989624        0.0731532627        2.5027914066
  H         9.2193640811        0.4140255422        3.3149787306
  H        10.6330307604       -0.0067299314        2.8133628503
  O         5.7137390708        3.8454868520        0.1446204125
  H         6.1143188025        3.2412137140        0.8742985505
  H         6.4521123760        4.1699870519       -0.4411356872
  O         4.1277727948       -3.9557997833       12.9821455837
  H         4.6671643829       -3.5773275961       12.2563374168
  H         3.9763297436       -3.2483746064       13.6586954173
  O         4.7132500035       -4.4947101214        5.5605051034
  H         3.9464540961       -4.5017783522        4.9803817279
  H         5.0527930620       -5.3893630052        5.6835074032
  O        -0.0224486154       -2.9033581392       14.8346501153
  H         0.4354529682       -3.4020304599       14.1534160175
  H        -0.7148965927       -3.4949166112       15.2599815867
  O         4.1077431780       -7.0252784567        3.9227715999
  H         4.4924933969       -7.9335364174        3.9597110769
  H         4.6994204328       -6.5757011058        3.2360918384
  O        -7.1509167993       -2.6947516480       -1.7368455356
  H        -6.3925116303       -3.2490807415       -2.1000759551
  H        -7.8131427497       -2.7486080269       -2.4793285556
  O         0.6247392272        1.9421794042       14.8018561903
  H         0.0622018850        1.2401298893       15.1480978577
  H         0.1972364746        2.8207237699       14.9654644939
  O         0.0067229940       -0.8246159042       13.0881817533
  H        -0.2156999268       -1.5785767874       13.7369487307
  H        -0.6451092469       -0.0854173120       13.1405313124
  O        -2.6259343556        5.0092895869        2.9544097092
  H        -2.6945548916        4.8644808485        1.9300825003
  H        -1.8067913281        4.6073454388        3.1914444007
  O         0.3788443327        0.8339302547        9.5200524330
  H         0.4448132652        1.0984112228       10.4510578786
  H         1.3077574289        0.6061161515        9.1824099566
  O         4.8354705385        2.5236536961        4.1746243280
  H         5.3918826913        2.5915463438        3.3450404310
  H         5.3765154841        2.7610994210        4.9318021580
  O         3.4819766840        0.2151557597        4.1121332438
  H         3.8622526724        1.1681583849        4.0701143743
  H         3.1790845324       -0.1205904569        3.2132879387
  O         1.1862499608        1.4458692030        5.9047817761
  H         1.3014185189        1.0197690105        4.9980140773
  H         1.8137809839        2.2112928677        5.8587782842
  O        -2.7270163251        5.2182937409       12.6002233377
  H        -2.1283696733        5.9101297929       12.3790022583
  H        -2.3971087738        4.4199921293       12.0038376625
  O        -5.8161280805        2.3828045542        6.7267538651
  H        -5.3934699719        2.0370393073        5.9014704154
  H        -6.1130282947        1.5274246192        7.2242576583
  O         6.5680158137       -0.8576195289        1.8399344287
  H         6.7681337074       -1.6786786062        2.3596910295
  H         7.0787228275       -0.8072874856        1.0534334606
  O        -3.1278512614       -3.7018389281        5.6303480666
  H        -3.1498837912       -4.2352106278        6.4452284460
  H        -2.6872615836       -4.1969037537        4.9001484250
  O        -6.4927813227       -0.8382511490        4.7699557935
  H        -6.2541888852       -1.5812378457        4.2305376698
  H        -7.3149077001       -0.4464578213        4.3511836258
  O        -1.7673667361        2.2214796939        5.4216972105
  H        -1.0991377508        2.2300646190        6.2149871188
  H        -1.5557674561        1.3495969640        4.9323947280
  O         2.0086132180        5.3004552018        2.2968939848
  H         2.8132621370        5.1672982157        2.8813928165
  H         1.3329490315        4.8573133363        2.8893544303
  O        -0.5802328467       -3.7130514554        7.5722645920
  H        -1.2311775175       -4.0944834108        8.1473044451
  H         0.0312593506       -3.4595520627        8.3470472466
  O        -1.5882299492       -2.3385250440       11.2354414075
  H        -0.9822132267       -1.6971184526       11.6463614013
  H        -2.4080229520       -2.2780704557       11.8102864870
  O       -11.1089847499       -3.7032074978        9.5869230758
  H       -10.3625158266       -3.4809567081        8.9836076695
  H       -10.9726897937       -3.0886492208       10.3355668460
  O         4.3936564188        4.8517054621        9.2161049433
  H         4.9268019243        4.4886647146        9.9107974445
  H         3.6249583596        5.3661190756        9.6598613198
  O        -1.7652646000       -0.4845167885        8.5196696062
  H        -1.4968857347       -1.2333874455        9.0786838828
  H        -0.9115966305        0.1109668212        8.5724799006
  O         5.9176466233       -6.0502355062        1.5634713281
  H         6.0519880316       -6.9222905026        1.0577104547
  H         5.2722644764       -5.5820389592        1.0731000118
  O       -10.5999263750       -6.6356617582       -2.4007767004
  H       -10.9168829491       -6.9443161095       -3.2705112336
  H       -10.7580732552       -5.6069605674       -2.3806828441
  O        -5.5171918748       -4.5651280309       -2.9669716019
  H        -5.3515868436       -5.2989921980       -2.3708600959
  H        -4.7650012516       -4.4854869051       -3.5771296139
  N        -3.6368354726        0.7770161050       10.1018796059
  H        -3.8033964248        1.7575722511        9.6999526368
  H        -3.1633591455        0.1090334781        9.3998648969
  H        -4.6240928343        0.3344189441       10.3633785645
  H        -3.1021466638        0.7645562034       11.0290763377
