     194
 CELL 12.4294 12.4294 12.4294 90.0 90.0 90.0 i =   100420, time =    50210.000, E =     -1097.1050446646
  O        22.0662408368       -2.0472614115       15.9771933218
  H        22.4219890497       -2.7856063700       16.5711716592
  H        21.2492770325       -1.7333245638       16.4716949981
  O        26.5464120480      -10.9348018077       10.2379958366
  H        26.7298713223      -10.5956206285       11.1385805218
  H        26.7409053735      -11.9236262340       10.1794117643
  O        24.5181843119      -11.9544244588       17.7721610190
  H        25.4105296446      -11.3997420861       17.4711710355
  H        24.1054415891      -12.2117016490       16.9102705841
  O        20.5598374806       -3.6517778978       14.2245742970
  H        20.9998359269       -3.1585296223       14.9977253562
  H        21.0667706017       -3.3292735116       13.4579402707
  O        14.1136280007      -10.6787522883       16.5931245655
  H        14.9441463274      -10.4488167383       17.0792579803
  H        14.4466174657      -11.2917665644       15.8948319566
  O        30.4805458224       -8.8159565193       24.8617458908
  H        30.5690248226       -7.8273554494       24.9669607299
  H        30.2630968673       -9.0041232537       23.9094710482
  O        21.9507511023        1.1428867451        6.3466954156
  H        21.7128563637        2.1111240276        6.3016818944
  H        22.8959027558        1.0764437165        6.0317425529
  O        27.0633413083       -0.4648942292       14.8977874656
  H        27.5197093500       -1.2075269375       15.2940273745
  H        26.0672691785       -0.7058525644       14.7935902950
  O        21.7097785460       -6.0755620021        7.1519980097
  H        20.7695451914       -5.8028759169        7.0657132619
  H        22.0137944617       -5.9981024213        8.0454722757
  O        24.4800251557       -5.3494173983       12.6023752462
  H        25.1391838392       -6.0918342439       12.6000116629
  H        25.0705031617       -4.5666428727       12.8856789241
  O        24.2419858455       -7.5626274283        7.8361807377
  H        24.9223353208       -7.6402669649        7.0983331963
  H        24.1385911972       -8.4752242538        8.2682264097
  O        19.2518172491       -2.1924677642       10.6317654723
  H        18.5905273775       -1.5240480193       11.0197607135
  H        20.1367844016       -1.9547343146       11.0055610626
  O        17.0749186858       -1.8301158881       16.3996398918
  H        16.6856342460       -1.9371453737       17.3927276734
  H        17.5003028274       -0.9549753467       16.2481234211
  O        27.6764307191      -11.5610352112       12.6892527651
  H        28.0680443600      -10.7397358033       13.1273697864
  H        27.3828172015      -12.1377590722       13.4490839618
  O        22.2922609691       -6.2057300308       14.4125388676
  H        22.8371672143       -5.8308107184       13.7411938894
  H        21.5849123794       -5.4737749671       14.5234597327
  O        30.6773974604       -2.1573251184       13.7918770326
  H        31.3604970096       -2.7933054019       14.1400513238
  H        29.9355524437       -2.2186421803       14.4351743600
  O        30.5062289144       -6.1887249375       16.7624218710
  H        30.2927007221       -5.3871460896       16.1845305632
  H        30.9788854640       -5.8952523690       17.6331427444
  O        28.7016184368        1.6825654120       18.3554817344
  H        28.3893880523        1.9846126694       19.2743270337
  H        28.9457321865        0.7078246977       18.4064021641
  O        25.7240508064        5.9584280686       10.0549716789
  H        25.1038411096        5.3633917265        9.4706503446
  H        25.8702142670        5.5664737461       10.9956687983
  O        18.2233261431      -11.5155370214       16.0718535425
  H        18.4007134466      -10.8811615710       16.7499659998
  H        17.8733312978      -10.9987268427       15.2416319278
  O        29.0336909514       -1.8710217005        6.6226883546
  H        28.3647688309       -1.6873639698        7.3875668593
  H        29.9036139897       -2.0919636845        7.0792558528
  O        23.3473684267        1.2821639914       14.3169574713
  H        22.7567373120        1.3903500618       13.5719673662
  H        23.9668451431        0.5955732632       14.0359721163
  O        30.0512286476       -4.4926982835       23.1467701263
  H        30.7187633331       -3.7675688581       23.1588966416
  H        30.2158245943       -5.0918892565       22.3038410530
  O        23.0952727664       -3.7849410018        5.7112033136
  H        22.8390725999       -4.6350179032        6.0180578782
  H        22.5208304294       -3.1845136762        6.2698957584
  O        22.6395343144       -2.9372623361        8.5075770817
  H        22.6668527882       -3.5142528294        9.3277213264
  H        21.6773229032       -2.7143786681        8.4637550671
  O        28.2025979162       -7.7026531813       16.0684130085
  H        29.0427681595       -7.4685498259       16.5620879671
  H        28.0923807230       -6.9054774691       15.4742994396
  O        31.5399920541      -11.9809741297       13.0623338289
  H        31.9226642356      -11.3455234856       13.7777188224
  H        31.2412083588      -12.7416917375       13.5827229143
  O        30.2292695605       -6.3603913158       21.1882929530
  H        30.8214707319       -7.1203152149       21.2845742407
  H        29.3590404991       -6.7434123392       21.1768740620
  O        20.7399804305       -6.4062463998       10.3715879864
  H        20.2559085025       -7.0611249161        9.8080748515
  H        20.6986736659       -6.8106825925       11.2286953060
  O        19.7647020093       -8.5351012386       16.4620490124
  H        19.9831651140       -8.9248214401       15.5903938710
  H        19.2495979209       -7.6360889923       16.2461474778
  O        18.2103957499       -5.8807688427       12.7860050582
  H        17.9330851535       -5.5577835033       11.8888136796
  H        18.7496931635       -5.1276515899       13.1741508685
  O        25.2408333451       -3.9342303066       21.1414626848
  H        25.2186949485       -4.7797951693       21.6565080615
  H        24.3708281572       -3.9117789511       20.7205471281
  O        26.1413823384       -7.5876265569       12.6424790984
  H        26.8905319338       -7.1373166365       13.0038682452
  H        25.8580382471       -8.1459285137       13.3805565294
  O        22.9386710073       -4.8925127801       10.3094566973
  H        22.2203043396       -5.5828055738       10.3830020275
  H        23.6364549230       -5.0544117572       10.9949395410
  O        36.0139968818       -0.4355066667       11.3569741993
  H        36.4774769354       -0.3660643521       10.5272479598
  H        35.1422701658        0.0893334435       11.2510604954
  O        31.3964569720        2.3597771041        6.2770146382
  H        30.3867818261        2.4302111620        6.0794811483
  H        31.8473481527        2.9782993026        5.6724980732
  O        31.5548776909       -5.3999815446       18.9930574849
  H        30.9723080874       -5.6349710257       19.7551281616
  H        31.6589694027       -4.4413620994       18.8905587603
  O        30.5594229227      -10.1838488122        9.7896151857
  H        29.8128840740       -9.9599270269        9.1661086754
  H        30.3642183043      -11.1245281186       10.1499246812
  O        27.7260699021       -6.9987017161       20.7442636483
  H        27.0214905486       -6.7441022669       21.3859771152
  H        27.5111443977       -6.8128963869       19.8082607563
  O        28.0420701392       -9.7535815365        8.1211151105
  H        27.4174098853      -10.2307303658        8.7698079176
  H        27.8655194794       -8.8049372907        8.2442442213
  O        19.4287846177       -3.0240676648        5.1613387733
  H        18.5198872105       -2.8630874028        4.7417227006
  H        19.6124688771       -2.1375260091        5.5098547631
  O        26.3484641569       -3.5763125605       26.0261218660
  H        26.1787224024       -3.3232018406       27.0037412716
  H        26.8780796578       -2.7675945631       25.7625266000
  O        27.3453392257       -1.2905819317       21.1730431373
  H        27.4246446610       -1.9851623285       21.8425936067
  H        26.3248053325       -1.1961716615       21.0153371654
  O        20.2044112068        0.3094729537        8.4781416622
  H        20.5767931051        0.6464827996        7.6461899507
  H        19.4139574731        0.8788153274        8.7613713093
  O        24.4915513707       -0.8652452707       20.7979907163
  H        24.4737210168       -0.6268788050       19.8493368796
  H        23.8822290902       -1.6726062304       20.7971694933
  O        31.5690703023       -2.4025024210        8.0078628371
  H        31.8105670785       -1.4126756741        7.8517596523
  H        31.6112821252       -2.4511825091        9.0172587021
  O        27.5778118256       -3.2334515124       10.8281436184
  H        26.8428772729       -3.8898256930       10.7973783974
  H        28.4591607434       -3.6803018747       10.8966639157
  O        25.8468220846       -2.7843968647       16.2115148757
  H        24.8995274883       -2.6940339143       16.2298764630
  H        26.1368257347       -2.9782686030       17.1253549428
  O        20.4148075715       -0.5585107035       17.3334820940
  H        19.7326686084       -0.0088955577       16.8434939303
  H        21.1309309869        0.0824603648       17.6250595459
  O        21.8274143466       -2.7562587272       11.8400147312
  H        22.0262603464       -3.5117625470       11.2752757986
  H        22.6863088033       -2.2293173885       11.7549538688
  O        34.3999162254       -9.1546860719       11.6067896255
  H        34.9983555778       -9.4826974222       10.8379533520
  H        33.7277444718       -9.8418641068       11.5234009607
  O        21.0654898983      -11.7692431617       11.1175204945
  H        20.7867535500      -12.1180480682       10.2110229874
  H        20.3915206948      -11.9997617815       11.8157648799
  O        15.8141852068       -5.9169619443       14.1457622961
  H        16.7372739313       -5.8914886338       13.6734758202
  H        15.2539465703       -5.1681748496       13.8096181876
  O        24.3584262461       -1.2860464107       14.2542940507
  H        24.3211452165       -1.2469300976       13.3122526112
  H        23.4348359427       -1.3306173889       14.5156592551
  O        23.9436644473        2.3614335943        9.1984695525
  H        23.7259274738        1.6352912839        8.6193119512
  H        24.8391273537        2.1321943479        9.5900105242
  O        25.1700953986       -9.1856312209       14.6968389786
  H        24.4453123097       -9.9000486144       14.5941358437
  H        25.7711595434       -9.5066785246       15.3582077254
  O        22.0869803490       -8.5241432719       18.2247022538
  H        22.0401300645       -7.7364873042       18.8295134335
  H        21.3277317520       -8.3676168439       17.5391688410
  O        14.0908371021       -6.8768327675       18.2498625298
  H        14.2905436419       -5.9330607937       18.3266717466
  H        14.5603108101       -7.2205732088       17.4153847282
  O        29.5620676317       -0.1911037453       10.6421404625
  H        28.9798653130       -0.5690433842        9.9649600305
  H        28.9411990026        0.0552332858       11.4269143570
  O        26.8487544759       -3.9906944332       18.7835854194
  H        26.3794622077       -4.0342911529       19.6500981808
  H        27.7902616796       -3.7617849029       18.9604158620
  O        31.8560567488       -8.3675023510        8.5713156455
  H        32.0272150783       -8.7889836908        7.7335230170
  H        31.5639200732       -9.1269623110        9.1552024642
  O        16.5209397836       -9.9789500668        2.1158824858
  H        17.0493317197       -9.6019091256        1.3529369178
  H        16.1721679023       -9.1952213349        2.6057636035
  O        20.1609481745       -9.3513424345        1.4267320287
  H        21.0218430513       -9.1243369142        1.0640573744
  H        19.5432485496       -9.3318905180        0.7030514415
  N        24.0430039289       -7.1948428520       16.3870835039
  H        24.5530440657       -6.4266055401       16.8615043213
  H        24.5152736813       -7.9234915952       15.7575373699
  H        23.4366737323       -6.7035986685       15.7212523727
  H        23.4002741464       -7.5611327184       17.0782118632
