     194
 CELL 12.4294 12.4294 12.4294 90.0 90.0 90.0 i =    83620, time =    41810.000, E =     -1097.1347803499
  O        17.0818423145        0.5402092994       12.4156053522
  H        17.5560425870        0.4314455071       13.2569683198
  H        17.3699153045        1.4158187645       12.0727502408
  O        22.5111429607      -11.1515512563       10.4037512234
  H        21.5985489074      -11.2429028890       10.8603876828
  H        22.7727381687      -12.0802708988       10.0914662396
  O        20.0809496966      -11.4704766273       11.9208324043
  H        19.8480830490      -11.0930793342       12.7787797933
  H        19.9424707528      -12.4605285579       11.9601834427
  O        14.3367576393       -2.7364608434       13.3702389690
  H        14.0348951208       -3.3535805841       14.0730919983
  H        13.9324449238       -1.8936525144       13.4648221449
  O         7.9854330332       -8.4772207350       13.1358991341
  H         8.2182091773       -9.1326051144       13.8683238614
  H         8.7085907225       -8.6497856228       12.4597429320
  O        25.7413612671       -7.0434742570       24.9404841369
  H        26.4056456035       -6.8201792644       25.5777163282
  H        25.7226704115       -6.3735696632       24.1917575373
  O        18.7412931361        0.0943740185        2.2722011747
  H        18.7297612337        0.9229350311        2.7952452839
  H        19.6463935666       -0.1533609408        2.0485959064
  O        23.0506312748        3.3607176549       11.9096178690
  H        23.1176425701        2.5401359651       11.3618288952
  H        23.4705658886        4.1112029678       11.4880476767
  O        15.4485435845       -6.8514462377        3.0993723252
  H        15.8346226171       -7.4385185324        2.3986320086
  H        14.8539964018       -7.3942948682        3.5977583889
  O        18.6821318276       -2.9328068936        9.5420183854
  H        18.7582824628       -3.9495079982        9.5895627070
  H        19.5018275561       -2.6186282131        9.0602712426
  O        19.6709475254       -7.9867571803        4.3911298610
  H        20.3797577896       -7.5775584430        3.8314561117
  H        20.1240032570       -8.6741085347        4.9088086722
  O        15.3691865935       -0.0852041414        9.9892116279
  H        14.9268882646       -0.9451458017        9.8656493635
  H        16.0229337681       -0.2835944077       10.6777987423
  O        12.0762563278       -0.8530723491       13.6203732820
  H        11.4452023197       -1.0219591146       14.4495017947
  H        12.1764220079        0.1545660612       13.6606443279
  O        21.7744135609       -6.4587643039       10.9649439950
  H        22.4408791753       -5.8698916322       10.6087746490
  H        21.1906153282       -5.8828851090       11.4578399109
  O        16.4269318548       -2.2965337011       11.1559693449
  H        17.1014355647       -2.4901352212       10.4510459348
  H        15.8009511246       -3.0137344115       10.9060802890
  O        22.7414036019       -2.1148365497       12.0524111552
  H        22.8764594618       -2.9510227603       12.6439155656
  H        23.4168254901       -1.5236190681       12.5495142763
  O        22.4967628827       -4.1835018106       13.9044064896
  H        22.7858487806       -5.0638394878       13.7080423640
  H        23.0530220100       -3.8848841101       14.6285611732
  O        21.4570816618        2.0809076960       14.8887180843
  H        20.9094066377        2.1317458178       15.6813049753
  H        22.2942426174        2.4535688455       15.1689200195
  O        20.4820374465        4.6270763929        9.2782235544
  H        19.7985929990        3.9535841934        9.5920188837
  H        21.0059974335        4.9853577997       10.0512227391
  O        15.1747151267      -10.6307400809       14.2025450906
  H        15.6290561645      -11.2052939574       13.5277679284
  H        14.2929850589      -10.4018462890       13.8276432215
  O        23.1018943516       -1.5954471565        3.3766420367
  H        22.1305228205       -1.6041827691        3.4876252879
  H        23.4113482364       -0.9538343004        4.0525182643
  O        16.1796063791        3.8742293205       10.8346148641
  H        16.9044744099        3.3449703125       10.4457295982
  H        15.3550009073        3.4454868594       11.1637897350
  O        24.5324713483       -2.0718236741       19.4019755453
  H        25.4361282709       -1.9366731867       19.8184968947
  H        24.4272831648       -3.0067763591       19.2616802532
  O        15.6946239739       -1.8797645720        3.8165767475
  H        15.3130712509       -1.0081067069        4.0957733304
  H        15.0515500201       -2.5776180044        4.1340837223
  O        18.0048214526       -1.8029208786        5.0705619221
  H        17.8116080390       -2.2563184479        5.8836110411
  H        17.2072985994       -1.9746897936        4.5645910013
  O        23.3021266876       -6.7743401428       13.8286171179
  H        24.1296830925       -6.8885574713       13.3175456715
  H        22.6556025928       -7.3476597108       13.3711195624
  O        26.2582105992      -10.2387807920       10.8206127735
  H        25.9437541926      -10.4863887018       11.7498726728
  H        26.6402984590      -11.1134656385       10.5557308744
  O        23.6894049949       -4.8073976006       19.4187182279
  H        24.4533190532       -5.2443869158       19.7500195941
  H        22.9599190133       -5.5031784492       19.4661085414
  O        13.5609126127       -6.5099026306        7.7994655865
  H        13.0092199160       -7.2131234818        8.1071173547
  H        14.0585081909       -6.2512183870        8.6143839647
  O        17.9450265918      -10.0600126811       15.9671035669
  H        18.5375638542       -9.2995181687       16.2323934201
  H        17.5251489195       -9.6843338382       15.1725675914
  O        13.9555984115       -3.7266513608       10.7113729595
  H        14.4780904065       -4.5876148263       10.7700356375
  H        14.0136589430       -3.3578328585       11.5997868165
  O        19.2877453862       -0.1830418912       19.1780937764
  H        18.6147987291       -0.5557909663       18.5504543678
  H        18.7601222497        0.3254177632       19.8503942112
  O        18.4881331790       -5.6347121379        9.9521611828
  H        19.0730333258       -6.2873883586        9.4954175230
  H        18.7298645061       -5.6916346171       10.9222899532
  O        16.9258382560       -3.0988185606        7.4426136513
  H        16.8807757038       -4.0556696266        7.3920353838
  H        17.6560240704       -2.9670803370        8.1382281322
  O        29.5411500707        0.9782859591        8.2663833267
  H        29.2152118546        1.3961153395        7.4209663056
  H        28.8365136069        0.5292617596        8.7466949244
  O        24.3201588704        2.3702002164        6.1044459591
  H        23.7933996655        2.5602189149        6.9238237424
  H        24.2735897630        1.3613613576        5.9281525642
  O        24.1307524951       -4.0609214163       16.7892697050
  H        23.7753118807       -4.5051860982       17.5935837733
  H        23.5925569798       -3.2601067865       16.6925810074
  O        24.4698654927       -8.3232741214        9.4432796075
  H        23.6888222171       -8.7417391897        8.9208991519
  H        24.9856625589       -9.1393719027        9.7190449788
  O        21.4680028316       -6.5592910637       19.0997558474
  H        20.7850485959       -6.9323960309       19.6437591123
  H        21.2741841716       -6.7669626875       18.1759397619
  O        22.2217445889       -9.7729215658        8.0438954151
  H        22.2435101275      -10.5180171458        8.7030974280
  H        21.5958278127       -9.0904322181        8.4579640626
  O        14.3230732183       -4.1375998310        3.0884215690
  H        14.7128003915       -5.0490731446        2.9996885527
  H        13.4398969510       -4.1683151132        3.5652183647
  O        20.7415767440       -2.2868254848       20.3460205924
  H        21.5839351821       -2.0972040412       20.8376822051
  H        20.5746210794       -1.5117136511       19.7767255469
  O        20.3559229692       -4.1130966384       18.3235028818
  H        21.1879701646       -4.6226049447       18.1852387631
  H        20.3908858498       -3.7889082396       19.2616831475
  O        16.0951185006        2.1181547448        5.8386440511
  H        16.7826174010        2.3339135690        5.0836389074
  H        15.4940531298        2.9325111605        5.9118174377
  O        20.5103227815       -1.9443331298       16.5931623010
  H        20.3393699469       -2.6941987673       17.2699557411
  H        19.7178989043       -1.3863274814       16.6971795536
  O        24.5706774381       -0.1796179995        5.1897340632
  H        25.5208138400       -0.1929899698        4.9400498269
  H        24.4110247038       -0.8755576818        5.9066394424
  O        22.9313831218       -1.3630347460        9.3800453844
  H        22.9715771390       -1.9651261957       10.1954600977
  H        23.7738194138       -1.6143894568        8.8282340909
  O        20.1966170420       -1.6029437852       11.7272377252
  H        19.7739482966       -2.1482663123       11.0590207781
  H        21.1251540796       -1.8639766578       11.7879944805
  O        14.6834777748        0.6822143844       16.5110356199
  H        14.7345056050        0.9293655381       15.5377453163
  H        15.3060739242        1.1961447695       17.0897254371
  O        14.4292522263       -2.1621286268        8.2262734266
  H        15.4180785985       -2.4194214733        7.9414317571
  H        14.0481669252       -2.8212228034        8.8982366288
  O        29.2138863896       -5.8604896503        7.3567067747
  H        29.6522587374       -6.0114108808        6.5147611813
  H        28.2758116792       -6.0151521919        7.1238933054
  O        15.2937733798       -6.1084362028       10.0379543761
  H        15.6600274466       -7.0015941555       10.2692168291
  H        16.1166721674       -5.7032368408        9.6476202789
  O        11.5206100012       -5.0866442585       10.1266312281
  H        11.4739110025       -4.5784473432        9.3191413719
  H        12.1570906754       -4.5525123033       10.6690738073
  O        18.9657671860        2.5038459572        9.8894885141
  H        18.4475389561        1.9459054283        9.2471320208
  H        19.2735797821        2.0096898873       10.7343514925
  O        20.6779238086        2.2762474106        5.6903245376
  H        20.2642085932        1.4218408068        5.9442769322
  H        21.2748811429        2.5017672296        6.4038197341
  O        19.0944169238       -6.0682657529       12.9571073321
  H        19.3422067967       -5.4104030232       13.6598847195
  H        19.6934978673       -6.8722643152       13.1000463887
  O        17.7758158202       -6.0765709069       17.1070734334
  H        18.5388213332       -6.6723173014       17.0930279990
  H        17.0899795809       -6.4285039774       16.5969534472
  O         9.1050994635       -6.3166346808       16.1443745765
  H         8.5711869775       -5.6151635725       15.6766902773
  H         9.8476566854       -6.6452419756       15.6133714365
  O        24.7860077521        1.8838359466       13.7773903401
  H        24.1473090805        2.4393132513       13.1942136326
  H        24.5387400934        2.2471129458       14.6898991334
  O        19.2739753532       -4.3045151744       15.2853464334
  H        18.7002782118       -4.6258541578       16.0404829968
  H        19.8051953963       -3.6115654510       15.7360136134
  O        26.6202205222       -8.2604311387        5.6979468741
  H        25.9618050932       -8.9916828528        5.8222186355
  H        26.6323992855       -7.6681342970        6.4834711358
  O        11.4061596393       -9.1249521706        3.4351463498
  H        11.6775148351       -8.2042870326        3.4181756046
  H        11.2829624620       -9.4133068387        4.3383596257
  O        17.1707034876       -8.3042704352        1.3489040665
  H        16.7203443163       -8.4970458026        0.4709673174
  H        17.7812395413       -7.5265913395        1.1164562036
  N        17.0984866978       -2.6746775103       13.8467116262
  H        16.2070071785       -2.6888325320       14.3493929002
  H        16.9053280354       -2.7162859237       12.7964941760
  H        17.7111908303       -3.4302555185       14.2449697540
  H        17.5758743404       -1.8295096094       14.2242037328
