     194
 CELL 12.4294 12.4294 12.4294 90.0 90.0 90.0 i =    58420, time =    29210.000, E =     -1097.1538424406
  O         5.5094382165        1.4033860872       11.7283745584
  H         4.9835262038        0.7920167416       11.1741832289
  H         6.3001003328        1.6453019363       11.1785304922
  O        10.1994542599       -8.6003357792        9.2614724944
  H         9.6658449082       -7.7839638728        9.5654875644
  H         9.5954793592       -9.0138296478        8.5481355774
  O         7.7918647719      -10.1134790205       10.5664314755
  H         8.0996178119       -9.6169052199       11.3428788738
  H         8.5072837026      -10.7973350369       10.3722171946
  O         3.1147465734       -1.8584209937       11.7477536935
  H         2.7718599273       -2.7215070776       12.0649137960
  H         2.4340553742       -1.2156337179       12.0068092625
  O        -3.1698698453       -9.0162593599       12.7007443328
  H        -3.0027376346       -9.7653610688       13.3356806973
  H        -2.2986386198       -8.6476958180       12.4312858248
  O         9.7927830751       -4.1857934086       21.2010075631
  H         9.7858876960       -4.8277957918       20.3787133320
  H        10.7347430550       -3.9420644952       21.3267899806
  O         7.5032882245        0.6187920676        1.6096923963
  H         7.3340791223        1.5436825029        1.9567231263
  H         7.6880400501        0.7988671808        0.6141640661
  O        11.5758822175        4.1248660130       11.4674054063
  H        11.2801965403        3.9617015813       10.5463728738
  H        11.9528995840        5.0480525828       11.4762021819
  O         4.6583737302       -5.0677307202        2.2530381487
  H         4.7079047210       -6.0237625381        2.1028891555
  H         3.9677430464       -5.0819771345        2.9096489048
  O         8.4916617048       -1.6970863222        8.6916309035
  H         7.7098187275       -1.9745635723        9.2029997973
  H         9.0288660343       -2.5303792821        8.6790273393
  O         8.8717721347       -7.7260933449        3.3453974420
  H         9.2270109954       -7.0324124040        2.7378976494
  H         9.6179388405       -8.2867916465        3.6633846811
  O         4.3760205384        2.4551135636        8.1885824255
  H         3.7704957020        2.2546860780        7.4091562695
  H         4.6480667959        1.5237290266        8.4335263276
  O         1.1147723744       -0.2879884887       12.1760162392
  H         0.6743983815       -0.5964245991       13.0013392402
  H         1.2246492102        0.7278846544       12.4808842439
  O         8.4966853159       -6.4218863226       10.0965803672
  H         8.8415997379       -5.5265492559        9.7394020041
  H         8.3601763304       -6.3719358554       11.0648479951
  O         6.3815774317       -2.1378918429       10.5331340017
  H         5.9805199216       -2.9612115952       10.2228306864
  H         6.7760376249       -2.2705807246       11.4499849574
  O        11.5555193452       -1.0992006788       10.6716030634
  H        11.9567300442       -1.7274282630       10.0337149782
  H        12.4128534193       -0.6638583960       10.9000508964
  O        10.6291279877       -4.9263692984       12.8587962925
  H         9.7490429261       -5.3039701228       12.6612670521
  H        10.5685583232       -3.9370300515       12.8845292977
  O        10.3896615032        1.9243383932       14.9901862643
  H        11.0024925454        2.6973088424       15.2414333449
  H         9.8176569462        1.7444029480       15.7602268067
  O         8.7328934137        4.2129951419        6.6349187689
  H         8.8888479386        3.5665099671        5.9888401274
  H         7.9334218141        3.8349022720        7.1214235353
  O         3.3470946281       -9.3065300899       12.1795306143
  H         3.9142565080      -10.1341996994       12.1185819379
  H         2.3860093270       -9.4701517759       12.5582358145
  O        12.0648426493       -0.1735638503        2.0304541185
  H        12.1420518944       -0.6751645429        2.8600974929
  H        11.4200074068        0.5944305390        2.1961549710
  O         5.1781853180        6.1566989804       11.0764298947
  H         6.1190957404        6.2831397737       10.7841532794
  H         4.7535813244        5.4169203879       10.5172038469
  O        13.8498440072       -0.4545990200       19.0297329193
  H        14.1935370776       -0.9370469065       19.8494853545
  H        14.0497285205       -1.1174711619       18.3126495067
  O         2.7651264694       -2.4234639241        5.0950530457
  H         3.7190778922       -2.1075546180        4.9756332611
  H         2.8352380739       -3.1778544426        5.7721880553
  O         4.8683663182       -1.3493001254        4.0377378348
  H         5.6342145595       -1.7910926986        4.4717461120
  H         4.9930948794       -0.4274897493        4.2628345428
  O        12.8908026784       -5.8627056228       11.4586133535
  H        13.0460400214       -5.6515818236       10.4773044954
  H        12.0715243283       -5.3688213876       11.7468406007
  O        15.6913708996       -7.8608356923        9.6760558250
  H        15.5940891673       -8.3981434946       10.5288737407
  H        16.0060771356       -8.5610397985        8.9729161293
  O        11.6467779939       -3.0129558645       18.9685533895
  H        10.8018822612       -3.3169132411       18.6497690090
  H        11.7696565212       -2.1874350422       18.3714838433
  O         3.0718623888       -4.5214699775        6.7991646948
  H         2.8153450407       -5.2787801724        6.2490748807
  H         2.6051852049       -4.7856870978        7.6329582878
  O         6.8282505013       -9.3290048186       15.0350647630
  H         7.4657867031       -8.7406293386       15.4404392857
  H         6.1455039773       -8.7345101927       14.5437908187
  O         2.7717674847       -2.4227699409        9.0527432315
  H         3.4759130406       -3.1461874438        8.9629946509
  H         2.7383702834       -2.2044736439       10.0042196628
  O         8.8876544491       -1.3709693928       15.9197399878
  H         8.4977552262       -0.7499226089       15.2362882505
  H         8.1847912696       -1.3578921462       16.6215595339
  O         6.3364403426       -5.5022624998        7.6227725925
  H         6.0024331545       -6.2201188167        6.9987835329
  H         6.8691988846       -5.8901853734        8.3565402565
  O         7.2713696433       -2.0399762733        5.8853628931
  H         6.7428213194       -2.9642178102        5.9080242112
  H         7.7201061065       -1.9991133238        6.7808295190
  O        19.4431090846        0.7609733009        6.5847779966
  H        19.3994883788        1.3648605469        7.3498667869
  H        19.2902795356       -0.1625183712        6.8263704406
  O        13.4534841603        3.6237236695        5.3739587150
  H        12.8975044345        3.9105275523        6.1775062475
  H        14.1801541498        3.0246344184        5.6891909593
  O        14.6429518027       -4.3150288782       15.5853518355
  H        14.5904187298       -3.9404036607       14.6437216356
  H        14.8194419460       -3.5222426322       16.2007212430
  O        14.0204030128       -5.9210608712        8.8835635679
  H        13.4969983128       -6.5166827075        8.2923081509
  H        14.6807842023       -6.6171824826        9.1950761207
  O         9.7880331687       -5.6296746897       18.8457066432
  H         9.1598222057       -6.4406157773       18.8086736158
  H         9.6607872818       -5.2020276511       17.9856442599
  O        11.8325459903       -7.4402187059        7.0901136033
  H        11.2123782590       -7.8069622837        7.7408195288
  H        11.2787168074       -6.7006711435        6.6568393904
  O         2.2851402928       -4.2370359904        0.2670957884
  H         3.0625004592       -4.8025302125        0.3800132947
  H         1.7095149800       -4.8646312483       -0.2636377310
  O        11.3062316714       -0.4099126978       17.4028835331
  H        11.4209640976        0.1894130977       18.2145006619
  H        10.3736897831       -0.2191674358       17.0951916965
  O         9.4249470926       -4.0830448076       16.2200923244
  H        10.2217500964       -4.5866335662       15.9114823821
  H         9.5751511247       -3.1371504635       16.1766935049
  O         5.4265018367        5.2642441715        5.3384851071
  H         4.4758588687        5.1337745512        5.0899337373
  H         5.8531612868        4.3757107218        5.4172522663
  O        10.4447570227       -2.1732568868       12.8167763415
  H        10.7996829450       -1.4757699609       13.4011086098
  H        10.8749044818       -1.8911036916       11.9638521868
  O        15.2728937350        1.6821716580        5.9976069487
  H        15.8547727675        1.3851747355        5.2762608838
  H        14.7886856518        0.8797691334        6.2222995318
  O        10.7353844988        1.4575821527        7.2011965104
  H        10.2296801999        1.2182864279        8.0326336412
  H        11.5402939152        1.8020441053        7.5315777149
  O         9.5483200104        0.4805850418        9.7493915176
  H         8.9880290938       -0.3061240844        9.4333464975
  H        10.3296166596        0.0275343726       10.1549312657
  O         5.1679011266        1.2530526138       17.0160946996
  H         5.6024930262        2.0161293251       16.5481223878
  H         5.6203844734        1.1039292461       17.9070162372
  O         4.8383603279       -0.3293657800        8.8332142705
  H         5.4119237446       -0.8671197724        9.5280272452
  H         4.0696516760       -0.9844012099        8.7104366715
  O        17.7899788722       -4.3146604153        5.1494787781
  H        18.2243923588       -5.2082845624        5.1204044502
  H        17.3342814832       -4.3128153997        6.0191411411
  O         4.9932373035       -3.9788108513        9.4112349411
  H         4.8083636686       -4.7379139538       10.0393382349
  H         5.2854098484       -4.5351950558        8.6263140857
  O         0.0877924056       -3.1569753391        9.1810294582
  H        -0.0950941760       -2.9573205323        8.2029295058
  H         1.1134680333       -3.2572197467        9.3199267068
  O         6.9196134951        2.8777141362        8.1070067961
  H         5.8873731117        3.0150244956        8.1389998683
  H         7.2340392791        2.8491759030        9.0742114911
  O         9.1737227599        2.0197402153        5.0790534643
  H         8.3027599660        1.7745770642        5.4105467749
  H         9.8066748144        1.6427827650        5.7705395304
  O         8.1758644927       -6.4934443368       12.7423679778
  H         7.5401136367       -6.0014340005       13.3883494295
  H         8.1875303312       -7.4350101486       12.7953860903
  O         7.2388153478       -4.6581068873       14.4276531207
  H         7.8524045920       -4.5718673452       15.1832950443
  H         6.3022397353       -4.6417637774       14.7920729242
  O        -0.5141837218       -5.5099291429       15.5275919114
  H        -0.8544102950       -5.4355160348       14.5797712360
  H         0.2868876801       -4.9433726812       15.5765702390
  O        13.3085385934        2.6055058933       13.1724456504
  H        12.6811467008        3.2051131030       12.7051638030
  H        13.2092968145        2.7423596155       14.1248342755
  O         7.4892420879       -2.5401332228       12.9264507159
  H         7.4507304020       -3.2952378763       13.5160724567
  H         8.4005666596       -2.2606952289       12.8517358627
  O        15.1562625394       -6.5583895235        4.8235008316
  H        14.3663265619       -7.1095362511        5.0352282037
  H        14.8588137627       -5.9413467085        4.0778831010
  O        -0.1062535046       -8.5338742027        2.8906286710
  H        -0.2501603712       -7.6117522517        2.5442822062
  H         0.3419306813       -8.5719578807        3.8174993438
  O         5.0731072727       -7.6306415796        1.0725027259
  H         4.4735291869       -8.3308870738        0.8182203159
  H         5.1264294791       -7.1228963968        0.2003983409
  N         5.2844912405       -0.9855516478       13.6211894276
  H         5.7639709666       -0.0690341228       13.4363296020
  H         6.1397977369       -1.6467761554       13.4078479968
  H         4.4017341269       -1.1825173747       12.9911924674
  H         4.9809869151       -1.1614683294       14.5986969926
