     194
 CELL 12.4294 12.4294 12.4294 90.0 90.0 90.0 i =    60420, time =    30210.000, E =     -1097.1638230542
  O         6.2021046077        0.6899001630       11.0188503147
  H         6.0736010229        0.1862705934       10.1546897762
  H         7.1608851137        0.8665378485       10.9826980495
  O        11.3451793506       -8.8310449185        9.3531367537
  H        10.7016483795       -8.1108072410        9.6737201274
  H        10.8194403076       -9.6481997574        9.4268581847
  O         8.7501776423      -10.4085477318       10.8467766341
  H         9.2969169537       -9.7875847997       11.3969850673
  H         9.4566789765      -10.8326056634       10.3384964000
  O         3.8506155319       -2.2825075866       12.1183873742
  H         3.3158538675       -3.0765289146       12.5061250330
  H         3.3364418736       -1.5290559412       12.4366663474
  O        -1.9436802282       -9.0887324270       12.5814361666
  H        -2.0137792911       -9.5384347287       13.5048750642
  H        -0.9623694782       -8.9952084869       12.5055629108
  O        10.9418926181       -4.7999329608       21.6779886812
  H        11.3438872659       -4.8898672057       20.8105249573
  H        11.5387615446       -4.2852781910       22.2764308111
  O         8.3676073398        0.0978885516        2.1347221980
  H         8.2194192502        1.0600532726        2.1584739443
  H         9.2442206331        0.1459398421        1.6543899408
  O        13.1985489009        3.8388790371       11.5941123056
  H        12.6014997970        3.5550811364       10.8009350591
  H        13.6478490749        4.7537373392       11.4424433251
  O         4.8893191496       -5.9163385109        2.0151783967
  H         5.1745902135       -6.6040144781        1.3569315187
  H         4.5785946181       -6.4438024055        2.7555566885
  O         9.7899314347       -1.5343153214        8.3024614077
  H         9.3971283636       -1.9348105633        9.1455865370
  H        10.5559906153       -2.1386461069        8.2202162635
  O         9.4609062431       -7.8486782421        4.0264270338
  H        10.1824809213       -7.3034393118        3.5112741034
  H         9.9177681938       -8.3193902975        4.7443464941
  O         4.7737608020        2.3470960173        8.3699834015
  H         4.5502131010        2.3300107926        7.4117437707
  H         5.1906576585        1.4731154419        8.5422145402
  O         2.1304951037       -0.2951226095       12.9254692215
  H         1.4141024167       -0.6643280907       13.5281220261
  H         2.3187850742        0.6989189266       13.1805849074
  O         9.6587968962       -6.7413011168       10.5764556737
  H        10.2689317588       -6.0843568544       10.1395892402
  H         9.7889253863       -6.6152277561       11.5354551422
  O         8.0995023111       -2.0401218662       10.4077339721
  H         7.2296010375       -2.5217601748       10.1361975439
  H         8.4086863755       -2.6243861504       11.1274770207
  O        12.5255657741       -0.9890183565       10.8663905611
  H        12.9947683057       -1.6374428910       10.2754107674
  H        13.1855249518       -0.6051541859       11.4457721172
  O        11.8936324741       -5.2034276660       12.6689764632
  H        11.2046228883       -5.8243158340       13.0527767648
  H        11.7189530807       -4.2759788086       12.8154243173
  O        11.1132188912        2.1091269946       15.1574320867
  H        11.9671829311        2.6389020142       15.0453249572
  H        10.9140640498        2.3396851880       16.0957643640
  O         8.0932533989        5.7548160285        7.3184766493
  H         7.6358183589        5.4217804912        6.4977317032
  H         8.0814754735        5.0066834510        7.9536803680
  O         4.9009510154       -9.6804053472       12.2981371045
  H         5.3324823841      -10.3828044945       11.7067205081
  H         3.9819579822      -10.0069863033       12.7196903708
  O        12.0087320663       -0.5052718509        2.2447154076
  H        12.4052228862       -0.7361684355        3.1495115474
  H        11.6292352326        0.4355814583        2.4034062248
  O         6.9703026396        5.9400806083       10.6517423553
  H         7.9156499635        5.8454486867       10.2356385970
  H         6.3772261584        5.2596870671       10.2661287047
  O        14.8167074330       -0.7745676482       19.2018080427
  H        15.0363212379       -1.1184239371       20.0266218367
  H        14.9558605280       -1.5882936297       18.5938875740
  O         3.2377833708       -2.6905800576        5.0853282845
  H         3.8697225022       -2.1851064107        4.6107946432
  H         3.7533558231       -3.2309024786        5.7027350611
  O         5.6194016798       -1.4302082989        3.7015084257
  H         6.3028886357       -2.0755899512        4.0626187911
  H         5.8152902674       -0.6155605651        4.1904730965
  O        14.2043128790       -5.9529167706       11.4640502997
  H        14.5798246451       -5.6766981192       10.5908321272
  H        13.2935069705       -5.5407317281       11.6413555243
  O        16.9557825786       -7.9266246655        9.8676919855
  H        16.8330928336       -8.2759539721       10.7848260698
  H        17.0186252512       -8.6732000169        9.2508101542
  O        11.9018915416       -3.0394788320       19.4601060443
  H        12.1316319809       -2.4542624950       18.6944925118
  H        11.4989034988       -3.8335534197       18.9993972122
  O         4.7637343912       -4.6816757690        6.4328886243
  H         4.4690180441       -5.4118616107        5.8804872216
  H         4.5570948113       -4.9710475241        7.3952996417
  O         7.5545119174       -9.5211887717       15.0848572229
  H         8.3498347083       -9.1752610412       15.5328709717
  H         7.3466521021       -8.9432825890       14.2748592250
  O         3.8096737161       -2.1258312991        9.1787249472
  H         4.4019547045       -2.9371131840        9.0981908206
  H         3.5836379148       -2.0759567947       10.1293912411
  O         9.1479580547       -1.4225027301       16.6119121110
  H         8.9240338847       -0.7533297989       15.9637622243
  H         8.4244510975       -1.2765881202       17.2756478667
  O         8.2391692114       -4.0266852583        8.0179004509
  H         7.9735220995       -4.9540520073        7.7596159354
  H         9.0964315953       -4.2178112589        8.5531545380
  O         7.5306219508       -1.3399108824        6.7893930662
  H         7.2218813904       -2.0953092648        6.3513917219
  H         8.3316615752       -1.6634620373        7.2909072718
  O        20.5139849173        1.7983194087        6.2949968461
  H        20.2495056320        2.3092113407        7.0563227414
  H        20.6516376573        0.8497385268        6.5302846641
  O        14.5822816155        3.8518649658        5.4299042681
  H        13.9898687654        4.2355002593        6.2040363009
  H        15.0569765540        3.0708094942        5.7308380530
  O        14.3065606127       -4.7263603398       15.9879575541
  H        14.6086613964       -4.5773376291       15.0721933947
  H        14.6197076040       -3.8824451952       16.4412666127
  O        15.3425730764       -5.8289687806        8.7585880163
  H        14.7285726964       -6.3926593737        8.1800168761
  H        15.9636826653       -6.4415309605        9.1779436841
  O        10.6949070772       -5.6180339883       19.0356376804
  H         9.9068976840       -6.0839738346       19.3214861142
  H        10.3952708289       -5.4389028437       18.0823074670
  O        12.9817526622       -7.4661948481        7.3591893622
  H        12.3983971835       -7.9938676198        8.0072963284
  H        12.2396581801       -7.0970505093        6.7877117854
  O         2.8852880985       -4.4280627472        0.9936284756
  H         3.6977733727       -4.9004465791        1.2718390114
  H         2.3701162789       -5.0842389821        0.4510542826
  O        11.9180780686       -0.7794912950       17.5328674194
  H        11.9785631404        0.0555058679       18.0606182264
  H        10.9573269771       -0.7787363676       17.2505773418
  O         9.6791171682       -4.2523936877       16.7471762437
  H        10.2091142176       -4.7139404897       16.0970726181
  H         9.6560891314       -3.3315778069       16.4995332092
  O         7.0955177872        5.3844537548        4.9607241391
  H         6.1152995763        5.5236571741        4.7684359613
  H         7.4238248057        4.8033857485        4.3033522852
  O        11.2266054305       -2.4309461637       13.0343113456
  H        11.5498991696       -1.8705825378       13.7566394200
  H        11.6882548360       -2.0365993039       12.2337862240
  O        16.2979119269        1.6335888938        5.7406240907
  H        17.0540312973        1.4061096438        5.0954911591
  H        15.9470814143        0.7921272117        6.0712655776
  O        12.7017539225        1.4485518795        7.1027429407
  H        12.5914339867        1.2953290593        8.0551443403
  H        13.5297791185        0.9518640092        6.9192847961
  O        10.7805001183        0.5632239825        9.6207096525
  H        10.2874358947       -0.0717540299        9.0384074931
  H        11.4196011421        0.0692518340       10.1800073052
  O         6.2262575476        1.3787628659       16.9172045551
  H         6.6737685742        1.8830483680       16.1801423447
  H         6.7904660990        1.6223540800       17.7134324656
  O         5.7073719019       -0.1256698522        8.4101658125
  H         6.4322493784       -0.5444781969        7.8310853007
  H         5.0461693998       -0.8043361503        8.6083981739
  O        19.3002614930       -3.5423119716        5.0379167114
  H        19.9943359137       -4.1692993828        5.2169983266
  H        18.5586123867       -3.9686300716        5.6184709708
  O         5.8037238939       -3.9339893886        9.4487782701
  H         5.9945399993       -4.7869511173        9.8715774721
  H         6.4901269294       -3.8464605067        8.7653694614
  O         1.1750129620       -2.9938209826        9.2845461371
  H         0.5318007969       -3.1055110317        8.4714913963
  H         2.1042624287       -2.8732234420        8.8994093381
  O         7.2911894170        3.2803769923        8.5455394645
  H         6.3608878922        3.1442030371        8.4921516692
  H         7.6395757682        2.8078251117        9.3656389503
  O        10.7135522725        2.5892288804        5.6623768831
  H         9.8654248281        2.2173326549        6.0815952680
  H        11.5474000120        2.3327569090        6.1927968403
  O         9.7967333704       -6.6577192009       13.3901004078
  H         9.0190917037       -6.2740496370       13.8363868780
  H         9.8048068096       -7.6109154426       13.3830695482
  O         7.7353079962       -5.2819111751       14.4476392958
  H         7.8545210687       -4.7660333963       15.2464943729
  H         6.7644061171       -5.4164960323       14.5656217688
  O        -0.3784728325       -6.1587955449       15.5688724953
  H        -0.0830738485       -5.8140608325       14.7039085968
  H         0.2038317789       -5.6584168997       16.2110626890
  O        14.9025269838        2.3190547300       13.2780099595
  H        14.4337859225        2.8210750914       12.5248705149
  H        14.6559484605        2.8306443672       14.0890725033
  O         8.4866574000       -2.7470657767       13.1313551280
  H         8.4908557251       -3.7113870738       13.4437422715
  H         9.4415394311       -2.5357211881       12.9151143799
  O        16.1900770117       -6.4884184890        4.4548457996
  H        15.6568936539       -7.2844990060        4.8385548109
  H        15.3830608176       -5.8243878330        4.2745972017
  O         0.9263589311       -8.8365520783        2.8789334715
  H         0.7426390852       -7.9047421700        2.5734183489
  H         1.2385140223       -8.8194067067        3.8500608136
  O         6.5670276239       -8.0247339697        0.7783512320
  H         5.8500571147       -8.6678755545        0.4178577698
  H         6.7588826538       -7.4199005703        0.0014730659
  N         6.1453732521       -1.1680038561       13.1703838009
  H         6.2244203617       -0.4500388181       12.3961897436
  H         6.9884289195       -1.7190835381       13.1876122770
  H         5.3556170506       -1.7098939769       12.9122940831
  H         5.9652957137       -0.7107623298       14.1594901290
