     194
 CELL 12.4294 12.4294 12.4294 90.0 90.0 90.0 i =    70420, time =    35210.000, E =     -1097.1499631958
  O        10.7070324351        0.2003760615       10.9780148208
  H        11.2352908982       -0.6020308334       11.2299313273
  H        11.4323803829        0.8107392181       10.7007280936
  O        15.8298129100       -9.1820416343        9.3269994445
  H        15.2735200381       -8.3494004858        9.6091970792
  H        15.1696176768       -9.8993637050        9.2609125767
  O        13.0444507441      -10.3408708026       10.7272908289
  H        13.1683466562       -9.8090608479       11.6685872480
  H        13.6036799523      -11.1806525002       10.7968625359
  O         8.0145171890       -3.0297345608       13.2174569861
  H         7.8271453427       -3.9242374387       13.5176705716
  H         7.3107924238       -2.4171331699       13.4329505139
  O         2.6773415781       -9.5827301932       13.0278782334
  H         3.0510352023       -9.9039644934       13.8888497537
  H         3.3983974014       -9.6137719732       12.4018007614
  O        17.5888210530       -5.8547967590       22.9690554220
  H        18.1760546458       -6.3292215372       22.3098739191
  H        17.4829741953       -4.9311280811       22.6140039808
  O        12.5244531778       -0.6624069573        2.8627088601
  H        12.7134596831        0.3113823902        2.8780059193
  H        13.1123663601       -1.0657866169        2.0920105231
  O        17.8385463984        2.7639697083       11.2901548368
  H        17.3740754354        3.0145408522       10.4944522655
  H        18.0835010437        3.6617141915       11.6740388453
  O         9.8946909870       -6.8628121583        2.8870255751
  H        10.1043917333       -7.7291190239        2.4389772527
  H         9.7110226583       -6.9461512127        3.8786162374
  O        13.3968472493       -1.9104131005        9.2437847472
  H        12.7472473774       -2.1713011439        9.9613645172
  H        14.0295190739       -2.6638492447        9.1539915463
  O        14.7414900045       -9.1509792307        4.7371717609
  H        15.3581993065       -8.3866802515        4.5770801539
  H        14.8062166371       -9.6334352869        5.6184016075
  O         9.7487442945        1.5496770209        8.2881314734
  H         9.1824279373        1.2916284229        7.5086284240
  H         9.7938581382        0.6576807138        8.7261136302
  O         5.9227229855       -1.3027539191       13.8538312901
  H         5.4012380888       -1.3588436895       14.6701080161
  H         6.2767918926       -0.3694800411       13.7101999169
  O        14.8913212729       -6.8864805225       10.3293324033
  H        15.7603102149       -6.3681981035       10.4253056865
  H        14.4987588785       -7.0523471966       11.1878879741
  O        11.8093486842       -2.1884657085       11.3585847814
  H        10.8527545041       -2.4018636278       11.0996950779
  H        12.0633141075       -2.6813849126       12.2697210374
  O        16.3690498209       -1.8758057632       12.1466691859
  H        16.6839760742       -2.2511940122       11.3098426007
  H        17.2179206660       -1.7394661724       12.6452692105
  O        15.8027008350       -5.1473418069       14.1120212313
  H        15.0992081168       -5.5254766372       13.5372499212
  H        16.4420108234       -4.7402185247       13.4571861085
  O        16.4220298848        1.5986200209       15.4488121984
  H        17.2757739763        2.1261757992       15.3357310938
  H        15.8648922589        2.0705425443       16.1449976804
  O        12.3349604025        5.6956076040        6.5000932056
  H        12.0617025114        4.7388561779        6.3875816683
  H        12.2497215639        5.9910292863        7.4531380229
  O         9.9584326104      -11.4105576147       13.2385808209
  H        10.2315551275      -11.7654449330       12.2838390917
  H         9.0293898394      -11.2465873637       13.0441313448
  O        16.4381700837       -1.2484708565        3.4355129358
  H        16.5543857019       -1.5551995749        4.3635483054
  H        16.3969501966       -0.2493145165        3.4978258955
  O        10.4945133906        4.9528818754       11.1051203188
  H        11.1305442348        4.6768707130       10.3671347404
  H         9.7037134878        4.4812096680       10.7811424138
  O        18.9404301364       -1.5161816208       20.8528006518
  H        19.8070147322       -1.1376418276       21.1742863710
  H        19.2283196839       -2.0122406689       19.9923677950
  O         6.8718460823       -3.1985617965        6.5363685754
  H         7.5031867777       -3.2645261785        5.7734925152
  H         7.2637346699       -3.9798508690        7.0559144038
  O         9.2592889731       -2.4977293114        4.8071867525
  H         9.7204217640       -3.3774929489        5.0448371262
  H         9.9220698645       -1.8390066805        5.1278851285
  O        18.0616794927       -7.0645419374       12.8529593581
  H        18.1020169137       -6.3172070156       12.2062669935
  H        17.1799098278       -7.0665258221       13.3032431719
  O        20.7422207790       -9.0131289165       10.1401003922
  H        20.2616665618       -9.4958028417       10.8216495774
  H        21.0601492266       -9.6214900809        9.4441387950
  O        15.2354249643       -3.8501009395       20.3025251878
  H        15.3216222609       -3.1805957889       19.5883104002
  H        15.5193010277       -4.6669001860       19.7803590884
  O         8.1852518410       -5.4417411554        7.4093059989
  H         7.7966045463       -6.1867064728        7.9163132594
  H         8.9569751712       -5.2879825347        7.9695936905
  O        12.6049121106       -9.6695820814       15.7390132761
  H        13.4758297804       -9.3293032185       16.2325158358
  H        12.4757494200       -9.1487525414       14.9589598335
  O         9.2549448013       -2.9167657942       10.5026037955
  H         9.6328963594       -3.7620895501       10.0778628720
  H         8.7244712510       -3.1479365923       11.3207976043
  O        13.4354296041       -1.9021209341       17.3331883974
  H        12.9446001653       -1.4494344751       16.6043481733
  H        12.8284636756       -1.7415786112       18.1140682151
  O        12.9968030038       -5.2731529452        8.9280530236
  H        13.6019405847       -4.6368444485        8.4987634205
  H        13.5427580319       -5.9136762022        9.3998295316
  O        11.6264085571       -2.3020046871        7.0744507266
  H        11.7831172241       -3.1700142079        6.5999953168
  H        12.2852245303       -2.2994477407        7.8742700091
  O        24.5817177856        0.7737399069        6.4883197289
  H        23.9968611996        1.4709732825        6.8637776559
  H        24.2231756144       -0.0127249502        6.9695914416
  O        19.3626768744        3.1132971920        5.3353756968
  H        18.5418601941        3.4030019163        5.6895482611
  H        19.5679251059        2.1690070058        5.7239658044
  O        18.4012295046       -5.6954341642       17.2752528648
  H        18.9279824082       -5.6887549450       16.4093893586
  H        18.1405317035       -4.7571416830       17.4534505397
  O        19.0768070315       -7.2678075810        8.8024909957
  H        18.5372374446       -7.7013573547        8.1261802612
  H        19.6212277474       -7.9595527800        9.2047900550
  O        15.1939815628       -6.1645590599       18.9649064514
  H        14.2571238804       -6.5071299781       18.9953036016
  H        15.1271243381       -5.6089740818       18.1139011571
  O        17.2870713996       -8.2923965238        7.0849860149
  H        16.6482621317       -8.7394051086        7.7304729928
  H        16.8576555958       -7.5234226459        6.6735071040
  O         7.2801606718       -5.6830690039        2.2973409263
  H         8.0462330951       -6.2269152674        2.5836751316
  H         6.6734478826       -6.2520189848        1.8269448728
  O        15.7900134197       -1.7623278797       18.5825625383
  H        15.8415124564       -1.1746463388       19.3999643893
  H        14.8963242361       -1.5839956415       18.1670941221
  O        14.2009094648       -4.4726625281       16.3676640502
  H        14.7627862449       -4.3883791339       15.5444901831
  H        14.1599308250       -3.5599976526       16.8110793079
  O        10.9389587555        3.2735551210        5.9398467395
  H        11.4366561837        3.1103924622        5.1063038933
  H        10.1888120945        3.8941687254        5.7660271715
  O        14.5756588033       -2.2534544697       14.2602386473
  H        15.2541917578       -1.8688916722       14.9273615736
  H        15.1463663855       -2.2293438581       13.5041939252
  O        20.2047074943        0.7042990710        6.1989241419
  H        20.9737173572        0.8260151453        5.5273711321
  H        20.0353362080       -0.2193263657        6.5060241436
  O        16.4512008401       -0.0713766268        8.1775455913
  H        16.1003291556       -0.0222069031        9.1095356408
  H        17.4067050742       -0.2446631150        8.1417071182
  O        15.1235484660        0.1131327227       10.5590479713
  H        14.6159335319       -0.6592124428       10.2343005439
  H        15.5081027175       -0.0895084164       11.3768073882
  O        10.0163550735        0.3854061294       16.6769058942
  H         9.9453240089        1.0188637722       15.9110781723
  H        10.7633422085        0.8270294228       17.1797492180
  O         9.6512094187       -1.1976105726        8.6480186749
  H        10.0937386122       -1.7584796786        8.0293806445
  H         9.4316618952       -1.7260086243        9.4381038864
  O        23.9978676004       -4.4557677392        5.5751728794
  H        24.5345796984       -4.2227141331        4.7949057846
  H        24.2111491876       -5.4536377029        5.7513021608
  O        10.3165838054       -5.0946182011        9.6859175847
  H        10.0383765676       -6.0204040019       10.0235387623
  H        11.2488566052       -5.2024792856        9.4181522511
  O         4.8513245707       -3.2568799334        9.8302134307
  H         4.1753105599       -3.3050397439        9.1031154542
  H         5.5356530152       -2.7140103803        9.4221664990
  O        12.1016773934        4.0086327944        8.9588584486
  H        11.6530435540        3.5070317085        8.2677410454
  H        12.5551257063        3.3824802591        9.5164586727
  O        14.6247284196        1.7797784411        6.9044406245
  H        13.7674624644        1.2614790156        6.8495164784
  H        15.2623629471        1.1518774976        7.1780876143
  O        14.1954837943       -6.8750214634       12.9231599975
  H        13.5894151573       -6.8363450351       13.6854931970
  H        14.7159853801       -7.7832926314       13.0772510790
  O        12.4275826297       -6.1835656133       14.7038094487
  H        12.7094866388       -5.6361664720       15.4755816211
  H        11.4198477122       -6.3992702637       14.9883173557
  O         4.2193225227       -7.3242107065       16.2965334487
  H         3.7666338700       -6.8011695986       15.6199787730
  H         4.8264321395       -6.7382317199       16.7714887366
  O        19.6008922363        1.2144306388       12.8635176922
  H        18.8465387920        1.3799614601       12.2388817148
  H        19.5300762546        1.9720812197       13.4983973070
  O        12.1051486450       -3.3935356938       13.7709391505
  H        12.0682246677       -4.3582156182       13.9180971098
  H        13.0363777959       -3.1033701592       14.0014962674
  O        21.2071613417       -7.3816316348        5.4497574774
  H        20.3589643235       -7.9284368546        5.4433444174
  H        21.0196784831       -6.5431866410        5.9831388753
  O         6.3158978655       -9.3185595389        2.6137457070
  H         5.7356445187       -8.5567422125        2.7956950786
  H         6.7127965900       -9.4982528033        3.5078766638
  O        11.0355395051       -8.8911557936        1.3148788405
  H        10.7293605026       -9.8425740983        1.1604832930
  H        10.9471993512       -8.5094062780        0.3867122628
  N        10.0442135948       -1.6336005867       14.5379756380
  H        10.0018216897       -0.6113127573       14.3150460595
  H        10.8925774835       -2.0719842623       14.1874119762
  H         9.2617779972       -2.1667141768       14.0962453814
  H        10.0395760030       -1.6562416840       15.5502539095
