     194
 CELL 12.4294 12.4294 12.4294 90.0 90.0 90.0 i =    49620, time =    24810.000, E =     -1097.1249331456
  O         0.9057335644        1.4723822103       10.8873801286
  H         0.6090412665        0.9621450968       10.1005236822
  H         1.7884845834        1.8272807679       10.6280402016
  O         6.7248830341       -9.4581729267        7.4743582732
  H         5.9589697027       -8.8755921010        7.3577410828
  H         6.4043535693      -10.3711402555        7.8643465265
  O         3.6883836234      -10.5540381985       10.5376151804
  H         4.1512068065       -9.7374167566       10.8524954687
  H         4.3780055361      -11.0956496347       10.0774058993
  O        -1.8487459340       -2.2396781575       11.1306191607
  H        -1.8128659476       -3.0711492379       11.5968787064
  H        -2.5083755694       -1.6530783426       11.5531678139
  O        -7.3022926173       -8.2956099168       11.5108468484
  H        -7.0298898324       -8.6032801138       12.3723420552
  H        -6.5574165734       -8.2454046422       10.8558834547
  O         5.8108894212       -3.7242740122       20.0476393264
  H         5.5315785567       -4.0693351022       19.1602220564
  H         6.7489674996       -3.3745922378       20.0165735504
  O         3.5806031577        1.2816983918        0.9507619113
  H         3.0647794955        2.0465550744        1.2282557176
  H         3.6276668858        1.3033927985       -0.0037255664
  O         7.3997690481        4.1426892521        9.8358533620
  H         7.2486645570        3.9144876134        8.9065136889
  H         7.7904353509        5.0698250884        9.8177840951
  O         0.7827180151       -4.5011390420        2.0791338049
  H         0.3961879257       -5.3196323196        1.7042410620
  H         0.6789488074       -4.4550381120        3.1350171934
  O         3.9599479173       -1.5616777048        7.2469656261
  H         3.2080385097       -1.5236401570        7.9816428598
  H         4.5223710519       -2.3654786942        7.4009408387
  O         4.8368755912       -6.0217926851        3.1072226714
  H         5.5814242906       -5.6951248053        2.4620016426
  H         5.1228037297       -6.8805340649        3.4380405883
  O         0.1275889459        3.0777615459        6.8948262383
  H         0.3750718292        3.5138346114        6.0372441534
  H        -0.5817130399        2.4405969065        6.6711339019
  O        -3.4426025927        0.3089642176       12.6167675369
  H        -4.1391591427        0.3968899507       13.3583659383
  H        -3.3729193261        1.2477958910       12.2262607463
  O         4.5201141393       -5.8652112401        8.7427433002
  H         5.1503665132       -5.1377824044        8.4690387416
  H         4.1700471922       -5.7353371752        9.6465181242
  O         1.7283113894       -1.7811757403        9.0415363977
  H         1.2812532083       -2.6793376736        8.7782298944
  H         2.3069787343       -2.0309988937        9.7852513133
  O         7.4266091390       -0.4824986832       10.5291398288
  H         8.1785462722       -0.6164772006        9.8658755601
  H         7.9379805891       -0.0832735003       11.2753237741
  O         6.4170939800       -4.1330797861       11.6322535756
  H         5.6297127237       -4.5798671682       11.2669676416
  H         6.0929809055       -3.2823535199       11.8836587827
  O         6.1243506654        3.2646971128       14.1961561745
  H         6.9898251118        3.6707073423       14.3391356946
  H         5.5181441674        3.4468710003       14.9367800182
  O         4.5529526372        4.3974348232        7.0362629134
  H         3.8758002322        3.8103581551        7.3426251862
  H         4.6577168468        5.1362519878        7.7026701971
  O        -0.6677924699       -8.7273966557       11.2959724807
  H        -0.0435153624       -9.4769219103       11.1970928149
  H        -1.5574374804       -9.1342525748       11.2952637030
  O         6.6940448453        0.6049751194        1.7120965272
  H         6.6430612220        0.3550027679        2.6500041135
  H         6.3478752551        1.5295495237        1.6014013761
  O         1.0750677784        6.9337215535       10.5456941662
  H         2.0396853093        6.7851649015       10.6361200378
  H         0.7024118810        6.2058956251        9.8795020956
  O         9.2030162827       -1.9640100722       15.8506614807
  H         8.8404046999       -1.9883890755       14.9229372635
  H        10.1297864197       -1.7001409350       15.7264366953
  O        -0.3400598999       -1.7431369081        2.5617570760
  H         0.1727215716       -1.3070999139        3.2269449727
  H        -0.0365950920       -2.6908825067        2.4004416890
  O         0.9168602338        0.2375228758        4.3513279796
  H         1.7129679722       -0.2992509272        4.6898045016
  H         1.3307392997        1.0919905950        4.1286213584
  O         8.7035415330       -5.6798301193        9.9414060002
  H         9.0318017133       -5.8986822137        9.0158933461
  H         7.9218420539       -5.1197816383        9.8958156332
  O        12.4233991105       -7.3921341064        9.0633801794
  H        12.1198823867       -7.9290586782        9.8470278605
  H        12.6305672978       -7.9889783378        8.3127048239
  O         7.9965535893       -2.5709582016       13.5598544610
  H         7.1230504209       -2.6127366012       13.9323439501
  H         7.9196562058       -1.8860017887       12.8632546832
  O        -1.7227125711       -3.9593985644        6.4469613626
  H        -1.9103160819       -4.9719669045        6.3073652096
  H        -1.2249730232       -3.7473766499        7.2475995388
  O         2.6505177510       -7.7457294346       14.0113563614
  H         3.0927717878       -6.9204654367       14.2996690423
  H         1.8868789965       -7.3275286437       13.4890849242
  O        -2.9011092270       -1.1129892489        8.7728899642
  H        -3.3932408059       -1.7013317199        8.1277668806
  H        -2.5267636841       -1.8719486899        9.3157653038
  O         3.1006102127       -1.2109076568       14.5246787949
  H         3.4187011425       -0.3473585197       14.1712717895
  H         3.0991445062       -1.0715694468       15.5008950950
  O         2.4720698265       -5.6978300046        6.9372211345
  H         2.1389366353       -6.4813431194        6.5502220930
  H         2.9581037316       -5.8931562206        7.7780532158
  O         2.8503891018       -1.5003621298        4.8566939061
  H         2.6137683480       -2.4226202499        4.6889719337
  H         3.4324493143       -1.5436092098        5.7197954032
  O        16.1901091780        1.8083441199        5.0804913013
  H        15.9737541359        1.9309901450        6.0223035710
  H        16.7272672720        0.9721917361        4.9679673006
  O        10.8553724985        3.5980398915        3.7155831706
  H        10.5403218214        2.9676741710        4.3978059453
  H        11.8174175245        3.4253484737        3.6629196250
  O         9.5486131679       -4.7186891121       15.3154455659
  H         9.7835746032       -4.4821185403       14.3388261688
  H         9.3128077100       -3.8157438784       15.5726782266
  O         9.9338827643       -6.7534722404        7.6936486114
  H         9.5704714657       -7.5238708067        7.1492563035
  H        10.8252614531       -7.0666787668        8.0918310777
  O         4.4911589571       -4.4256518844       17.7255947258
  H         4.5030901793       -4.9693608754       16.8867113188
  H         3.7829040104       -4.8874587775       18.3443005383
  O         9.1058411252       -9.0422844303        5.9787681996
  H         8.3761692335       -9.3958233117        6.6201496646
  H         8.5318447347       -8.5503872459        5.3370244418
  O        -1.9890613158       -4.7731093265       -0.1549113407
  H        -1.4206597555       -5.4961452761        0.0889806621
  H        -2.5227061725       -5.2496225293       -0.8207074831
  O         5.8511025290       -0.3819503353       16.8107794971
  H         6.6798366208       -0.3682038962       17.4723304055
  H         5.6850214400       -1.3686975244       16.7320822188
  O         5.3927636179       -3.0190030961       14.6852181138
  H         5.4350012448       -3.5651679809       15.4824251571
  H         4.6875610033       -2.4068964476       14.8544325341
  O         1.0458807685        5.3343525174        5.0472039664
  H         0.1949528822        5.7418357899        4.7822396980
  H         1.3875438933        4.6585177203        4.3980937211
  O         5.4854881682       -1.1858637462       12.3637182133
  H         5.7169500775       -0.5596780652       13.0769418472
  H         5.9243031843       -0.7922790805       11.5574359010
  O        11.1698533550        0.9847615464        6.0685560193
  H        11.9346265051        0.6845017073        5.5089045582
  H        11.5115237788        0.8200400498        6.9856877402
  O         8.6330382385       -0.1627733553        5.5171880404
  H         9.5322787405        0.1647962032        5.7049057587
  H         8.7659213900       -0.6415913713        4.6057570239
  O         5.8882475968        0.7456774495        8.7846767069
  H         5.8450947378       -0.1130344591        8.3670787589
  H         6.5588074377        0.6259188109        9.4306836961
  O         1.8467470293        3.0160609879       15.8920713034
  H         2.1245189392        3.7044567602       15.1998123971
  H         2.6393577371        2.8212967515       16.3505056276
  O        -0.0770973589        0.2391235929        8.5160019447
  H         0.5941361858       -0.4326102455        8.5995995919
  H        -1.0044045568       -0.2060489030        8.6234267407
  O        13.7912454652       -3.8839366042        4.5003293827
  H        14.0924916453       -4.7035068180        4.9652992060
  H        13.1827294570       -3.5324742897        5.2847934976
  O         0.6247552323       -4.0034823598        8.1486368825
  H         0.5243428073       -4.3057456499        9.1009098301
  H         1.2801762757       -4.6719856737        7.7749096604
  O        -4.1630764778       -2.6071956016        6.9641112666
  H        -3.3743631372       -3.1943858890        6.7524773690
  H        -3.9799891295       -1.7823537425        6.4877180482
  O         2.6859982727        2.4618236479        7.7207934119
  H         1.7038449772        2.5184863523        7.4947844122
  H         2.8899948721        2.2726523120        8.6979090487
  O         5.7454416363        4.1510573844        4.4402209712
  H         5.3119875574        4.4758564363        5.2818442515
  H         5.7776943563        3.1905055302        4.5832095352
  O         3.7567171706       -6.0332242067       11.2354460623
  H         3.5914701434       -5.5691288063       12.1093968996
  H         4.2406370382       -6.8595441546       11.4669138982
  O         3.3045504898       -4.3941781105       13.1188425140
  H         3.9209587298       -4.2206948031       13.8424085374
  H         2.4015699709       -4.3874566783       13.5086474103
  O        -5.3455266946       -5.5767495604       14.1427473732
  H        -5.5205305408       -5.0750511327       13.3511952437
  H        -4.5869990476       -5.0961077766       14.5186764323
  O         9.0689358300        2.9790136354       11.6610787071
  H         8.5608045941        3.1698236503       10.8176675693
  H         8.8665596908        3.7508885293       12.2663852748
  O         3.0383042421       -2.2446647594       11.2681803043
  H         3.0365670145       -3.0818581816       11.8210724370
  H         3.8943784061       -1.8085611482       11.6038272780
  O        11.1127978236       -6.1468900902        4.5949488428
  H        10.5568264300       -6.9645044764        4.3675181527
  H        10.8059217900       -5.4815391897        3.9468793876
  O        -3.7270416450       -7.9810994823        1.6372405838
  H        -3.9774093314       -7.0214090903        1.6206192377
  H        -3.1001022168       -8.1509702843        2.3407813493
  O         0.3954886829       -6.6693683796        0.2890965752
  H        -0.1201456180       -7.5030726482        0.0537369782
  H         0.6786540835       -6.2879073964       -0.5935563218
  N         0.3354362164       -0.9706149051       12.1195549491
  H         0.8644371233       -0.2979347829       11.5292736380
  H         0.9295091143       -1.8216664244       12.1987902492
  H        -0.5789447616       -1.3542132706       11.6160082997
  H         0.0631895249       -0.7920643630       13.1261159161
