     194
 CELL 12.4294 12.4294 12.4294 90.0 90.0 90.0 i =    79220, time =    39610.000, E =     -1097.1166330513
  O        15.4290695131        1.5450950058       13.2146485529
  H        15.3220130435        0.8054491339       12.5903256820
  H        15.8931711915        1.2878385340       14.0464099031
  O        20.0761443336      -10.6766523642        9.1968997966
  H        19.6402046236      -10.8307108278       10.1404716096
  H        20.5277016258      -11.5118235033        9.0055401888
  O        18.8583726218      -11.0081369176       11.5469054787
  H        19.3847158659      -10.5844265151       12.3004034991
  H        18.6482481993      -11.9898137182       11.7416747934
  O        12.8581837056       -2.4201815911       13.1635188256
  H        12.7071780094       -3.1942509142       13.7878484753
  H        12.0403753852       -1.8536907215       13.2756043383
  O         6.8648850715       -9.0048554633       13.7343592002
  H         6.0843186865       -9.3105147871       14.2085034458
  H         7.5727161242       -8.9682598683       14.4152180119
  O        23.4989190047       -6.2738457607       23.7596820581
  H        23.4308299825       -7.0435764275       23.1385781223
  H        24.1372510785       -5.6016121872       23.3210790451
  O        16.8492297980       -0.8082203309        2.7772828924
  H        17.7441194297       -0.4177366082        2.9777108230
  H        16.8102255841       -0.8201586909        1.7954166018
  O        21.8442216166        2.9089438927       11.0771352062
  H        21.3548190782        2.6084034873       10.2782109388
  H        21.4195874660        3.8062115812       11.3194648556
  O        14.0521086175       -6.3452330787        3.3576537485
  H        14.3860889515       -6.8264925238        2.5339829811
  H        13.4870244188       -7.0130117453        3.8750225608
  O        16.6618308063       -2.5489220105       10.4393308004
  H        16.9012405238       -3.5803349997       10.4740820663
  H        17.2807740185       -2.1929815959        9.7874771782
  O        18.3216886653       -7.8868589945        4.4755070118
  H        19.1191672283       -7.4193714768        4.1494910127
  H        18.6085950973       -8.7946640067        4.6163271081
  O        13.6952985144        0.2784266949        9.7131683057
  H        13.2221787791       -0.4488127291        9.2295478334
  H        14.1528250152       -0.0465612573       10.5923114832
  O        10.4931539379       -1.1055409011       13.2171492413
  H        10.1922626253       -1.1901731303       14.1775283470
  H        10.3478889873       -0.1339150263       13.0555201758
  O        20.7321564635       -6.8623178670       10.9908060468
  H        21.5275852690       -6.3397341625       10.9635431567
  H        20.3676693101       -6.4823751509       11.8404414298
  O        14.9816581404       -0.9566850716       11.8404688657
  H        15.4348757255       -1.7099535383       11.4054107812
  H        14.3605370367       -1.3708461074       12.4663135418
  O        20.8480399841       -2.9606594651       12.3592762649
  H        20.8741517708       -3.2424476844       11.4168759343
  H        21.6608380030       -2.4517377170       12.4794131833
  O        20.1467678995       -5.3835070587       13.3532288073
  H        19.7460061911       -5.4877067671       14.2236106790
  H        20.2785935942       -4.4076841418       13.2926118107
  O        19.5621361381        0.2521549756       15.2328202225
  H        19.8057896181        0.7006048370       16.1231372125
  H        20.0919530318        0.7061894671       14.5647275216
  O        18.6488796163        5.0467484912        9.4073055824
  H        18.0397739213        4.2669325405        9.5927738941
  H        19.3692156263        5.1709080457       10.1095312257
  O        12.8676761759      -10.9399691477       13.2749499457
  H        13.8262801876      -10.6604528785       13.3752116186
  H        12.3884908778      -10.1964384028       12.9357135468
  O        21.7589835457       -1.8934073472        3.2024619714
  H        21.0838894962       -2.1389166742        2.5664068626
  H        21.5976704385       -0.9854426093        3.5907464333
  O        14.3505945063        4.2799784804       11.1609816319
  H        15.2110769118        3.7882365642       11.1551344215
  H        13.6429197851        3.6192650623       11.0081214763
  O        23.0582541265       -1.8250415975       18.7779615310
  H        23.9046056600       -2.1429062116       19.3068699645
  H        23.0286177286       -2.5673194095       18.0991329799
  O        12.8898925231       -4.3773521116        5.5147946392
  H        12.5122734198       -5.0435685344        4.8358669569
  H        13.1739404831       -5.1005074821        6.1891951102
  O        15.1675763901       -0.7083114150        5.6486456833
  H        15.1297777023       -1.1859904953        6.5454041329
  H        14.7017169398        0.1501766147        5.6593405390
  O        22.5102397353       -6.4767090237       13.8826444142
  H        23.0744491101       -6.5006704609       13.1311076792
  H        21.6343264891       -6.1315491419       13.5283459394
  O        24.4715074416       -9.9340778619       10.4551422633
  H        23.5661274110      -10.2029366486       10.5737523041
  H        24.8634308937      -10.8545378858       10.3388141498
  O        21.2909264564       -4.5566783623       19.5919866596
  H        21.7792516363       -4.3190893733       18.7330551341
  H        21.0186855790       -5.5186754673       19.2850363683
  O        12.9236415063       -6.1800035456        7.3385819114
  H        12.1159973971       -6.5647591269        7.6738564409
  H        13.4796297141       -6.1327712011        8.1794333705
  O        16.0284682975       -9.6933525259       15.7827807287
  H        16.6031143098       -9.1515376667       16.3677034126
  H        15.8547196561       -9.1618082521       14.9620262226
  O        12.4859520736       -3.3936315490       10.6353347785
  H        13.1531463926       -4.1286002812       10.5178623010
  H        12.5150863813       -3.0641813037       11.6149801887
  O        17.7627639372        0.7084130526       19.1427666988
  H        17.1401076635        0.3006282745       18.4787354696
  H        17.0860834439        1.1538195788       19.7651082776
  O        16.9537498705       -5.2704836978       10.1042657157
  H        17.7045721644       -5.7951565639        9.6795090098
  H        16.9915604018       -5.6519084199       11.0229313795
  O        15.1598298224       -2.4857719002        8.0323686246
  H        15.5379086778       -3.2932086299        7.6087038202
  H        15.5317293657       -2.5417063427        8.9642022099
  O        27.9447667625        1.6097518102        8.1170169533
  H        27.4740641901        1.9318112698        7.3335741990
  H        27.3677710855        1.0695058317        8.6855595995
  O        22.7202662619        3.0392375263        5.4485068195
  H        22.3745746419        3.2380830637        6.3560664947
  H        22.8187685151        2.0996708544        5.3336381224
  O        22.2104123431       -4.1723593789       16.8087537091
  H        23.0441178965       -4.4909398500       16.3029510694
  H        21.9828831842       -3.2472326963       16.5126571661
  O        23.5589237513       -7.8465498598        9.0472139646
  H        22.6757837718       -8.0382196130        8.7560100573
  H        24.0886057292       -8.6825100349        9.2438419062
  O        19.5898574282       -6.7245090811       19.3718417453
  H        18.9655973128       -6.7791990868       20.1515377405
  H        19.0588688861       -6.9205806455       18.5755347832
  O        21.3005141112       -8.9582201325        7.7613406889
  H        20.9080879188       -9.6098673167        8.4368558352
  H        20.5696062048       -8.3828088563        7.4414934094
  O        12.2205843703       -4.3964298100        2.6024060130
  H        12.8687875347       -5.1025597022        2.6507772559
  H        11.4590221814       -4.8314939913        2.1184359878
  O        18.2412802564       -1.4207721333       20.9621177199
  H        19.2273733738       -1.5475948792       20.8422187130
  H        18.0170123154       -0.9164494594       20.1458535745
  O        18.8356235942       -3.7640552078       18.0544421201
  H        17.9748413329       -3.9278698694       18.5025204995
  H        19.5438185763       -3.7549948545       18.7036725250
  O        14.2938005250        1.9125334518        5.2703356301
  H        15.0460522485        2.1128447983        4.6039715892
  H        13.7515654621        2.7990883501        5.2490264915
  O        19.1153334226       -2.8930650047       14.8955882168
  H        19.1453649971       -3.0710717578       15.8583617029
  H        18.8281804829       -1.9517780592       14.7664994759
  O        22.2903802605        0.3243428514        4.6298275176
  H        22.9625653199        0.4789288036        3.8976235817
  H        22.8265456870       -0.3166792391        5.0933535350
  O        21.3514238425       -0.8697171219        8.7013256912
  H        21.5270954736       -1.3833818061        9.5338347577
  H        21.7919144087       -1.4177532090        7.9643690216
  O        18.4194790734       -1.4974963476       12.5435960470
  H        17.7787027518       -1.9063711672       11.8721277706
  H        19.2383908486       -2.0527577146       12.5549790244
  O        12.5048090232        0.1491328829       15.6262640696
  H        12.4727122362        0.7942777193       14.7599693535
  H        12.9795281072        0.8006154062       16.2642024302
  O        12.6207519508       -1.8434770051        8.2415259294
  H        13.4876497085       -2.3185126751        8.0519254256
  H        12.2399857510       -2.2750600259        9.0256788951
  O        28.7664709332       -4.7313965029        7.1090427354
  H        28.6195196091       -4.8436161493        6.1324718413
  H        28.1884960776       -5.4402573927        7.4377979121
  O        14.2299221012       -5.8779610798        9.7364431559
  H        14.2273511713       -6.6800335096       10.2871133543
  H        15.2069764376       -5.6086696406        9.7499859155
  O         9.7970847900       -3.5802974241        9.7203679978
  H         9.7713345077       -4.0635613029        8.8397773546
  H        10.7063332869       -3.7650575473       10.1038763450
  O        16.8507028200        2.9682724415       10.2611802371
  H        16.5310337874        2.4129592527        9.5538489342
  H        17.4654429921        2.3716206557       10.6994207533
  O        19.6517390194        1.9902088279        5.0918679400
  H        19.0638001745        1.4928907304        5.7385533354
  H        20.4427226911        2.2459570525        5.6147565354
  O        17.4051473476       -6.7278277727       12.6292558920
  H        17.5948443040       -5.9967695409       13.2899758543
  H        18.0609016494       -7.4556508677       12.7676863677
  O        16.3149665068       -5.9014503166       16.8322137130
  H        16.9142775853       -6.7292911028       16.8503827083
  H        15.4006943132       -6.0665612765       16.4479855897
  O         7.4015325666       -5.9525649365       16.1319297994
  H         7.0107774940       -5.3402285952       16.7991025247
  H         8.3310172813       -5.7270007784       16.0562836760
  O        22.1031649524        1.6175951235       13.5256708304
  H        21.9354650610        1.9307741612       12.5926949421
  H        21.9639579492        2.4636339248       14.0546410753
  O        17.0575052122       -4.8910224523       14.2884057497
  H        16.9170095009       -5.2086368075       15.1936736428
  H        17.5988141499       -4.1374283130       14.5471232717
  O        25.0444770618       -8.0098820630        4.9260146151
  H        24.1278034185       -8.4371860015        4.8846780167
  H        25.1237604463       -7.6113259065        5.8166928501
  O         9.0192938276       -8.5688849952        2.8601368785
  H         9.6670002007       -7.8863419757        2.4481040390
  H         9.3787634099       -8.8579737997        3.7406698068
  O        15.0892458179       -7.9098188797        1.3420765486
  H        14.7441441241       -7.9605567727        0.4353141214
  H        15.8306744559       -7.3108613244        1.1836949126
  N        14.3391694758       -1.9954915888       15.9468140558
  H        14.8646447861       -1.5481411456       16.7325106941
  H        13.8414073848       -2.8200881928       16.3215743306
  H        15.0749099919       -2.3654645607       15.2813731370
  H        13.6046058533       -1.2912279820       15.5664945246
