     194
 CELL 12.4294 12.4294 12.4294 90.0 90.0 90.0 i =    28820, time =    14410.000, E =     -1097.1305069342
  O        -9.8652324553        3.9644081267        6.4396804112
  H        -9.4228173688        3.1766819961        5.9820970534
  H        -9.6417911771        4.6488861415        5.7901792891
  O         0.2824095683       -7.5102073345        3.5580245806
  H         0.5677947244       -6.5424490339        3.7131270549
  H         0.8298374139       -7.9470262310        4.2206001486
  O        -4.2533116364       -7.4113038944        6.7069102853
  H        -4.5630022540       -6.4554139262        6.6975461656
  H        -3.2886207128       -7.2785855843        6.4761345719
  O       -11.3617090232        0.9649946669        7.1415613253
  H       -11.9743438727        0.2757375922        6.9345651718
  H       -10.9430084702        0.6335425050        7.9960286223
  O       -17.7198530091       -4.8521775468        6.8904717688
  H       -18.2581848383       -4.5773830463        7.6472514995
  H       -17.0968391545       -4.0765611173        6.6931893596
  O        -2.9203800758       -1.9511870292       13.9074822773
  H        -2.2278264451       -1.2438028793       14.0737604585
  H        -2.5122522390       -2.6245130388       13.3575816345
  O        -4.6222137848        4.4053283620       -2.7085920971
  H        -3.9087023624        4.2885376693       -2.0417734078
  H        -4.3315894946        4.7527524942       -3.5917461724
  O        -1.7366417513        4.9264172232        5.9344947339
  H        -0.9982177713        4.8051239831        6.6232190800
  H        -1.3932567053        5.5728288613        5.3169847189
  O       -10.8268445997       -3.6851093246       -1.5259993017
  H       -10.8703157394       -4.6452858987       -1.7499976027
  H       -10.7500753419       -3.6797518708       -0.5330107336
  O        -3.1984297738        1.6733762351        1.1815753475
  H        -3.9624746479        1.0580544846        1.1767442165
  H        -2.5052598611        1.1242548715        1.6890686549
  O        -2.0850831285       -4.4416192240       -1.0124925046
  H        -1.6275392966       -3.6295849316       -1.2876597675
  H        -1.5459415382       -4.8657230564       -0.2797071679
  O        -7.8167796347        5.1493349242        4.7257255642
  H        -7.7585798812        5.2420766299        3.7437378640
  H        -7.0142514513        4.6132389446        5.0423881215
  O       -12.3439401187        4.1770994109        7.8158172823
  H       -12.8945786064        3.6542922055        8.4567434398
  H       -11.9057360858        3.4568692349        7.3180237366
  O        -4.8203615499       -3.0804926040        3.2740218616
  H        -4.1456009916       -2.5853739703        2.7075250588
  H        -4.7289292598       -2.8200338181        4.2682486120
  O        -5.2909389960        0.2163049825        2.3413249182
  H        -5.5289699855       -0.6452787760        1.8553675806
  H        -4.7768434118       -0.0216625338        3.1216676952
  O         0.9699906292        1.8761749947        3.9988584643
  H         1.2562876082        1.9239007354        3.0824738977
  H         1.5343778613        1.1102907072        4.3306122972
  O        -1.2533763797        0.1001486966        2.1606316157
  H        -0.8477728704        0.0216791212        3.0694326448
  H        -0.4774639623        0.4590443174        1.6247425771
  O        -1.3278716344        6.4580946945        8.8542316914
  H        -1.5751820373        6.7473191389        7.9831557264
  H        -1.7042405607        7.0108076632        9.5340745717
  O        -4.1372338551        6.5355926714        2.1217239885
  H        -4.0760018359        5.6312950032        2.5897760120
  H        -4.4195729611        7.2162369678        2.7502554393
  O        -9.2559943956       -7.8673004660        9.1071748182
  H        -8.3146603860       -7.6021257085        9.4561306455
  H        -9.3456957395       -7.9309488498        8.1241373251
  O        -1.6844694034        2.3844477894       -3.2565287871
  H        -1.1678199598        1.5911837687       -3.0078540141
  H        -1.9876037467        2.7490031300       -2.4506307135
  O        -7.5483928904        7.7278938576        5.3659006396
  H        -6.6072237017        7.6975738463        5.6760139816
  H        -7.8646399190        6.8108412570        5.2156163081
  O        -0.4795274979        0.4550432445       10.6633070995
  H        -0.8307715278       -0.5037587596       10.6633122295
  H         0.4323131032        0.3869593227       10.2015903477
  O        -8.5718234219       -2.0088008271       -2.1412383734
  H        -7.8456640287       -1.9504797760       -1.4986767792
  H        -9.1550347156       -2.7127588099       -1.7077013654
  O        -8.2231837163        3.6848570125        1.2103021490
  H        -7.7526329142        2.9330062406        1.6925118619
  H        -7.6016545513        4.5243873810        1.0875456516
  O        -0.3811806405       -1.5230781037        4.8734150774
  H        -0.8607738217       -2.0987442021        4.2280653181
  H         0.5645664698       -1.6491429380        4.6230077125
  O         1.5620968544       -4.9249205513        4.2535212832
  H         1.6940833882       -5.1864860423        5.2095478455
  H         2.4487136105       -4.7858623749        3.8455892142
  O        -3.4771291536        0.3641010045        8.0824155481
  H        -3.8654523363        0.0791183740        8.9141231308
  H        -2.8237295795        0.9951305779        8.3577101749
  O       -10.8246252564       -3.1097542690        1.1218539338
  H       -11.7085613709       -3.1289984600        1.6025857529
  H       -10.1463100389       -3.3277200741        1.8527833957
  O        -7.2892695122       -4.7014251631        9.3869339258
  H        -6.6875003162       -4.0212731297        9.6970218164
  H        -7.9632485820       -4.2113821246        8.7953584098
  O       -10.2135914541       -1.2565044112        3.9567290341
  H       -10.3079071328       -0.9266251053        3.0209221799
  H        -9.6062202433       -2.0066259402        3.8363528031
  O        -6.4087323581        1.7831276516        9.8436226653
  H        -5.7818517206        2.4982181256        9.5844099366
  H        -7.2678850968        2.1636201035       10.1549121438
  O        -6.6884896746       -3.8352632618        1.3731141444
  H        -6.7646401177       -4.8111366533        1.2045651513
  H        -5.9947407368       -3.6626783714        2.0651284958
  O        -7.7184329874        1.5703531271        2.9110771374
  H        -8.2753980997        0.9331780598        2.4076071726
  H        -6.8296843990        1.1330395207        2.7424367133
  O         5.3168144310        0.2043156855       -0.2498517313
  H         4.4784555916       -0.2537186766       -0.3433770936
  H         5.3842494948        0.9263025040       -0.8582023552
  O         3.4882328913        2.5200476908       -1.4394074834
  H         3.8843653426        3.0966456287       -0.7217787666
  H         3.0557757165        3.1389393134       -2.0769558422
  O        -0.5286342225       -2.3563272387       10.0513432344
  H        -0.5132951433       -2.2003807505        9.1447692100
  H         0.2989666683       -2.8694561169       10.2579987520
  O        -0.5681885638       -3.6170323494        3.0651936982
  H        -1.0517612831       -4.1990747174        2.4165640345
  H         0.2334000481       -4.0676452071        3.3714644254
  O        -5.2309271523       -3.3279785277       11.4186202365
  H        -4.3925645236       -3.8408600682       11.3602685785
  H        -5.5965727728       -3.4209759531       12.3379234691
  O        -0.2297670803       -7.5585656032        0.0431063204
  H         0.5554535395       -7.9530742225        0.4789718912
  H         0.1541727767       -7.2274552936       -0.8249912757
  O       -11.5176011580       -2.0865193152       -4.8732641634
  H       -10.5448655186       -2.1568614862       -4.9573471735
  H       -11.8841622484       -2.1080379665       -5.7903707896
  O        -2.5420060187        3.7769015345       11.3148510520
  H        -1.7669881750        4.1759161787       11.7395733379
  H        -2.6665211109        3.0596159171       12.0395062099
  O        -4.9432043101       -0.6215700172       10.1965764255
  H        -5.1437629664       -1.4357144317       10.7560010461
  H        -5.5561559214        0.0903041026       10.4125434029
  O        -6.8208393623        5.7848110551        0.9075649242
  H        -6.8987086271        5.7057190918       -0.1179059057
  H        -5.9012490879        5.5248483342        1.0676065257
  O        -1.7756686304        2.4565525469        4.7702318306
  H        -1.8027024743        3.3891639306        4.9961817241
  H        -0.8511512636        2.2735326691        4.4919043060
  O         1.6535985446        3.5221640760        1.6465466459
  H         2.6145068137        3.6460697595        1.5112136937
  H         1.4192999665        3.8875970235        2.5079037443
  O         0.7424338417        1.2162496189        0.6934570375
  H         1.0589639751        2.1077519905        0.9365674886
  H         0.3014189166        1.1990453320       -0.1842466989
  O        -3.8369166971        3.8119595202        2.8843285011
  H        -3.5885075239        3.2657070791        2.0897558876
  H        -3.1893801767        3.5614961120        3.5019953133
  O        -6.8411251609        5.4397463951       10.7259356528
  H        -7.0566916610        6.2829737341       10.2508260612
  H        -6.1276191522        5.0545693491       10.1734144415
  O        -8.7328677306        1.4279349636        5.6205110370
  H        -8.5343737392        1.4176685460        4.6708023123
  H        -9.4788245962        0.8616095682        5.8398563584
  O         2.0461899055        0.3895503035       -2.6448557054
  H         2.4866969450       -0.4392915008       -2.4121881647
  H         2.3923870239        1.1928481506       -2.1479033443
  O        -8.6716941403       -3.4822156499        3.1001719256
  H        -8.1931455691       -3.8812420732        3.8888367457
  H        -7.9183413085       -3.6159548661        2.3345152860
  O        -9.6719845170       -0.4896437933        1.2963546700
  H        -9.9072771315       -1.2477926131        0.7620399383
  H       -10.3634241635        0.2179967905        0.9830399016
  O        -5.7365781369        3.4092674486        5.2583477514
  H        -5.1819522399        4.0185750164        5.8815285662
  H        -5.2316562695        3.4228704446        4.4071712195
  O        -1.3880274070        6.7006889479        1.4097795728
  H        -0.8694551325        5.9690276614        0.9707163932
  H        -2.3593119935        6.4783324256        1.3920870121
  O        -4.4263472886       -2.5121729680        6.1194261340
  H        -5.1025940124       -2.0323972176        6.6803896843
  H        -3.5003815932       -2.1645881681        6.3847801845
  O        -6.5056292691       -1.6069539232        7.7265522104
  H        -6.1483847991       -1.2517506764        8.5524194480
  H        -7.3167295085       -2.0765338396        8.0052596001
  O       -14.5243328405       -1.6191263030        6.9155008182
  H       -13.8330896771       -1.3930197195        6.2431742833
  H       -14.8479561618       -0.8261197512        7.3829961828
  O         1.1523458401        6.7660267191        6.8059196603
  H         1.1066154978        5.9625998651        7.3554502118
  H         0.2756523752        7.2433342091        6.9361954640
  O        -3.8183299760        0.3501433483        4.8786142451
  H        -3.6337080609       -0.2015672633        5.6427729477
  H        -3.1855391841        1.1691820007        4.9157067936
  O         1.0125537753       -6.4020733274       -2.2389977591
  H         1.6344067178       -6.8575294090       -2.8326090092
  H         0.2751371219       -6.2348052466       -2.8382023325
  O       -13.8948367469       -4.3313241471       -5.9986622414
  H       -13.8538976806       -4.1304392815       -6.9732992997
  H       -13.9452983843       -3.4544050558       -5.5686393802
  O        -8.9754773879       -3.5926659410       -4.9560158486
  H        -9.7494513118       -4.1110957830       -4.9269865888
  H        -8.5146444729       -3.7909586042       -5.7868158762
  N        -5.9085226596        1.2414838213        6.8135433870
  H        -5.7012020947        1.9884850429        6.1012651182
  H        -5.0674901259        0.9954737348        7.4061463030
  H        -6.2303601164        0.3444599169        6.4754998566
  H        -6.5932228345        1.6634397453        7.5160126669
