     194
 CELL 12.4294 12.4294 12.4294 90.0 90.0 90.0 i =    31220, time =    15610.000, E =     -1097.0980464601
  O        -7.5651265334        4.5125086482        7.3791562503
  H        -7.2122535860        3.7204065853        6.9644753918
  H        -7.5966158112        5.0914106001        6.5519929883
  O         0.3782861260       -7.8670562009        3.7566108729
  H         0.8966422736       -7.0802023416        3.5761189582
  H         1.0036596615       -8.3283037096        4.3690820017
  O        -3.6667162504       -8.1012592043        8.3809151312
  H        -3.9875096382       -7.2197884776        8.1128097519
  H        -2.7361132570       -7.9781464116        8.0482871804
  O        -8.4999226897       -0.9984994035        7.5551318133
  H        -9.1410577737       -1.6778522126        7.7961176748
  H        -8.5627376705       -0.4570579020        8.3747310427
  O       -17.1594195654       -5.9168539165        7.4980865852
  H       -17.7446379551       -5.4260937280        8.2002471331
  H       -16.4286067055       -5.3501014169        7.1239485007
  O        -2.1847106608       -2.5158005497       14.7210137567
  H        -1.7508965340       -1.6063040798       14.7887728852
  H        -2.0542638927       -2.8561263742       13.8688216114
  O        -3.7071060827        3.4954765904       -1.3345656762
  H        -2.7333761550        3.4815108122       -1.0150172722
  H        -3.7424927326        3.8368940938       -2.2687893641
  O        -1.8304525045        4.8563046400        5.7120326502
  H        -1.6700124514        4.0567136918        6.2679260875
  H        -0.9642144910        4.9936733783        5.1561005991
  O        -8.9098416493       -3.4732886409        0.0413799198
  H        -9.2203917080       -4.4054622222       -0.1282656060
  H        -8.7588766490       -3.4405019603        1.0266643914
  O        -2.9108186547        1.3332378028        2.1834662690
  H        -3.6441785840        0.8310824153        2.5947641384
  H        -2.1030450602        0.9165468026        2.6324861969
  O        -0.9848510372       -3.8263866703       -0.1681556659
  H        -0.1256351104       -3.3734444625       -0.4458638475
  H        -0.8477783703       -4.3599892771        0.7214033484
  O        -7.2576808173        5.3797820179        4.3638668776
  H        -6.9188296689        5.5706720650        3.4323508679
  H        -6.5274244924        4.9020368807        4.8372381001
  O       -10.2717310646        3.2385976508        8.7778768686
  H       -11.0192351141        2.9118969645        9.3112646550
  H        -9.6846902912        3.6193160401        9.4016182455
  O        -2.2363969816       -4.3811872978        4.3079510753
  H        -2.0648062113       -3.7593968199        3.6500188208
  H        -2.9076792715       -4.0339088679        4.9112427791
  O        -3.8924502046       -0.3931773252        4.1323347984
  H        -4.2904027174       -1.2183051198        4.4926827596
  H        -3.3544609803       -0.1452208099        4.9902222265
  O         1.6364242984        2.6899749186        5.6984999618
  H         1.8649554165        1.8022642250        5.3717153346
  H         2.3024933168        2.8576845039        6.3972394512
  O        -0.7821230455       -0.2128807124        2.6871228602
  H        -0.5638240878       -0.6603690723        3.5893586458
  H         0.0933738507        0.0359269924        2.2742174814
  O         0.2083766412        6.6240897079       10.4486877447
  H         0.1279439291        6.6048023460        9.4508039408
  H        -0.5855312951        7.1490591470       10.7936095293
  O        -3.0910375840        6.2636011695        2.1775103139
  H        -2.9486183983        5.3224393527        2.2979006640
  H        -2.8024969338        6.7061383103        3.0219035230
  O        -7.2967494316       -7.8741846271       10.3576326453
  H        -6.6766445180       -7.1899013708       10.6781132985
  H        -7.3746497902       -7.8036489621        9.3449092678
  O        -0.1574682273        1.7970976384       -2.6617775527
  H         0.4085713066        1.0147628593       -2.3266323031
  H        -0.6730804446        2.0988880191       -1.8388752692
  O        -6.8747187227        7.8186645539        5.6585305695
  H        -6.0618217413        7.6325716933        6.2393110847
  H        -7.0942522978        6.9415005782        5.1725414071
  O         1.4572513350        0.1383468144       10.9400271535
  H         1.2558255892       -0.8416697612       11.0581863825
  H         2.3970957980        0.0894195324       10.6446128767
  O        -6.7635587344       -2.1731035074       -1.1975699661
  H        -6.5183384440       -1.4641314201       -0.5548981088
  H        -7.1759114143       -2.8357953814       -0.6111351015
  O        -6.8840753622        2.9019741669        1.9575691358
  H        -6.4197130607        2.2411330006        2.5402211669
  H        -6.3151503202        3.6838788601        2.0774780441
  O        -0.1941032977       -1.4124054543        4.9219674050
  H         0.1746793206       -2.3158629452        4.5431911373
  H         0.6449792158       -0.8719132727        5.0481496777
  O         2.3923354799       -5.9150204360        4.9825713913
  H         2.2182773587       -6.1382152052        5.9186735404
  H         2.9859307295       -6.6443074533        4.6684074119
  O        -1.9412730897       -0.2841738551        8.8345976613
  H        -2.6358760979       -0.6198152139        9.4529935165
  H        -1.3248287615        0.4030870608        9.2096527727
  O        -8.8180516141       -2.7585391599        2.6943247339
  H        -9.6690385743       -2.7451997759        3.1881180021
  H        -8.0895892184       -2.7174116240        3.3263287734
  O        -6.2965116710       -4.7872978599        9.4347920909
  H        -6.6563565346       -3.9518764240        9.7793605762
  H        -7.1437579497       -5.1844651638        9.1244394740
  O       -10.0166261245       -0.0239398189        5.0367808193
  H        -9.3658633896       -0.0059002994        4.2412396604
  H        -9.4687748094       -0.4616134799        5.7378999176
  O        -5.0361893325        1.2154414216       10.3723966947
  H        -4.4616054257        1.8936424370       10.7426640564
  H        -5.8981255455        1.3521672829       10.8562407126
  O        -4.7996900384       -3.0769058879        2.3495834052
  H        -4.7355892540       -3.9863448384        2.1615914585
  H        -3.8625315277       -2.8435086149        2.4212145697
  O        -6.3726165520        0.9633468912        3.8145240812
  H        -6.9668930474        0.2109111044        3.6153957169
  H        -5.4870661487        0.6512697609        4.1345051910
  O         6.1489972899       -0.1429627154        0.8519081946
  H         5.3685472242        0.2438676486        1.3492520827
  H         6.8710517823       -0.5152605963        1.4062110659
  O         5.1920254471        2.0325004600       -0.7216449568
  H         5.2431343860        2.2285511870        0.2455642751
  H         4.9978956854        2.8479878724       -1.2169664689
  O         1.1721639374       -2.3196799527       11.2762036514
  H         1.3804500973       -2.5540215002       10.3207231180
  H         1.8909930261       -2.7906204350       11.7069471676
  O         0.9613502769       -3.5653251537        3.8287344079
  H         0.5230814343       -4.2426452908        3.2615832029
  H         1.3991673330       -4.1873106620        4.5301091641
  O        -3.6327964052       -3.5288066094       11.6768620854
  H        -2.6786500150       -3.5650246763       11.9186266120
  H        -3.9673889694       -3.5680694352       12.5717255410
  O         0.7076972060       -7.6177880540        0.7389422389
  H         1.3065180583       -7.9505096258        1.4539499377
  H         1.3032567671       -7.3405074587       -0.0087768369
  O       -10.5433092333       -3.1053030700       -3.7914532429
  H        -9.9946794691       -3.8450636816       -4.2051786275
  H       -11.4190240428       -3.2627845484       -4.2715373979
  O        -1.3643396537        3.0228355623       12.3625754228
  H        -0.6458673263        3.7195525819       12.5889277078
  H        -1.6697957631        2.6688069314       13.2454220809
  O        -3.8655028995       -1.4356315006       10.1616551575
  H        -3.7923061475       -2.2238103645       10.8255298585
  H        -4.4196787938       -0.7102782254       10.5035801433
  O        -5.7306756019        5.7325225711        1.9595125749
  H        -5.8134024304        5.6035085921        0.9477998257
  H        -4.7805027014        5.9900162305        2.0581734408
  O        -0.9015630494        2.5968812531        6.8970009806
  H        -0.7552034380        2.4581013717        7.8735887628
  H        -0.0182202372        2.4390260468        6.4727493680
  O         2.7931940135        3.3070744986        2.2731617650
  H         3.7691643989        3.1619142032        2.3438075742
  H         2.4433434796        3.1702079076        3.1434731935
  O         1.5206007131        0.9394875836        1.1281393094
  H         1.7003761222        1.8944104098        1.2057485982
  H         1.4781636218        0.6665505345        0.2161071863
  O        -2.9727339631        3.7798626671        3.3878891149
  H        -2.6818912875        2.9115967623        2.9210154777
  H        -2.5226232155        3.9334003357        4.2705386436
  O        -5.2350195733        5.7314711433       11.7524366111
  H        -5.0548283925        6.5244488440       11.1942528328
  H        -4.4664452228        5.0747515223       11.6143527078
  O        -7.5548601736        1.6534788735        6.4488636829
  H        -7.4234613919        1.6216065245        5.4769091815
  H        -7.7942100040        0.7293488657        6.7503991310
  O         3.9028954304       -0.1441913645       -2.3277928660
  H         4.4553408883       -0.9956698345       -1.9951013202
  H         4.1547722311        0.5784991614       -1.6740459779
  O        -6.7781861884       -2.0574920249        4.3531816526
  H        -6.8158044798       -2.6465783013        5.1456703079
  H        -6.1867905464       -2.5046403850        3.6655118542
  O        -8.8024327330        0.0691800316        2.6305454750
  H        -9.0282296054       -0.8841242733        2.4458126253
  H        -9.5221522873        0.5662927595        2.1931219872
  O        -5.0864199265        3.9265266479        5.2969288145
  H        -4.6998625336        4.4155344518        6.0414571408
  H        -4.4064199203        3.8355880252        4.6116514738
  O        -0.2941533853        7.2353463364        2.1172893558
  H         0.3147110492        6.6697162521        1.5859516166
  H        -1.1738365067        6.7693892745        2.3043212776
  O        -3.4600874078       -3.2208060703        6.5862017493
  H        -4.1179281092       -2.8061180823        7.1398188992
  H        -2.5880581873       -2.8811616776        6.9564822574
  O        -5.4386351138       -1.5320846146        7.6081565270
  H        -5.1843575448       -1.4682148149        8.5687189383
  H        -6.4510236235       -1.6880902397        7.5910318267
  O       -12.9475186292       -2.2393542646        7.5354587807
  H       -12.7491095978       -1.8054960829        6.6638022275
  H       -13.3815210879       -1.5404183940        8.0957065150
  O         1.6701694192        5.8068883686        7.9784671134
  H         1.7762984976        4.7835620256        8.1336326331
  H         0.7215225213        5.9580116049        7.6672377978
  O        -2.8934167224        0.5300350629        6.4449414496
  H        -2.6497859281       -0.0224682278        7.2404460754
  H        -2.2182564485        1.2008114694        6.5280861731
  O         2.5368827549       -6.2292889244       -0.8513649599
  H         3.2121615172       -6.6848960692       -1.4005708906
  H         1.7430418970       -5.8521250572       -1.4256092205
  O       -13.1722431297       -5.5444201114       -5.2371087432
  H       -13.5581556725       -6.1136950040       -5.9506849900
  H       -13.6131292312       -4.6986122237       -5.3784689374
  O        -8.5850820707       -4.8564769027       -4.6630176575
  H        -9.1711527102       -5.6504198044       -4.4846216619
  H        -8.1409549302       -4.9043737992       -5.5530788834
  N        -5.0459754074        1.7437583535        7.6970925235
  H        -4.8412141865        2.7840201612        7.9454974834
  H        -4.1701873753        1.3724618198        7.2443840181
  H        -5.8019211247        1.6708151303        6.9154920011
  H        -5.3038198345        1.2637114203        8.5601798065
