

     ************************************************************************
     *************** Dalton - An Electronic Structure Program ***************
     ************************************************************************

    This is output from DALTON release Dalton2017.alpha (2016)
         ( Web site: http://daltonprogram.org )

   ----------------------------------------------------------------------------

    NOTE:
     
    Dalton is an experimental code for the evaluation of molecular
    properties using (MC)SCF, DFT, CI, and CC wave functions.
    The authors accept no responsibility for the performance of
    the code or for the correctness of the results.
     
    The code (in whole or part) is provided under a licence and
    is not to be reproduced for further distribution without
    the written permission of the authors or their representatives.
     
    See the home page "http://daltonprogram.org" for further information.
     
    If results obtained with this code are published,
    the appropriate citations would be both of:
     
       K. Aidas, C. Angeli, K. L. Bak, V. Bakken, R. Bast,
       L. Boman, O. Christiansen, R. Cimiraglia, S. Coriani,
       P. Dahle, E. K. Dalskov, U. Ekstroem,
       T. Enevoldsen, J. J. Eriksen, P. Ettenhuber, B. Fernandez,
       L. Ferrighi, H. Fliegl, L. Frediani, K. Hald, A. Halkier,
       C. Haettig, H. Heiberg, T. Helgaker, A. C. Hennum,
       H. Hettema, E. Hjertenaes, S. Hoest, I.-M. Hoeyvik,
       M. F. Iozzi, B. Jansik, H. J. Aa. Jensen, D. Jonsson,
       P. Joergensen, J. Kauczor, S. Kirpekar,
       T. Kjaergaard, W. Klopper, S. Knecht, R. Kobayashi, H. Koch,
       J. Kongsted, A. Krapp, K. Kristensen, A. Ligabue,
       O. B. Lutnaes, J. I. Melo, K. V. Mikkelsen, R. H. Myhre,
       C. Neiss, C. B. Nielsen, P. Norman, J. Olsen,
       J. M. H. Olsen, A. Osted, M. J. Packer, F. Pawlowski,
       T. B. Pedersen, P. F. Provasi, S. Reine, Z. Rinkevicius,
       T. A. Ruden, K. Ruud, V. Rybkin, P. Salek, C. C. M. Samson,
       A. Sanchez de Meras, T. Saue, S. P. A. Sauer,
       B. Schimmelpfennig, K. Sneskov, A. H. Steindal,
       K. O. Sylvester-Hvid, P. R. Taylor, A. M. Teale,
       E. I. Tellgren, D. P. Tew, A. J. Thorvaldsen, L. Thoegersen,
       O. Vahtras, M. A. Watson, D. J. D. Wilson, M. Ziolkowski
       and H. Agren,
       "The Dalton quantum chemistry program system",
       WIREs Comput. Mol. Sci. 2014, 4:269–284 (doi: 10.1002/wcms.1172)
     
    and
     
       Dalton, a Molecular Electronic Structure Program,
       Release Dalton2017.alpha (2016), see http://daltonprogram.org
   ----------------------------------------------------------------------------

    Authors in alphabetical order (major contribution(s) in parenthesis):

  Kestutis Aidas,           Vilnius University,           Lithuania   (QM/MM)
  Celestino Angeli,         University of Ferrara,        Italy       (NEVPT2)
  Keld L. Bak,              UNI-C,                        Denmark     (AOSOPPA, non-adiabatic coupling, magnetic properties)
  Vebjoern Bakken,          University of Oslo,           Norway      (DALTON; geometry optimizer, symmetry detection)
  Radovan Bast,             UiT The Arctic U. of Norway,  Norway      (DALTON installation and execution frameworks)
  Pablo Baudin,             University of Valencia,       Spain       (Cholesky excitation energies)
  Linus Boman,              NTNU,                         Norway      (Cholesky decomposition and subsystems)
  Ove Christiansen,         Aarhus University,            Denmark     (CC module)
  Renzo Cimiraglia,         University of Ferrara,        Italy       (NEVPT2)
  Sonia Coriani,            University of Trieste,        Italy       (CC module, MCD in RESPONS)
  Janusz Cukras,            University of Trieste,        Italy       (MChD in RESPONS)
  Paal Dahle,               University of Oslo,           Norway      (Parallelization)
  Erik K. Dalskov,          UNI-C,                        Denmark     (SOPPA)
  Thomas Enevoldsen,        Univ. of Southern Denmark,    Denmark     (SOPPA)
  Janus J. Eriksen,         Aarhus University,            Denmark     (Polarizable embedding model, TDA)
  Rasmus Faber,             University of Copenhagen,     Denmark     (Vib.avg. NMR with SOPPA, parallel AO-SOPPA)
  Berta Fernandez,          U. of Santiago de Compostela, Spain       (doublet spin, ESR in RESPONS)
  Lara Ferrighi,            Aarhus University,            Denmark     (PCM Cubic response)
  Heike Fliegl,             University of Oslo,           Norway      (CCSD(R12))
  Luca Frediani,            UiT The Arctic U. of Norway,  Norway      (PCM)
  Bin Gao,                  UiT The Arctic U. of Norway,  Norway      (Gen1Int library)
  Christof Haettig,         Ruhr-University Bochum,       Germany     (CC module)
  Kasper Hald,              Aarhus University,            Denmark     (CC module)
  Asger Halkier,            Aarhus University,            Denmark     (CC module)
  Frederik Beyer Hansen,    University of Copenhagen,     Denmark     (Parallel AO-SOPPA)
  Erik D. Hedegaard,        Univ. of Southern Denmark,    Denmark     (Polarizable embedding model, QM/MM)
  Hanne Heiberg,            University of Oslo,           Norway      (geometry analysis, selected one-electron integrals)
  Trygve Helgaker,          University of Oslo,           Norway      (DALTON; ABACUS, ERI, DFT modules, London, and much more)
  Alf Christian Hennum,     University of Oslo,           Norway      (Parity violation)
  Hinne Hettema,            University of Auckland,       New Zealand (quadratic response in RESPONS; SIRIUS supersymmetry)
  Eirik Hjertenaes,         NTNU,                         Norway      (Cholesky decomposition)
  Pi A. B. Haase,           University of Copenhagen,     Denmark     (Triplet AO-SOPPA)
  Maria Francesca Iozzi,    University of Oslo,           Norway      (RPA)
  Brano Jansik              Technical Univ. of Ostrava    Czech Rep.  (DFT cubic response)
  Hans Joergen Aa. Jensen,  Univ. of Southern Denmark,    Denmark     (DALTON; SIRIUS, RESPONS, ABACUS modules, London, and much more)
  Dan Jonsson,              UiT The Arctic U. of Norway,  Norway      (cubic response in RESPONS module)
  Poul Joergensen,          Aarhus University,            Denmark     (RESPONS, ABACUS, and CC modules)
  Maciej Kaminski,          University of Warsaw,         Poland      (CPPh in RESPONS)
  Joanna Kauczor,           Linkoeping University,        Sweden      (Complex polarization propagator (CPP) module)
  Sheela Kirpekar,          Univ. of Southern Denmark,    Denmark     (Mass-velocity & Darwin integrals)
  Wim Klopper,              KIT Karlsruhe,                Germany     (R12 code in CC, SIRIUS, and ABACUS modules)
  Stefan Knecht,            ETH Zurich,                   Switzerland (Parallel CI and MCSCF)
  Rika Kobayashi,           Australian National Univ.,    Australia   (DIIS in CC, London in MCSCF)
  Henrik Koch,              NTNU,                         Norway      (CC module, Cholesky decomposition)
  Jacob Kongsted,           Univ. of Southern Denmark,    Denmark     (Polarizable embedding model, QM/MM)
  Andrea Ligabue,           University of Modena,         Italy       (CTOCD, AOSOPPA)
  Nanna H. List             Univ. of Southern Denmark,    Denmark     (Polarizable embedding model)
  Ola B. Lutnaes,           University of Oslo,           Norway      (DFT Hessian)
  Juan I. Melo,             University of Buenos Aires,   Argentina   (LRESC, Relativistic Effects on NMR Shieldings)
  Kurt V. Mikkelsen,        University of Copenhagen,     Denmark     (MC-SCRF and QM/MM)
  Rolf H. Myhre,            NTNU,                         Norway      (Cholesky, subsystems and ECC2)
  Christian Neiss,          Univ. Erlangen-Nuernberg,     Germany     (CCSD(R12))
  Christian B. Nielsen,     University of Copenhagen,     Denmark     (QM/MM)
  Patrick Norman,           Linkoeping University,        Sweden      (Cubic response and complex frequency response in RESPONS)
  Jeppe Olsen,              Aarhus University,            Denmark     (SIRIUS CI/density modules)
  Jogvan Magnus H. Olsen,   Univ. of Southern Denmark,    Denmark     (Polarizable embedding model, QM/MM)
  Anders Osted,             Copenhagen University,        Denmark     (QM/MM)
  Martin J. Packer,         University of Sheffield,      UK          (SOPPA)
  Filip Pawlowski,          Kazimierz Wielki University,  Poland      (CC3)
  Morten N. Pedersen,       Univ. of Southern Denmark,    Denmark     (Polarizable embedding model)
  Thomas B. Pedersen,       University of Oslo,           Norway      (Cholesky decomposition)
  Patricio F. Provasi,      University of Northeastern,   Argentina   (Analysis of coupling constants in localized orbitals)
  Zilvinas Rinkevicius,     KTH Stockholm,                Sweden      (open-shell DFT, ESR)
  Elias Rudberg,            KTH Stockholm,                Sweden      (DFT grid and basis info)
  Torgeir A. Ruden,         University of Oslo,           Norway      (Numerical derivatives in ABACUS)
  Kenneth Ruud,             UiT The Arctic U. of Norway,  Norway      (DALTON; ABACUS magnetic properties and much more)
  Pawel Salek,              KTH Stockholm,                Sweden      (DALTON; DFT code)
  Claire C. M. Samson       University of Karlsruhe       Germany     (Boys localization, r12 integrals in ERI)
  Alfredo Sanchez de Meras, University of Valencia,       Spain       (CC module, Cholesky decomposition)
  Trond Saue,               Paul Sabatier University,     France      (direct Fock matrix construction)
  Stephan P. A. Sauer,      University of Copenhagen,     Denmark     (SOPPA(CCSD), SOPPA prop., AOSOPPA, vibrational g-factors)
  Bernd Schimmelpfennig,    Forschungszentrum Karlsruhe,  Germany     (AMFI module)
  Kristian Sneskov,         Aarhus University,            Denmark     (Polarizable embedding model, QM/MM)
  Arnfinn H. Steindal,      UiT The Arctic U. of Norway,  Norway      (parallel QM/MM, Polarizable embedding model)
  Casper Steinmann,         Univ. of Southern Denmark,    Denmark     (QFIT, Polarizable embedding model)
  K. O. Sylvester-Hvid,     University of Copenhagen,     Denmark     (MC-SCRF)
  Peter R. Taylor,          VLSCI/Univ. of Melbourne,     Australia   (Symmetry handling ABACUS, integral transformation)
  Andrew M. Teale,          University of Nottingham,     England     (DFT-AC, DFT-D)
  David P. Tew,             University of Bristol,        England     (CCSD(R12))
  Olav Vahtras,             KTH Stockholm,                Sweden      (triplet response, spin-orbit, ESR, TDDFT, open-shell DFT)
  David J. Wilson,          La Trobe University,          Australia   (DFT Hessian and DFT magnetizabilities)
  Hans Agren,               KTH Stockholm,                Sweden      (SIRIUS module, RESPONS, MC-SCRF solvation model)
 --------------------------------------------------------------------------------

     Date and time (Linux)  : Tue Dec  4 09:18:15 2018
     Host name              : n-62-29-10                              

 * Work memory size             :  1280000000 =  9.537 gigabytes.

 * Directories for basis set searches:
   1) /zhome/d7/7/119775/My_Codes/dalton-private/build2016/basis/diffs
   2) /zhome/37/3/129401/NH3NH4/CCSD/AIMD_SAMPLING/nh3_4h2o_nd
   3) /zhome/9a/4/124800/source/dalton/build-mlcc/basis


Compilation information
-----------------------

 Who compiled             | rfaber
 Host                     | hpclogin1
 System                   | Linux-2.6.32-696.1.1.el6.x86_64
 CMake generator          | Unix Makefiles
 Processor                | x86_64
 64-bit integers          | ON
 MPI                      | OFF
 Fortran compiler         | /opt/intel/2016update2/compilers_and_libraries_201
                          | 6.2.181/linux/bin/intel64/ifort
 Fortran compiler version | ifort (IFORT) 16.0.2 20160204
 C compiler               | /opt/intel/2016update2/compilers_and_libraries_201
                          | 6.2.181/linux/bin/intel64/icc
 C compiler version       | icc (ICC) 16.0.2 20160204
 C++ compiler             | /opt/intel/2016update2/compilers_and_libraries_201
                          | 6.2.181/linux/bin/intel64/icpc
 C++ compiler version     | icpc (ICC) 16.0.2 20160204
 Static linking           | OFF
 Last Git revision        | bb4d1599ca5680a9f3980451fc8bbefdba436d59
 Git branch               | mlcc
 Configuration time       | 2017-06-13 16:11:03.928841


   Content of the .dal input file
 ----------------------------------

**DALTON
.RUN WAVE FUNCTIONS
*QMMM
.QMMM
**INTEGRALS
.DIPLEN
**WAVE FUNCTIONS
.CC
*PRINT
!To check the origin of excit
.PRINTL
   0 11
*SCF INP
.THRESH
1.0D-7
*CC INP
.CCSD
.THRLEQ
 1.0D-9
.THRENR
 1.0D-10
.FROIMP
4
0
.PRINT
 1
.MAX IT
 1200
.MAXRED
 1200
.MXLRV
1199
*CCSLV
.CCMM
.MXSLIT
200
.MXINIT
4 5
*CCEXCI
.NCCEXC
 1
.IONISATION
1
1
.CVSEPARA
1
1
*CCLRSD
.DIPOLE
**END OF DALTON INPUT


   Content of the .mol file
 ----------------------------

ATOMBASIS


Atomtypes=5 Charge=0 Nosymm Angstrom
   7.00000    1    Basis=6-311G**
N          0.000000        0.000000        0.000000
   1.00000    3    Basis=6-311G**
H          0.489143        0.098351        0.866927
H         -0.899541       -0.352827        0.182290
H          0.525449       -0.684798       -0.569945
   8.00000    4    Basis=6-311G**
O         -2.982651        0.362280        1.194934
O          2.455303       -2.119360        0.149540
O         -0.650684       -0.134435        2.811642
O         -0.371880        2.325203       -1.670335
   1.00000    8    Basis=6-311G**
H         -3.768646        0.696454        1.689742
H         -2.739026        0.971071        0.423847
H          2.647654       -1.488523        0.828902
H          3.074172       -1.919377       -0.578251
H         -0.424231        0.639448        3.342286
H         -1.488154        0.034106        2.281437
H          0.241396        2.225749       -2.483202
H         -0.256160        1.514600       -1.069627
   0.00000    1    Basis=diffs
X          0.000000        0.000000        0.000000


       *******************************************************************
       *********** Output from DALTON general input processing ***********
       *******************************************************************

 --------------------------------------------------------------------------------
   Overall default print level:    0
   Print level for DALTON.STAT:    1

    HERMIT 1- and 2-electron integral sections will be executed
    "Old" integral transformation used (limited to max 255 basis functions)
    Wave function sections will be executed (SIRIUS module)
 --------------------------------------------------------------------------------


 Changes of defaults for *QMMM  :
 --------------------------------

 +------------------+
 |  WORD: | CHANGE: |
 +------------------+
 |   QMMM |       T |
 +------------------+
 


   ****************************************************************************
   *************** Output of molecule and basis set information ***************
   ****************************************************************************


    The two title cards from your ".mol" input:
    ------------------------------------------------------------------------
 1:                                                                         
 2:                                                                         
    ------------------------------------------------------------------------

  Coordinates are entered in Angstrom and converted to atomic units.
          - Conversion factor : 1 bohr = 0.52917721 A

  Atomic type no.    1
  --------------------
  Nuclear charge:   7.00000
  Number of symmetry independent centers:    1
  Number of basis sets to read;    2
  The basis set is "6-311G**" from the basis set library.
  Basis set file used for this atomic type with Z =   7 :
     "/zhome/9a/4/124800/source/dalton/build-mlcc/basis/6-311G**"

  Info about the basis set file: your basis has no documentation.
  Basis set: 6-311G**                                                                        

  Atomic type no.    2
  --------------------
  Nuclear charge:   1.00000
  Number of symmetry independent centers:    3
  Number of basis sets to read;    2
  The basis set is "6-311G**" from the basis set library.
  Basis set file used for this atomic type with Z =   1 :
     "/zhome/9a/4/124800/source/dalton/build-mlcc/basis/6-311G**"

  Info about the basis set file: your basis has no documentation.
  Basis set: 6-311G**                                                                        

  Atomic type no.    3
  --------------------
  Nuclear charge:   8.00000
  Number of symmetry independent centers:    4
  Number of basis sets to read;    2
  The basis set is "6-311G**" from the basis set library.
  Basis set file used for this atomic type with Z =   8 :
     "/zhome/9a/4/124800/source/dalton/build-mlcc/basis/6-311G**"

  Info about the basis set file: your basis has no documentation.
  Basis set: 6-311G**                                                                        

  Atomic type no.    4
  --------------------
  Nuclear charge:   1.00000
  Number of symmetry independent centers:    8
  Number of basis sets to read;    2
  The basis set is "6-311G**" from the basis set library.
  Basis set file used for this atomic type with Z =   1 :
     "/zhome/9a/4/124800/source/dalton/build-mlcc/basis/6-311G**"

  Info about the basis set file: your basis has no documentation.
  Basis set: 6-311G**                                                                        

  Atomic type no.    5
  --------------------
  Nuclear charge:   0.00000
  Number of symmetry independent centers:    1
  Number of basis sets to read;    2
  The basis set is "diffs" from the basis set library.
  Basis set file used for this atomic type with Z =   0 :
     "/zhome/9a/4/124800/source/dalton/build-mlcc/basis/diffs"

  Info about the basis set file: your basis has no documentation.
  Basis set: diffs                                                                           


                         SYMGRP: Point group information
                         -------------------------------

@    Point group: C1 


                                 Isotopic Masses
                                 ---------------

                           N          14.003074
                           H           1.007825
                           H           1.007825
                           H           1.007825
                           O          15.994915
                           O          15.994915
                           O          15.994915
                           O          15.994915
                           H           1.007825
                           H           1.007825
                           H           1.007825
                           H           1.007825
                           H           1.007825
                           H           1.007825
                           H           1.007825
                           H           1.007825

                       Total mass:    89.068809 amu
                       Natural abundance:  98.514 %

 Center-of-mass coordinates (a.u.):   -0.581522    0.184257    0.948646


  Atoms and basis sets
  --------------------

  Number of atom types :    5
  Total number of atoms:   17

  label    atoms   charge   prim   cont     basis
  ----------------------------------------------------------------------
  N           1    7.0000    31    18      [11s5p1d|4s3p1d]                                   
  H           3    1.0000     8     6      [5s1p|3s1p]                                        
  O           4    8.0000    31    18      [11s5p1d|4s3p1d]                                   
  H           8    1.0000     8     6      [5s1p|3s1p]                                        
  X           1    0.0000     1     1      [1s|1s]                                            
  ----------------------------------------------------------------------
  total:     17   50.0000   244   157
  ----------------------------------------------------------------------
  Spherical harmonic basis used.

  Threshold for neglecting AO integrals:  1.00D-12


  Cartesian Coordinates (a.u.)
  ----------------------------

  Total number of coordinates:   51
  N       :     1  x   0.0000000000    2  y   0.0000000000    3  z   0.0000000000
  H       :     4  x   0.9243463060    5  y   0.1858564541    6  z   1.6382546004
  H       :     7  x  -1.6998861282    8  y  -0.6667463995    9  z   0.3444781753
  H       :    10  x   0.9929547027   11  y  -1.2940806709   12  z  -1.0770399563
  O       :    13  x  -5.6363935164   14  y   0.6846099806   15  z   2.2580979974
  O       :    16  x   4.6398502239   17  y  -4.0050099603   18  z   0.2825896447
  O       :    19  x  -1.2296145539   20  y  -0.2540453316   21  z   5.3132333415
  O       :    22  x  -0.7027513514   23  y   4.3939968550   24  z  -3.1564756870
  H       :    25  x  -7.1217088021   26  y   1.3161073187   27  z   3.1931496019
  H       :    28  x  -5.1760089892   29  y   1.8350582379   30  z   0.8009547489
  H       :    31  x   5.0033409337   32  y  -2.8129008008   33  z   1.5663977645
  H       :    34  x   5.8093431411   35  y  -3.6270968606   36  z  -1.0927360215
  H       :    37  x  -0.8016804037   38  y   1.2083815912   39  z   6.3160051714
  H       :    40  x  -2.8122034918   41  y   0.0644509992   42  z   4.3112911014
  H       :    43  x   0.4561723277   44  y   4.2060560330   45  z  -4.6925716930
  H       :    46  x  -0.4840722442   47  y   2.8621791889   48  z  -2.0213020859
  X       :    49  x   0.0000000000   50  y   0.0000000000   51  z   0.0000000000

  Max    interatomic separation is    7.6688 Angstrom (   14.4919 Bohr)
  between atoms   12 and    9, "H     " and "H     ".

  Min HX interatomic separation is    0.9468 Angstrom (    1.7892 Bohr)

  Min YX interatomic separation is    2.8807 Angstrom (    5.4438 Bohr)


  Bond distances (Angstrom):
  --------------------------

                  atom 1     atom 2       distance
                  ------     ------       --------
  bond distance:  H          N            1.000248
  bond distance:  H          N            0.983306
  bond distance:  H          N            1.034351
  bond distance:  H          O            0.987064
  bond distance:  H          O            1.012203
  bond distance:  H          O            0.946830
  bond distance:  H          O            0.976049
  bond distance:  H          O            0.965277
  bond distance:  H          O            1.005425
  bond distance:  H          O            1.023109
  bond distance:  H          O            1.015538


  Bond angles (degrees):
  ----------------------

                  atom 1     atom 2     atom 3         angle
                  ------     ------     ------         -----
  bond angle:     H          N          H            108.782
  bond angle:     H          N          H            107.112
  bond angle:     H          N          H            109.227
  bond angle:     H          O          H            111.710
  bond angle:     H          O          H            105.646
  bond angle:     H          O          H            110.543
  bond angle:     H          O          H            108.909




 Principal moments of inertia (u*A**2) and principal axes
 --------------------------------------------------------

   IA     290.912132          0.851134   -0.509150   -0.127816
   IB     399.970322         -0.170892   -0.498960    0.849608
   IC     625.278023          0.496354    0.701288    0.511692


 Rotational constants
 --------------------

               A                   B                   C

           1737.2222           1263.5413            808.2469 MHz
            0.057947            0.042147            0.026960 cm-1


@  Nuclear repulsion energy :  187.746224612258 Hartree

  Number of floating/multiple basis set orbitals :    1


                     .---------------------------------------.
                     | Starting in Integral Section (HERMIT) |
                     `---------------------------------------'



 ***************************************************************************************
 ****************** Output from **INTEGRALS input processing (HERMIT) ******************
 ***************************************************************************************



    *************************************************************************
    ****************** Output from HERMIT input processing ******************
    *************************************************************************


 Default print level:        1

 * Nuclear model: Point charge

 Calculation of one- and two-electron Hamiltonian integrals.

 The following one-electron property integrals are calculated as requested:
          - overlap integrals
          - dipole length integrals

 Center of mass  (bohr):     -0.581522004925      0.184257173238      0.948646225775
 Operator center (bohr):      0.000000000000      0.000000000000      0.000000000000
 Gauge origin    (bohr):      0.000000000000      0.000000000000      0.000000000000
 Dipole origin   (bohr):      0.000000000000      0.000000000000      0.000000000000
 
  *********************************** 
  QMMM electrostatic potential: 
  Multipole order                                    0
  Isotropic polarization  
  *********************************** 
 
  ---------------- 
  QMMM information 
  ---------------- 
 
  MM coordinates in au 
  -------------------- 
     1      9.967377      9.757064     -9.802684
     2     10.588665      9.363104    -11.452825
     3      8.873228     11.336709    -10.021580
     4     -7.468806     -7.606038      4.871825
     5     -6.450505     -9.229368      5.163866
     6     -7.227305     -6.657515      6.459010
     7     -7.433995     -3.974580      8.419607
     8     -6.590010     -3.754839      9.999064
     9     -9.260671     -3.741943      8.622004
    10    -10.043206      7.941786      9.088143
    11     -8.968294      9.102072     10.102710
    12     -9.425429      8.499166      7.374021
    13      1.487318     -2.652459     -6.464589
    14      0.689160     -1.725934     -7.865822
    15      0.381577     -4.023571     -6.152088
    16      8.062035      6.589158     -6.236625
    17      7.421094      7.570328     -4.686997
    18      8.278102      7.734658     -7.689643
    19     -1.403760     -8.603409     -9.424174
    20     -2.767869     -7.358325     -9.919220
    21     -0.790667     -9.302672    -11.060646
    22      7.070798     -4.512120    -11.391279
    23      6.945205     -4.168080     -9.570618
    24      5.515202     -3.804837    -12.155019
    25     -9.912337      7.135598     -5.131154
    26    -11.369484      8.311807     -5.007270
    27    -10.077618      6.134013     -6.659608
    28     -7.692882     -0.184386     -6.802882
    29     -7.157614      0.659560     -5.233712
    30     -9.431298     -0.932725     -6.623798
    31     -2.132681     -5.407325     -3.295749
    32     -1.828699     -6.407166     -1.694321
    33     -3.513749     -4.358396     -2.667116
    34     -2.805342      4.540560     10.985993
    35     -3.023847      5.920773     12.284535
    36     -4.410664      4.269207     10.049652
    37     10.979913      3.695182     -1.383053
    38     11.623324      4.726810     -2.903303
    39      9.113558      3.858403     -1.233470
    40    -11.532991     10.847361      0.244857
    41    -11.950656     12.310504      1.391122
    42    -11.176056     11.468113     -1.453657
    43      8.496386     10.692904      7.252998
    44      7.672849     10.748944      5.601282
    45      9.290657      8.956423      7.112736
    46     -0.431636     -0.504782    -11.302204
    47      0.948295     -0.714834    -12.623580
    48     -1.493073      0.945895    -11.846447
    49     -6.721299     11.645895     11.109416
    50     -5.255638     11.389432     12.218013
    51     -7.963196     12.846213     11.860050
    52     -8.776739      8.423783      3.772768
    53     -9.743313      9.362384      2.344296
    54     -6.969059      8.302327      3.474020
    55     10.911213     -2.149609      8.857806
    56     10.950693     -0.558737      9.774038
    57      9.706837     -2.924181     10.064368
    58      0.222011    -10.146593      9.114157
    59      1.668233    -11.215237      9.092122
    60      0.532423     -8.302595      8.262051
    61     10.767754     -7.998708      8.658568
    62     10.809449     -9.648486      7.921978
    63     11.500267     -8.177580     10.292388
    64      2.131592      9.231231     -8.813715
    65      2.553589     10.566171     -7.569255
    66      2.527906      7.446145     -8.112182
    67      7.746004     -5.949912     -5.879958
    68      8.375635     -4.179934     -5.721732
    69      9.205071     -7.136694     -6.051215
    70      5.967062    -11.680280      2.463543
    71      5.549351     -9.957872      2.937946
    72      4.590413    -12.259617      1.370284
    73      3.541698     -2.484644      9.062682
    74      2.498458     -3.683054      8.196011
    75      4.695425     -1.670335      7.689989
    76     -3.280134      8.941258     -9.483944
    77     -3.931751      8.890842     -7.700545
    78     -1.441765      9.179103     -9.208875
    79     -5.438724      2.839457     -3.088468
    80     -6.805380      4.066265     -2.853080
    81     -3.850236      3.882282     -3.283067
    82      6.665304     -9.825667    -10.260720
    83      5.458321     -9.583975     -8.926611
    84      6.922008     -8.168466    -11.054592
    85      5.038754      3.772661      4.239017
    86      3.730112      4.597322      5.156942
    87      6.800695      4.270176      4.838203
    88      1.829992      3.725854     -7.915793
    89      0.404715      2.751271     -8.534944
    90      3.215390      2.714850     -8.370041
    91     -5.950551     -8.899918     -6.644065
    92     -4.915843     -7.721306     -5.658203
    93     -5.226759    -10.598160     -6.257828
    94      6.754465      9.625879     -2.347677
    95      5.561940     10.947573     -2.495417
    96      7.922344     10.265416     -1.140599
    97      5.772881     -1.024031     -3.995733
    98      4.105772     -1.476649     -4.556177
    99      5.521243      0.464313     -2.997140
   100      2.225094     -9.093415     -5.428080
   101      1.334946     -8.327770     -7.003729
   102      3.712609     -7.983299     -5.196257
   103     -8.739040      4.324340     -9.113251
   104     -7.789634      5.035958    -10.499641
   105     -7.866076      2.608145     -8.659224
   106      0.473953     -6.712162      1.807105
   107      1.821252     -5.820591      0.863047
   108      0.860823     -8.478723      1.538313
   109      0.798226      5.744992      7.389080
   110     -0.359685      5.620265      8.931010
   111      2.039874      7.137000      7.931893
   112     -4.678403     -3.820786    -10.293200
   113     -2.959564     -3.020332    -10.356852
   114     -5.613186     -2.550822     -9.253288
   115     -5.817624      9.604771     -4.326683
   116     -7.499771      8.613689     -4.734992
   117     -4.785132      8.694647     -3.058389
   118    -10.890031     -5.403475     -1.454543
   119     -9.112329     -4.787198     -1.168877
   120    -11.303249     -5.972803      0.318392
   121      1.305651    -11.234730     -0.490614
   122      0.070698    -12.634996     -0.793439
   123      1.538853    -10.536656     -2.131658
   124    -10.797107    -10.071722     -4.305975
   125    -10.895613     -8.671806     -3.064733
   126     -9.115359     -9.810407     -5.077208
   127     -1.880731      8.512931     -0.839772
   128     -1.546790      6.933020     -1.635789
   129     -2.444705      8.137667      0.887722
   130      3.638076      9.595916      9.480873
   131      3.492970      9.443657     11.336484
   132      5.394992     10.110912      8.937947
   133     11.596442     -8.307794      2.958744
   134     13.236031     -8.015228      3.861049
   135     10.055577     -7.886324      4.051204
   136     -3.585400      7.674626      4.141924
   137     -2.156023      6.572084      4.746750
   138     -3.762913      9.159436      5.214718
   139      7.032595      2.030977     -8.299944
   140      6.899604      0.914389     -6.822257
   141      7.373114      3.780981     -7.615207
   142    -10.173847      3.401577      3.544057
   143     -9.458743      5.109372      4.043581
   144    -10.781642      3.662941      1.844059
   145      5.714054      4.077704     -0.878823
   146      5.137062      5.851106     -1.269017
   147      4.888311      3.764652      0.800463
   148     -9.967453     -8.605488     -9.884751
   149     -8.635878     -8.112880     -8.619228
   150    -11.254408     -9.666684     -8.965469
   151     -6.369146     -4.070196      0.252575
   152     -6.265270     -2.420465      1.074772
   153     -6.432722     -5.249230      1.636614
   154     10.177829      3.013879     11.446466
   155     11.918047      3.565703     12.010083
   156      9.232563      2.717970     12.995987
   157      9.066713      4.813771      6.401149
   158     10.512480      3.930508      5.651358
   159      9.038887      4.192650      8.202179
   160      0.263415     -5.693883      6.620531
   161     -0.960327     -4.290415      6.543169
   162      0.599867     -6.065252      4.698647
   163     -4.262325    -11.504090      6.624339
   164     -5.361822    -11.523883      8.159650
   165     -2.636788    -10.653494      7.296021
   166     -6.773357      2.004440      8.580447
   167     -8.164341      2.908300      7.788417
   168     -7.005443      0.126714      8.250595
   169      6.669747     -6.955009      5.530006
   170      6.076324     -5.149216      5.591320
   171      7.683354     -7.335981      7.145714
   172      6.176649     -1.004539      4.807029
   173      5.591981      0.812435      4.728208
   174      7.963669     -0.830769      5.315093
   175     11.194670     -1.803371     -4.937818
   176     11.271950     -3.210478     -3.573610
   177     10.729769     -0.347422     -3.967644
 
  MM charges 
  ---------- 
     1     -0.674440
     2      0.337220
     3      0.337220
     4     -0.674440
     5      0.337220
     6      0.337220
     7     -0.674440
     8      0.337220
     9      0.337220
    10     -0.674440
    11      0.337220
    12      0.337220
    13     -0.674440
    14      0.337220
    15      0.337220
    16     -0.674440
    17      0.337220
    18      0.337220
    19     -0.674440
    20      0.337220
    21      0.337220
    22     -0.674440
    23      0.337220
    24      0.337220
    25     -0.674440
    26      0.337220
    27      0.337220
    28     -0.674440
    29      0.337220
    30      0.337220
    31     -0.674440
    32      0.337220
    33      0.337220
    34     -0.674440
    35      0.337220
    36      0.337220
    37     -0.674440
    38      0.337220
    39      0.337220
    40     -0.674440
    41      0.337220
    42      0.337220
    43     -0.674440
    44      0.337220
    45      0.337220
    46     -0.674440
    47      0.337220
    48      0.337220
    49     -0.674440
    50      0.337220
    51      0.337220
    52     -0.674440
    53      0.337220
    54      0.337220
    55     -0.674440
    56      0.337220
    57      0.337220
    58     -0.674440
    59      0.337220
    60      0.337220
    61     -0.674440
    62      0.337220
    63      0.337220
    64     -0.674440
    65      0.337220
    66      0.337220
    67     -0.674440
    68      0.337220
    69      0.337220
    70     -0.674440
    71      0.337220
    72      0.337220
    73     -0.674440
    74      0.337220
    75      0.337220
    76     -0.674440
    77      0.337220
    78      0.337220
    79     -0.674440
    80      0.337220
    81      0.337220
    82     -0.674440
    83      0.337220
    84      0.337220
    85     -0.674440
    86      0.337220
    87      0.337220
    88     -0.674440
    89      0.337220
    90      0.337220
    91     -0.674440
    92      0.337220
    93      0.337220
    94     -0.674440
    95      0.337220
    96      0.337220
    97     -0.674440
    98      0.337220
    99      0.337220
   100     -0.674440
   101      0.337220
   102      0.337220
   103     -0.674440
   104      0.337220
   105      0.337220
   106     -0.674440
   107      0.337220
   108      0.337220
   109     -0.674440
   110      0.337220
   111      0.337220
   112     -0.674440
   113      0.337220
   114      0.337220
   115     -0.674440
   116      0.337220
   117      0.337220
   118     -0.674440
   119      0.337220
   120      0.337220
   121     -0.674440
   122      0.337220
   123      0.337220
   124     -0.674440
   125      0.337220
   126      0.337220
   127     -0.674440
   128      0.337220
   129      0.337220
   130     -0.674440
   131      0.337220
   132      0.337220
   133     -0.674440
   134      0.337220
   135      0.337220
   136     -0.674440
   137      0.337220
   138      0.337220
   139     -0.674440
   140      0.337220
   141      0.337220
   142     -0.674440
   143      0.337220
   144      0.337220
   145     -0.674440
   146      0.337220
   147      0.337220
   148     -0.674440
   149      0.337220
   150      0.337220
   151     -0.674440
   152      0.337220
   153      0.337220
   154     -0.674440
   155      0.337220
   156      0.337220
   157     -0.674440
   158      0.337220
   159      0.337220
   160     -0.674440
   161      0.337220
   162      0.337220
   163     -0.674440
   164      0.337220
   165      0.337220
   166     -0.674440
   167      0.337220
   168      0.337220
   169     -0.674440
   170      0.337220
   171      0.337220
   172     -0.674440
   173      0.337220
   174      0.337220
   175     -0.674440
   176      0.337220
   177      0.337220
 
  MM isotropic polarizabilities in au 
  ----------------------------------- 
     1      5.739350
     2      2.308390
     3      2.308390
     4      5.739350
     5      2.308390
     6      2.308390
     7      5.739350
     8      2.308390
     9      2.308390
    10      5.739350
    11      2.308390
    12      2.308390
    13      5.739350
    14      2.308390
    15      2.308390
    16      5.739350
    17      2.308390
    18      2.308390
    19      5.739350
    20      2.308390
    21      2.308390
    22      5.739350
    23      2.308390
    24      2.308390
    25      5.739350
    26      2.308390
    27      2.308390
    28      5.739350
    29      2.308390
    30      2.308390
    31      5.739350
    32      2.308390
    33      2.308390
    34      5.739350
    35      2.308390
    36      2.308390
    37      5.739350
    38      2.308390
    39      2.308390
    40      5.739350
    41      2.308390
    42      2.308390
    43      5.739350
    44      2.308390
    45      2.308390
    46      5.739350
    47      2.308390
    48      2.308390
    49      5.739350
    50      2.308390
    51      2.308390
    52      5.739350
    53      2.308390
    54      2.308390
    55      5.739350
    56      2.308390
    57      2.308390
    58      5.739350
    59      2.308390
    60      2.308390
    61      5.739350
    62      2.308390
    63      2.308390
    64      5.739350
    65      2.308390
    66      2.308390
    67      5.739350
    68      2.308390
    69      2.308390
    70      5.739350
    71      2.308390
    72      2.308390
    73      5.739350
    74      2.308390
    75      2.308390
    76      5.739350
    77      2.308390
    78      2.308390
    79      5.739350
    80      2.308390
    81      2.308390
    82      5.739350
    83      2.308390
    84      2.308390
    85      5.739350
    86      2.308390
    87      2.308390
    88      5.739350
    89      2.308390
    90      2.308390
    91      5.739350
    92      2.308390
    93      2.308390
    94      5.739350
    95      2.308390
    96      2.308390
    97      5.739350
    98      2.308390
    99      2.308390
   100      5.739350
   101      2.308390
   102      2.308390
   103      5.739350
   104      2.308390
   105      2.308390
   106      5.739350
   107      2.308390
   108      2.308390
   109      5.739350
   110      2.308390
   111      2.308390
   112      5.739350
   113      2.308390
   114      2.308390
   115      5.739350
   116      2.308390
   117      2.308390
   118      5.739350
   119      2.308390
   120      2.308390
   121      5.739350
   122      2.308390
   123      2.308390
   124      5.739350
   125      2.308390
   126      2.308390
   127      5.739350
   128      2.308390
   129      2.308390
   130      5.739350
   131      2.308390
   132      2.308390
   133      5.739350
   134      2.308390
   135      2.308390
   136      5.739350
   137      2.308390
   138      2.308390
   139      5.739350
   140      2.308390
   141      2.308390
   142      5.739350
   143      2.308390
   144      2.308390
   145      5.739350
   146      2.308390
   147      2.308390
   148      5.739350
   149      2.308390
   150      2.308390
   151      5.739350
   152      2.308390
   153      2.308390
   154      5.739350
   155      2.308390
   156      2.308390
   157      5.739350
   158      2.308390
   159      2.308390
   160      5.739350
   161      2.308390
   162      2.308390
   163      5.739350
   164      2.308390
   165      2.308390
   166      5.739350
   167      2.308390
   168      2.308390
   169      5.739350
   170      2.308390
   171      2.308390
   172      5.739350
   173      2.308390
   174      2.308390
   175      5.739350
   176      2.308390
   177      2.308390


     ************************************************************************
     ************************** Output from HERINT **************************
     ************************************************************************



                      Nuclear contribution to dipole moments
                      --------------------------------------

                 au               Debye          C m (/(10**-30)

      x    -28.34067623       -72.03480917      -240.28225943
      y      9.83367744        24.99471333        83.37338935
      z     46.86644378       119.12261044       397.35025767



 Threshold for neglecting two-electron integrals:  1.00D-12
 HERMIT - Number of two-electron integrals written:    31787069 ( 41.3% )
 HERMIT - Megabytes written:                            363.980

  Time used in TWOINT     is       6.10 seconds
  Total CPU  time used in HERMIT:   6.29 seconds
  Total wall time used in HERMIT:   7.22 seconds


                        .----------------------------------.
                        | End of Integral Section (HERMIT) |
                        `----------------------------------'



                   .--------------------------------------------.
                   | Starting in Wave Function Section (SIRIUS) |
                   `--------------------------------------------'

NCCEXCI for singlet:    1
 CCSD_INPUT: core-val requested
 Requested number of virtual orbs per sym
                     1
 Indices of requested virtual orbs
                     1
 CCSD_INPUT: core-val requested
 Requested number of core orbs per sym
                     1
 Indices of requested core orbs
                     1

 *** Output from Huckel module :

     Using EWMO model:          T
     Using EHT  model:          F
     Number of Huckel orbitals each symmetry:   36

 EWMO - Energy Weighted Maximum Overlap - is a Huckel type method,
        which normally is better than Extended Huckel Theory.
 Reference: Linderberg and Ohrn, Propagators in Quantum Chemistry (Wiley, 1973)

 Huckel EWMO eigenvalues for symmetry :  1
          -20.685137     -20.684916     -20.684090     -20.683857     -15.674324
           -1.751147      -1.626241      -1.593317      -1.535729      -1.457720
           -0.838625      -0.815975      -0.787321      -0.781352      -0.732516
           -0.700814      -0.694974      -0.685146      -0.681123      -0.662063
           -0.616088      -0.607554      -0.593663      -0.587272      -0.510132
           -0.267891      -0.240004      -0.233425      -0.219340      -0.183703
           -0.178333      -0.168998      -0.167232      -0.161207      -0.146414
           -0.138156

 **********************************************************************
 *SIRIUS* a direct, restricted step, second order MCSCF program       *
 **********************************************************************

 
     Date and time (Linux)  : Tue Dec  4 09:18:24 2018
     Host name              : n-62-29-10                              

 Title lines from ".mol" input file:
                                                                             
                                                                             

 Print level on unit LUPRI =   2 is   0
 Print level on unit LUW4  =   2 is  11

@    (Integral direct) CC calculation.

@    This is a combination run starting with
@              a restricted, closed shell Hartree-Fock calculation


 Initial molecular orbitals are obtained according to
 ".MOSTART EWMO  " input option

@    QM part is embedded in an environment :

@         Model: QMMM

     Wave function specification
     ============================

     For the specification of the Coupled Cluster: see later.

@    Wave function type        --- CC ---
@    Number of closed shell electrons          50
@    Number of electrons in active shells       0
@    Total charge of the molecule               0

@    Spin multiplicity and 2 M_S                1         0
@    Total number of symmetries                 1 (point group: C1 )
@    Reference state symmetry                   1 (irrep name : A  )

     Orbital specifications
     ======================
@    Abelian symmetry species          All |    1
@                                          |  A  
                                       --- |  ---
@    Occupied SCF orbitals              25 |   25
@    Secondary orbitals                132 |  132
@    Total number of orbitals          157 |  157
@    Number of basis functions         157 |  157

     Optimization information
     ========================
@    Number of configurations                 1
@    Number of orbital rotations           3300
     ------------------------------------------
@    Total number of variables             3301

     Maximum number of Fock   iterations      0
     Maximum number of DIIS   iterations     60
     Maximum number of QC-SCF iterations     60
     Threshold for SCF convergence     1.00D-07


 Changes of defaults for CC:
 ---------------------------


 -Implicit frozen core calculation
 -Excitation energies calculated
 -One-photon absorption strengths will be calculated
 -Oscillator strengths calculated
  
* Read MO coefficients from SIRIUS.RST with label "NEWORB  " and header info:  4Dec18  REORTHO 


 ***********************************************
 ***** DIIS acceleration of SCF iterations *****
 ***********************************************

 C1-DIIS algorithm; max error vectors =    8
 -----------------------------------------------------------------------------

 *** DIIS iteration number    1
 RDSUPM called. NFMAT, ISYMDM(1:NFMAT)                     1
                     1

Calculating AOSUPINT
     (Precalculated two-electron integrals are transformed to P-supermatrix elements.
      Threshold for discarding integrals :  1.00D-12 )
  CPU  time used in FORMSUP    is   4.54 seconds
  WALL time used in FORMSUP    is  20.53 seconds

 ITDIIS, energy, error norm, change in energy, scr.thr., difden:
@ DIIS iter.   1    -359.877415754        3.77873D+00   -3.60D+02  -20    F

 (DIIS_RED) Control Parameters C2DIIS =         F NEVC =    1


 (DIIS_RED) B matrix:

               Column   1
       1      14.27876624
    ==== End of matrix output ====

 DIIS C vector; C2DIIS = F, LAMBDA = -1.43D+01
    1.000000
* Read MO coefficients from SIRIUS.RST with label "NEWORB  " and header info:  4Dec18  DIIS   1
      Virial theorem: -V/T =      1.997799
@      MULPOP N      -0.38; H       0.17; H       0.18; H       0.15; O      -0.55; O      -0.65; O      -0.72; O      -0.81; H       0.30; H       0.33; 
@             H       0.34; H       0.33; H       0.32; H       0.34; H       0.32; H       0.32; 
   1  Level shift: doubly occupied orbital energies shifted by -2.00D-01

 DIIS Fock eigenvalues in symmetry 1
      -20.79515      -20.71756      -20.62697      -20.60299      -15.99302
       -1.59149       -1.55333       -1.50618       -1.49472       -1.45802
       -0.99063       -0.96518       -0.95285       -0.93505       -0.91570
       -0.89881       -0.83655       -0.80456       -0.79802       -0.78898
       -0.74532       -0.73666       -0.73028       -0.71036       -0.69781
        0.00000        0.08938        0.13670        0.17007        0.18579
        0.20091        0.21879        0.22962        0.25439        0.30025
        0.31549        0.34553        0.40845        0.45023        0.48917
        0.50145        0.52986        0.54397        0.55859        0.57874
        0.58907        0.60572        0.63035        0.81521        0.82602
        0.86967        0.91822        0.95566        0.96003        0.97593
        1.00828        1.01189        1.05160        1.06865        1.09563
        1.10954        1.13433        1.14469        1.21356        1.28053
        1.28529        1.30476        1.35640        1.40030        1.43550
        1.44796        1.47010        1.47598        1.48069        1.49836
        1.51873        1.59529        1.63226        1.66833        1.67435
        1.69040        1.71847        1.73609        1.76729        1.79823
        1.84812        1.86530        1.87300        1.88993        1.93226
        2.09980        2.14034        2.16829        2.21718        2.22982
        2.23240        2.27892        2.34074        2.36454        2.44103
        2.48566        2.54681        2.57313        2.60623        2.66270
        2.67074        2.70437        2.72737        2.73636        2.76220
        2.76796        2.83566        2.86572        2.89716        3.09128
        3.31111        3.33611        3.34271        3.41968        3.42710
        3.45236        3.46084        3.51639        3.52111        3.52935
        3.55536        3.61996        3.66255        3.66691        3.95431
        3.99498        4.01573        4.07759        4.12866        4.15638
        4.21677        4.21970        4.39356        5.02437        5.11205
        5.28926        5.36780        5.37570        5.45643        5.69808
        5.70889        5.73505        5.75733        6.03346        6.13357
        6.16045        6.23702       36.80806       51.47430       51.57485
       51.67831       51.68134
 Time used in FCKEIG, thr_jaco:   4.90D-02  5.70D-02  1.64D-04
 CPU and wall times used in FCKEIG, THR_FCKEIG:   4.90D-02  5.70D-02  3.78D-02
 -----------------------------------------------------------------------------

 *** DIIS iteration number    2
 RDSUPM called. NFMAT, ISYMDM(1:NFMAT)                     1
                     1

 ITDIIS, energy, error norm, change in energy, scr.thr., difden:
@ DIIS iter.   2    -360.661769608        9.31030D-01   -7.84D-01  -20    F

 (DIIS_RED) Control Parameters C2DIIS =         F NEVC =    2


 (DIIS_RED) B matrix:

               Column   1     Column   2
       1      14.27876624
       2       0.99084435     0.86681761
    ==== End of matrix output ====

 DIIS C vector; C2DIIS = F, LAMBDA = -8.66D-01
   -0.009422    1.009422
* Read MO coefficients from SIRIUS.RST with label "NEWORB  " and header info:  4Dec18  DIIS   2
      Virial theorem: -V/T =      2.003960
@      MULPOP N      -0.66; H       0.23; H       0.22; H       0.23; O      -0.58; O      -0.56; O      -0.56; O      -0.70; H       0.32; H       0.31; 
@             H       0.28; H       0.29; H       0.26; H       0.28; H       0.30; H       0.32; 
   2  Level shift: doubly occupied orbital energies shifted by -5.00D-02

 DIIS Fock eigenvalues in symmetry 1
      -20.69494      -20.65077      -20.64587      -20.60675      -15.48037
       -1.41487       -1.40145       -1.38595       -1.38295       -1.16796
       -0.79175       -0.76910       -0.76611       -0.75225       -0.67885
       -0.67321       -0.66116       -0.66081       -0.63761       -0.63523
       -0.60633       -0.59452       -0.56622       -0.55866       -0.46747
        0.00000        0.13359        0.17522        0.19000        0.20806
        0.23915        0.24707        0.25936        0.30078        0.33024
        0.33366        0.37553        0.47406        0.51256        0.53030
        0.54291        0.56540        0.57902        0.58636        0.61283
        0.63148        0.65062        0.69968        0.89320        0.89987
        0.94020        0.95369        0.97067        0.97922        0.99879
        1.03653        1.04177        1.07879        1.10494        1.11598
        1.12573        1.12877        1.16098        1.28566        1.31532
        1.33428        1.39581        1.43644        1.45659        1.46531
        1.47292        1.51441        1.53028        1.53976        1.54963
        1.57072        1.64145        1.65374        1.71168        1.72036
        1.75163        1.76973        1.80542        1.83904        1.87645
        1.90685        1.91961        1.93950        1.97470        2.01151
        2.22207        2.22594        2.24207        2.26261        2.27715
        2.29986        2.31772        2.41509        2.44554        2.49095
        2.58323        2.62178        2.63804        2.64930        2.72600
        2.74367        2.76810        2.79591        2.80500        2.81712
        2.83032        2.95056        3.02725        3.05421        3.23693
        3.36751        3.38309        3.42844        3.45872        3.47686
        3.47954        3.50050        3.53589        3.54386        3.56134
        3.57771        3.58495        3.64959        3.70211        3.96323
        4.00790        4.02740        4.06140        4.12312        4.17436
        4.20143        4.24859        4.59251        5.24799        5.25807
        5.29809        5.34410        5.39128        5.40400        5.59539
        5.69111        5.73605        5.74410        6.04443        6.07866
        6.18996        6.19358       37.16434       51.44264       51.45939
       51.52687       51.53843
 Time used in FCKEIG, thr_jaco:   3.40D-02  4.00D-02  4.05D-05
 CPU and wall times used in FCKEIG, THR_FCKEIG:   3.40D-02  4.00D-02  9.31D-03
 -----------------------------------------------------------------------------

 *** DIIS iteration number    3
 RDSUPM called. NFMAT, ISYMDM(1:NFMAT)                     1
                     1

 ITDIIS, energy, error norm, change in energy, scr.thr., difden:
@ DIIS iter.   3    -360.721785563        3.49392D-01   -6.00D-02  -20    F

 (DIIS_RED) Control Parameters C2DIIS =         F NEVC =    3


 (DIIS_RED) B matrix:

               Column   1     Column   2     Column   3
       1      14.27876624
       2       0.99084435     0.86681761
       3       0.64956047     0.04085689     0.12207447
    ==== End of matrix output ====

 DIIS C vector; C2DIIS = F, LAMBDA = -9.00D-02
   -0.043806    0.109929    0.933876
* Read MO coefficients from SIRIUS.RST with label "NEWORB  " and header info:  4Dec18  DIIS   3
      Virial theorem: -V/T =      2.001565
@      MULPOP N      -0.58; H       0.21; H       0.19; H       0.21; O      -0.64; O      -0.60; O      -0.62; O      -0.79; H       0.35; H       0.33; 
@             H       0.30; H       0.31; H       0.29; H       0.31; H       0.36; H       0.36; 
   3  Level shift: doubly occupied orbital energies shifted by -2.50D-02

 DIIS Fock eigenvalues in symmetry 1
      -20.61140      -20.55444      -20.54966      -20.53206      -15.58909
       -1.38207       -1.35054       -1.33729       -1.32768       -1.17949
       -0.75785       -0.71887       -0.71548       -0.71100       -0.67539
       -0.66029       -0.62515       -0.60868       -0.59801       -0.58530
       -0.54675       -0.53408       -0.51836       -0.50381       -0.46642
        0.00000        0.13829        0.17794        0.19486        0.21266
        0.24275        0.24753        0.26160        0.30030        0.33254
        0.34116        0.37997        0.47455        0.51271        0.54112
        0.55101        0.57482        0.58889        0.59610        0.62161
        0.63733        0.65656        0.69988        0.89825        0.90244
        0.94484        0.96347        0.98347        0.98912        1.00655
        1.04212        1.05395        1.09038        1.11618        1.12919
        1.13947        1.14609        1.17185        1.28040        1.32674
        1.34147        1.39037        1.43827        1.46782        1.47583
        1.48700        1.52610        1.53936        1.55190        1.55986
        1.58105        1.65412        1.66940        1.72246        1.73127
        1.75983        1.78102        1.81039        1.84383        1.88120
        1.91275        1.92875        1.94657        1.97591        2.01461
        2.20888        2.23530        2.24710        2.26630        2.28547
        2.30983        2.33655        2.42659        2.45622        2.50841
        2.58391        2.62904        2.64680        2.65925        2.73998
        2.74859        2.77644        2.80282        2.81224        2.82572
        2.84066        2.94532        2.99950        3.02833        3.21424
        3.39735        3.41465        3.44650        3.47700        3.48081
        3.49848        3.50308        3.53693        3.56933        3.57561
        3.59391        3.62626        3.68687        3.71964        4.00079
        4.03054        4.04436        4.09882        4.16788        4.19242
        4.24003        4.26758        4.53359        5.19701        5.27665
        5.32863        5.34276        5.40431        5.44858        5.66424
        5.74320        5.75252        5.76456        6.09357        6.11250
        6.21096        6.24632       37.03480       51.48197       51.56322
       51.56605       51.60568
 Time used in FCKEIG, thr_jaco:   3.10D-02  4.30D-02  1.52D-05
 CPU and wall times used in FCKEIG, THR_FCKEIG:   3.10D-02  4.30D-02  3.49D-03
 -----------------------------------------------------------------------------

 *** DIIS iteration number    4
 RDSUPM called. NFMAT, ISYMDM(1:NFMAT)                     1
                     1

 ITDIIS, energy, error norm, change in energy, scr.thr., difden:
@ DIIS iter.   4    -360.729774695        1.12385D-01   -7.99D-03  -20    F

 (DIIS_RED) Control Parameters C2DIIS =         F NEVC =    4


 (DIIS_RED) B matrix:

               Column   1     Column   2     Column   3     Column   4
       1      14.27876624
       2       0.99084435     0.86681761
       3       0.64956047     0.04085689     0.12207447
       4      -0.00426155     0.07920610    -0.00996214     0.01263040
    ==== End of matrix output ====

 DIIS C vector; C2DIIS = F, LAMBDA = -3.58D-03
    0.000720   -0.090338    0.133751    0.955867
* Read MO coefficients from SIRIUS.RST with label "NEWORB  " and header info:  4Dec18  DIIS   4
      Virial theorem: -V/T =      2.002515
@      MULPOP N      -0.65; H       0.23; H       0.21; H       0.23; O      -0.66; O      -0.61; O      -0.61; O      -0.78; H       0.35; H       0.34; 
@             H       0.31; H       0.32; H       0.29; H       0.31; H       0.36; H       0.36; 
   4  Level shift: doubly occupied orbital energies shifted by -1.25D-02

 DIIS Fock eigenvalues in symmetry 1
      -20.60044      -20.57195      -20.54944      -20.54261      -15.54651
       -1.37064       -1.34201       -1.33634       -1.32323       -1.15755
       -0.74599       -0.71127       -0.70723       -0.70569       -0.65517
       -0.63999       -0.61241       -0.60397       -0.58693       -0.57413
       -0.53625       -0.52991       -0.50591       -0.49501       -0.44409
        0.00000        0.13847        0.17719        0.19337        0.21118
        0.24295        0.24833        0.26163        0.30225        0.33325
        0.34089        0.38026        0.47752        0.51488        0.54062
        0.55142        0.57381        0.58807        0.59460        0.62059
        0.63704        0.65483        0.70215        0.90203        0.90436
        0.94788        0.96387        0.98143        0.98822        1.00708
        1.04303        1.05411        1.08938        1.11570        1.12697
        1.13638        1.14345        1.17098        1.28354        1.32545
        1.34038        1.39511        1.44082        1.46616        1.47492
        1.48535        1.52420        1.53759        1.55001        1.55775
        1.58038        1.65266        1.66644        1.72075        1.72989
        1.75851        1.78002        1.81095        1.84487        1.88288
        1.91293        1.92825        1.94484        1.97878        2.01660
        2.21569        2.23463        2.24974        2.26380        2.28307
        2.30851        2.33242        2.42345        2.45656        2.50681
        2.58718        2.63019        2.64507        2.65690        2.73871
        2.75014        2.77563        2.80231        2.81055        2.82487
        2.84090        2.95033        3.00980        3.03807        3.22260
        3.39770        3.40380        3.44943        3.47895        3.48296
        3.49675        3.50007        3.53805        3.56682        3.56955
        3.59412        3.61619        3.68027        3.71738        3.99412
        4.02654        4.04170        4.09190        4.15841        4.19206
        4.23319        4.26521        4.54941        5.21213        5.28660
        5.31200        5.34350        5.40133        5.43813        5.64638
        5.73273        5.75124        5.76111        6.09277        6.09475
        6.20644        6.23463       37.06436       51.47887       51.52936
       51.55863       51.58465
 Time used in FCKEIG, thr_jaco:   2.40D-02  3.40D-02  4.89D-06
 CPU and wall times used in FCKEIG, THR_FCKEIG:   2.40D-02  3.40D-02  1.12D-03
 -----------------------------------------------------------------------------

 *** DIIS iteration number    5
 RDSUPM called. NFMAT, ISYMDM(1:NFMAT)                     1
                     1

 ITDIIS, energy, error norm, change in energy, scr.thr., difden:
@ DIIS iter.   5    -360.730808554        2.32126D-02   -1.03D-03  -20    F

 (DIIS_RED) Control Parameters C2DIIS =         F NEVC =    5


 (DIIS_RED) B matrix:

               Column   1     Column   2     Column   3     Column   4     Column   5
       1      14.27876624
       2       0.99084435     0.86681761
       3       0.64956047     0.04085689     0.12207447
       4      -0.00426155     0.07920610    -0.00996214     0.01263040
       5       0.01262100     0.00587141     0.00463534     0.00070311     0.00053882
    ==== End of matrix output ====

 DIIS C vector; C2DIIS = F, LAMBDA = -3.15D-04
    0.001401    0.003538   -0.058991   -0.107974    1.162026
* Read MO coefficients from SIRIUS.RST with label "NEWORB  " and header info:  4Dec18  DIIS   5
      Virial theorem: -V/T =      2.002134
@      MULPOP N      -0.65; H       0.23; H       0.21; H       0.22; O      -0.66; O      -0.61; O      -0.62; O      -0.80; H       0.36; H       0.34; 
@             H       0.31; H       0.32; H       0.29; H       0.32; H       0.37; H       0.37; 

 DIIS Fock eigenvalues in symmetry 1
      -20.58818      -20.55324      -20.53607      -20.52745      -15.52995
       -1.35835       -1.32932       -1.32158       -1.30983       -1.14411
       -0.73410       -0.69850       -0.69426       -0.69281       -0.64219
       -0.62680       -0.60028       -0.58959       -0.57461       -0.56101
       -0.52328       -0.51439       -0.49238       -0.48096       -0.42991
        0.00000        0.13838        0.17698        0.19335        0.21101
        0.24285        0.24831        0.26149        0.30231        0.33327
        0.34084        0.38052        0.47761        0.51499        0.54045
        0.55181        0.57381        0.58795        0.59459        0.62051
        0.63702        0.65452        0.70231        0.90252        0.90552
        0.94862        0.96464        0.98256        0.98892        1.00750
        1.04363        1.05474        1.08962        1.11591        1.12700
        1.13682        1.14379        1.17107        1.28421        1.32555
        1.34043        1.39542        1.44110        1.46657        1.47456
        1.48545        1.52435        1.53730        1.54972        1.55747
        1.58001        1.65248        1.66722        1.72090        1.72976
        1.75820        1.77972        1.81086        1.84480        1.88279
        1.91288        1.92813        1.94437        1.97898        2.01666
        2.21608        2.23390        2.25005        2.26406        2.28256
        2.30788        2.33239        2.42304        2.45676        2.50684
        2.58756        2.63003        2.64475        2.65658        2.73825
        2.74992        2.77540        2.80175        2.80995        2.82449
        2.84047        2.95077        3.01062        3.03886        3.22328
        3.39747        3.40620        3.45045        3.48012        3.48372
        3.49703        3.50076        3.53938        3.56708        3.57023
        3.59386        3.61837        3.68114        3.71746        3.99553
        4.02698        4.04172        4.09265        4.16074        4.19186
        4.23403        4.26530        4.55142        5.21384        5.28806
        5.31550        5.34394        5.40200        5.43970        5.64984
        5.73408        5.75105        5.76134        6.09234        6.09791
        6.20654        6.23582       37.06833       51.47892       51.53543
       51.55949       51.58702
 Time used in FCKEIG, thr_jaco:   2.60D-02  4.90D-02  1.01D-06
 CPU and wall times used in FCKEIG, THR_FCKEIG:   2.60D-02  4.90D-02  2.32D-04
 -----------------------------------------------------------------------------

 *** DIIS iteration number    6
 RDSUPM called. NFMAT, ISYMDM(1:NFMAT)                     1
                     1

 ITDIIS, energy, error norm, change in energy, scr.thr., difden:
@ DIIS iter.   6    -360.730887587        8.06468D-03   -7.90D-05  -20    F

 (DIIS_RED) Control Parameters C2DIIS =         F NEVC =    6


 (DIIS_RED) B matrix:

               Column   1     Column   2     Column   3     Column   4     Column   5     Column   6
       1      14.27876624
       2       0.99084435     0.86681761
       3       0.64956047     0.04085689     0.12207447
       4      -0.00426155     0.07920610    -0.00996214     0.01263040
       5       0.01262100     0.00587141     0.00463534     0.00070311     0.00053882
       6      -0.00207669    -0.00027883     0.00063079     0.00019708     0.00006740     0.00006504
    ==== End of matrix output ====

 DIIS C vector; C2DIIS = F, LAMBDA = -3.67D-05
    0.000485    0.007843   -0.023549   -0.088864    0.173307    0.930777
* Read MO coefficients from SIRIUS.RST with label "NEWORB  " and header info:  4Dec18  DIIS   6
      Virial theorem: -V/T =      2.002264
@      MULPOP N      -0.65; H       0.23; H       0.21; H       0.22; O      -0.67; O      -0.62; O      -0.62; O      -0.81; H       0.36; H       0.34; 
@             H       0.31; H       0.32; H       0.30; H       0.32; H       0.37; H       0.37; 

 DIIS Fock eigenvalues in symmetry 1
      -20.58803      -20.55533      -20.53650      -20.52825      -15.53351
       -1.35830       -1.32946       -1.32208       -1.31004       -1.14529
       -0.73425       -0.69883       -0.69463       -0.69327       -0.64325
       -0.62784       -0.60043       -0.59017       -0.57491       -0.56108
       -0.52333       -0.51471       -0.49240       -0.48107       -0.43083
        0.00000        0.13826        0.17684        0.19324        0.21090
        0.24277        0.24810        0.26134        0.30207        0.33308
        0.34075        0.38029        0.47726        0.51464        0.54029
        0.55155        0.57364        0.58781        0.59443        0.62034
        0.63680        0.65433        0.70194        0.90210        0.90501
        0.94817        0.96422        0.98232        0.98858        1.00715
        1.04334        1.05460        1.08937        1.11575        1.12681
        1.13652        1.14360        1.17087        1.28361        1.32542
        1.34024        1.39481        1.44065        1.46627        1.47434
        1.48529        1.52413        1.53707        1.54950        1.55725
        1.57982        1.65228        1.66691        1.72069        1.72951
        1.75794        1.77951        1.81055        1.84442        1.88242
        1.91255        1.92789        1.94410        1.97854        2.01627
        2.21525        2.23370        2.24946        2.26351        2.28224
        2.30768        2.33212        2.42277        2.45635        2.50658
        2.58700        2.62967        2.64449        2.65635        2.73803
        2.74955        2.77509        2.80145        2.80965        2.82431
        2.84021        2.95005        3.00944        3.03773        3.22226
        3.39748        3.40557        3.44974        3.47933        3.48300
        3.49683        3.50032        3.53840        3.56682        3.56989
        3.59382        3.61777        3.68086        3.71725        3.99508
        4.02674        4.04149        4.09235        4.16004        4.19182
        4.23375        4.26509        4.54950        5.21202        5.28673
        5.31454        5.34359        5.40165        5.43925        5.64877
        5.73366        5.75104        5.76109        6.09233        6.09685
        6.20624        6.23537       37.06486       51.47897       51.53339
       51.55906       51.58632
 Time used in FCKEIG, thr_jaco:   2.70D-02  3.70D-02  3.51D-07
 CPU and wall times used in FCKEIG, THR_FCKEIG:   2.70D-02  3.70D-02  8.06D-05
 -----------------------------------------------------------------------------

 *** DIIS iteration number    7
 RDSUPM called. NFMAT, ISYMDM(1:NFMAT)                     1
                     1

 ITDIIS, energy, error norm, change in energy, scr.thr., difden:
@ DIIS iter.   7    -360.730894741        2.50265D-03   -7.15D-06  -20    F

 (DIIS_RED) Control Parameters C2DIIS =         F NEVC =    7


 (DIIS_RED) B matrix:

               Column   1     Column   2     Column   3     Column   4     Column   5     Column   6
       1      14.27876624
       2       0.99084435     0.86681761
       3       0.64956047     0.04085689     0.12207447
       4      -0.00426155     0.07920610    -0.00996214     0.01263040
       5       0.01262100     0.00587141     0.00463534     0.00070311     0.00053882
       6      -0.00207669    -0.00027883     0.00063079     0.00019708     0.00006740     0.00006504
       7       0.00066605    -0.00002274     0.00011139    -0.00000565     0.00003827     0.00000128

               Column   7
       7       0.00000626
    ==== End of matrix output ====

 DIIS C vector; C2DIIS = F, LAMBDA = -1.34D-06
   -0.000223   -0.001421    0.009407    0.026625   -0.172896   -0.008051    1.146560
* Read MO coefficients from SIRIUS.RST with label "NEWORB  " and header info:  4Dec18  DIIS   7
      Virial theorem: -V/T =      2.002236
@      MULPOP N      -0.65; H       0.23; H       0.21; H       0.22; O      -0.67; O      -0.62; O      -0.62; O      -0.81; H       0.36; H       0.34; 
@             H       0.31; H       0.32; H       0.30; H       0.32; H       0.37; H       0.37; 

 DIIS Fock eigenvalues in symmetry 1
      -20.58820      -20.55465      -20.53651      -20.52805      -15.53295
       -1.35833       -1.32945       -1.32175       -1.30995       -1.14512
       -0.73432       -0.69880       -0.69457       -0.69314       -0.64316
       -0.62776       -0.60052       -0.58994       -0.57500       -0.56107
       -0.52332       -0.51433       -0.49234       -0.48093       -0.43061
        0.00000        0.13829        0.17685        0.19328        0.21090
        0.24278        0.24812        0.26133        0.30208        0.33309
        0.34076        0.38036        0.47731        0.51470        0.54030
        0.55165        0.57368        0.58783        0.59447        0.62035
        0.63683        0.65431        0.70197        0.90216        0.90516
        0.94826        0.96431        0.98245        0.98867        1.00718
        1.04341        1.05464        1.08945        1.11576        1.12683
        1.13662        1.14364        1.17088        1.28376        1.32545
        1.34025        1.39485        1.44068        1.46637        1.47432
        1.48534        1.52423        1.53705        1.54949        1.55723
        1.57979        1.65228        1.66707        1.72080        1.72952
        1.75793        1.77950        1.81060        1.84445        1.88243
        1.91259        1.92790        1.94408        1.97858        2.01630
        2.21530        2.23365        2.24956        2.26361        2.28222
        2.30762        2.33213        2.42274        2.45641        2.50663
        2.58706        2.62968        2.64452        2.65639        2.73801
        2.74952        2.77508        2.80143        2.80961        2.82437
        2.84020        2.95013        3.00958        3.03786        3.22236
        3.39743        3.40589        3.44986        3.47950        3.48311
        3.49686        3.50041        3.53860        3.56684        3.56997
        3.59379        3.61809        3.68095        3.71725        3.99528
        4.02681        4.04148        4.09243        4.16037        4.19180
        4.23384        4.26510        4.54981        5.21226        5.28692
        5.31495        5.34361        5.40168        5.43937        5.64920
        5.73377        5.75097        5.76108        6.09224        6.09727
        6.20623        6.23548       37.06540       51.47884       51.53406
       51.55905       51.58648
 Time used in FCKEIG, thr_jaco:   2.70D-02  7.00D-02  1.09D-07
 CPU and wall times used in FCKEIG, THR_FCKEIG:   2.70D-02  7.00D-02  2.50D-05
 -----------------------------------------------------------------------------

 *** DIIS iteration number    8
 RDSUPM called. NFMAT, ISYMDM(1:NFMAT)                     1
                     1

 ITDIIS, energy, error norm, change in energy, scr.thr., difden:
@ DIIS iter.   8    -360.730895504        3.81861D-04   -7.63D-07  -20    F

 (DIIS_RED) Control Parameters C2DIIS =         F NEVC =    8


 (DIIS_RED) B matrix:

               Column   1     Column   2     Column   3     Column   4     Column   5     Column   6
       1      14.27876624
       2       0.99084435     0.86681761
       3       0.64956047     0.04085689     0.12207447
       4      -0.00426155     0.07920610    -0.00996214     0.01263040
       5       0.01262100     0.00587141     0.00463534     0.00070311     0.00053882
       6      -0.00207669    -0.00027883     0.00063079     0.00019708     0.00006740     0.00006504
       7       0.00066605    -0.00002274     0.00011139    -0.00000565     0.00003827     0.00000128
       8       0.00005539     0.00000845     0.00000034     0.00000389     0.00000109     0.00000150

               Column   7     Column   8
       7       0.00000626
       8       0.00000036     0.00000015
    ==== End of matrix output ====

 DIIS C vector; C2DIIS = F, LAMBDA = -7.52D-08
    0.000017    0.000040   -0.000963   -0.002434    0.026706   -0.033095   -0.200611    1.210340
* Read MO coefficients from SIRIUS.RST with label "NEWORB  " and header info:  4Dec18  DIIS   8
      Virial theorem: -V/T =      2.002251
@      MULPOP N      -0.65; H       0.23; H       0.21; H       0.22; O      -0.67; O      -0.62; O      -0.62; O      -0.81; H       0.36; H       0.34; 
@             H       0.31; H       0.32; H       0.30; H       0.32; H       0.37; H       0.37; 

 DIIS Fock eigenvalues in symmetry 1
      -20.58812      -20.55468      -20.53649      -20.52804      -15.53298
       -1.35830       -1.32945       -1.32176       -1.30994       -1.14513
       -0.73430       -0.69879       -0.69457       -0.69314       -0.64318
       -0.62777       -0.60052       -0.58996       -0.57501       -0.56106
       -0.52332       -0.51433       -0.49233       -0.48093       -0.43062
        0.00000        0.13829        0.17684        0.19328        0.21090
        0.24278        0.24811        0.26133        0.30208        0.33309
        0.34075        0.38035        0.47730        0.51470        0.54029
        0.55165        0.57368        0.58783        0.59447        0.62035
        0.63683        0.65431        0.70197        0.90215        0.90515
        0.94826        0.96430        0.98245        0.98866        1.00717
        1.04340        1.05464        1.08945        1.11577        1.12684
        1.13663        1.14365        1.17088        1.28375        1.32546
        1.34025        1.39484        1.44068        1.46637        1.47432
        1.48534        1.52422        1.53705        1.54948        1.55723
        1.57979        1.65227        1.66706        1.72080        1.72951
        1.75792        1.77950        1.81059        1.84444        1.88242
        1.91258        1.92790        1.94407        1.97856        2.01629
        2.21529        2.23365        2.24955        2.26361        2.28221
        2.30763        2.33213        2.42274        2.45640        2.50661
        2.58704        2.62966        2.64452        2.65639        2.73800
        2.74952        2.77508        2.80142        2.80961        2.82437
        2.84018        2.95012        3.00957        3.03785        3.22234
        3.39745        3.40589        3.44985        3.47949        3.48311
        3.49687        3.50041        3.53859        3.56684        3.56997
        3.59381        3.61808        3.68094        3.71726        3.99528
        4.02682        4.04148        4.09243        4.16036        4.19182
        4.23384        4.26510        4.54978        5.21224        5.28691
        5.31493        5.34363        5.40168        5.43938        5.64918
        5.73377        5.75101        5.76109        6.09228        6.09725
        6.20624        6.23548       37.06537       51.47891       51.53403
       51.55907       51.58650
 Time used in FCKEIG, thr_jaco:   2.30D-02  5.00D-02  1.66D-08
 CPU and wall times used in FCKEIG, THR_FCKEIG:   2.30D-02  5.00D-02  3.82D-06
 -----------------------------------------------------------------------------

 *** DIIS iteration number    9
 RDSUPM called. NFMAT, ISYMDM(1:NFMAT)                     1
                     1

 ITDIIS, energy, error norm, change in energy, scr.thr., difden:
@ DIIS iter.   9    -360.730895526        1.08786D-04   -2.21D-08  -20    F

 (DIIS_RED) Control Parameters C2DIIS =         F NEVC =    8


 (DIIS_RED) B matrix:

               Column   1     Column   2     Column   3     Column   4     Column   5     Column   6
       1       0.00000001
       2      -0.00000158     0.86681761
       3       0.00000001     0.04085689     0.12207447
       4       0.00000001     0.07920610    -0.00996214     0.01263040
       5       0.00000014     0.00587141     0.00463534     0.00070311     0.00053882
[...]
 | 1 1 1 1 |  10   1  12   1 |     1462        1 |      1067992 |   -0.096504  |
 | 1 1 1 1 |  24   1  12   1 |     1476        1 |      1088551 |   -0.130292  |
 | 1 1 1 1 |  26   1  12   1 |     1478        1 |      1091504 |    0.115557  |
 | 1 1 1 1 | 114   1  12   1 |     1566        1 |      1225396 |   -0.066140  |
 | 1 1 1 1 |   4   1  21   1 |     2644        1 |      3494047 |    0.071950  |
 | 1 1 1 1 |  12   1  21   1 |     2652        1 |      3515227 |   -0.122997  |
 | 1 1 1 1 |  25   1  21   1 |     2665        1 |      3549781 |   -0.162359  |
 | 1 1 1 1 |  29   1  21   1 |     2669        1 |      3560447 |   -0.079111  |
 | 1 1 1 1 |  39   1  21   1 |     2679        1 |      3587182 |    0.075520  |
 | 1 1 1 1 | 113   1  21   1 |     2753        1 |      3788129 |    0.105701  |
 +=============================================================================+


          Norm of Printed Amplitude Vector :             0.8808

          Printed all single excitations greater than 0.379798

          Printed all double excitations greater than 0.065040



+======================================================================+
| contributions of excitation levels to right eigenvectors as computed |
| from the (RE|RE) self overlap                                        |
+----------------------------------------------------------------------+
| sym | multi | state |    E / eV  | % singles | % doubles | % triples |
+======================================================================+
|    1|   1   |   1   |  406.55995 |  88.2780  |  11.7220  |   0.0000  |
+======================================================================+





+======================================================================+
| contributions of excitation levels to excited states as computed     |
| from the (LE|RE) overlap                                             |
+----------------------------------------------------------------------+
| sym | multi | state |    E / eV  | % singles | % doubles | % triples |
+======================================================================+
|    1|   1   |   1   |  406.55995 |  79.0384  |  20.9616  |   0.0000  |
+======================================================================+



 --------------------------
 Symmetry class Nr.:     1
 Multiplicity      :     3
 --------------------------

 Length of Excitation vectors in this class is:   7689528
 No Excitation Energies calculated in this symmetry class
     

   *******************************************************************
   *                                                                 *
   *--------   OUTPUT FROM PROPERTY AND SYMMETRY ANALYSIS   ---------*
   *                                                                 *
   *******************************************************************



                         +-------------------------------+
                         ! REQUESTED PROPERTY OPERATORS: !
                         +-------------------------------+

             Index   Oper. Label  Symmetry  Transp.  PDBS  Atom
             --------------------------------------------------
                1     HAM0            1        1      T      0
                2     XDIPLEN         1        1      F      0
                3     YDIPLEN         1        1      F      0
                4     ZDIPLEN         1        1      F      0
             --------------------------------------------------




                         +-------------------------------+
                         ! REQUESTED EXPECTATION VALUES: !
                         +-------------------------------+

                       Index   Oper. Label  Symmetry
                       -----------------------------
                       -----------------------------




                       +------------------------------------+
                       ! REQUESTED EFFECTIVE FOCK MATRICES: !
                       +------------------------------------+

                       Index   Oper. Label  Symmetry
                       -----------------------------
                       -----------------------------




                        +----------------------------------+
                        ! REQUESTED FIRST ORDER M-VECTORS: !
                        +----------------------------------+

               Index   State Symmetry  Frequency
               --------------------------------------------------
                  1             1    1     1.494080D+01
               --------------------------------------------------


      

    *******************************************************************
    *          SOLVING COUPLED CLUSTER RESPONSE EQUATIONS             *
    *******************************************************************



 
 +======================================================================+
 !                     RHS & ETA VECTORS TO COMPUTE:                    !
 +======================================================================+
 | TYPE | # VEC. |  NEEDED FOR:                                         |
 +----------------------------------------------------------------------+
 +======================================================================+



 +======================================================================+
 !                       LINEAR EQUATIONS TO SOLVE:                     !
 +======================================================================+
 | TYPE | # VEC. |  EQUATION:                                           |
 +----------------------------------------------------------------------+
 |  M1  |    1   |  first-order ground - excited state multipliers      |
 +======================================================================+



 +======================================================================+
 !                F MATRIX TRANSFORMATIONS TO COMPUTE:                  !
 +======================================================================+
 | TYPE | # VEC. |  TRANSFORMED:                                        |
 +----------------------------------------------------------------------+
 |  FR  |    1   |  right eigenvectors (RE)                             |
 +======================================================================+





 Testing R1 list: 

 List nr.  Label     Symmetry      Frequency      T1-norm        T2-norm


 Testing L1 list: 

 List nr.  Label     Symmetry      Frequency      T1-norm        T2-norm
  Solvent 1-order response equations converged in                     0 
  solvent iterations
 SONIAPRI                     0
 CCEQ_STR: CVSEPARATION =  T
 CCEQ_STR: IONIZATION =  T
 CCEQ_STR: REMOVE_CORE =  F
 could not find required file CCM1_1___1
 IOPTSV is    33 ... program continues nevertheless.
 Vector nr.  1 of type M1  and symmetry  1 was not found on file.
     M1  start vector nr.  1 of symmetry  1 generated from gradient
 CCEQ_STR: freeze VALENCE OR VIRT
 CCEQ_SOL: CVSEPARA=     T
 CCEQ_SOL: LIONISAT=     T
 CCEQ_SOL: REMOVE_CORE =  F



 ----- COUPLED CLUSTER RESPONSE SOLVER -----

    Iter  #Vectors  time (min)   residual
    --------------------------------------
 CCRED CVS/IONIS sigma_                     1 
 project out valence occupied or virtual
      1       1         1.23     0.32E+00
 CCRED CVS/IONIS sigma_                     2 
 project out valence occupied or virtual
      2       1         1.20     0.71E-01
 CCRED CVS/IONIS sigma_                     3 
 project out valence occupied or virtual
                    -1  vectors with norm le:  1.000000000000000E-035  REMOVED

 CCORT,**WARNING**  number vectors added is zero after check for vector norm , NBADD :    0

 CCORT, number vectors added is zero , NBADD :    0

 CCORT, number vectors added is zero , NBADD :    0

 CCORT, number vectors added is zero , NBADD :    0

 *** MICROITERATIONS STOPPED DUE TO LINEAR DEPENDENCE BETWEEN ALL NEW TRIAL VECTORS
                     0  trial vectors converged
  LINEAR DEPENDENCE BETWEEN                     1  NON CONVERGED TRIAL VECTORS
      3       1         1.20     0.74E-02

 ***  CCEQ_SOL -MICROITERATIONS STOPPED  
     LINEAR DEPENDENCE BETWEEN ALL NEW TRIAL VECTORS
    --------------------------------------
    converged in  3 iterations
    threshold:    0.10E-08


         Routine          Time (min)
         ---------------------------
         CC_TRDRV            3.63
         CCRED               0.02
         CCNEX               0.04
         ---------------------------
         Total time          3.69


  Total CPU  time used in CCEQ_SOLV:  3 minutes 41 seconds
  Total wall time used in CCEQ_SOLV:  7 minutes 13 seconds


 xxxxxxxxxxxxxxxxxxxxxxxxxxxxxxxxxxxxx

 
 Solution of CC response equations completed.
 

 *******************************************************************
 *                                                                 *
 *--------  OUTPUT FROM COUPLED CLUSTER LINEAR RESPONSE   ---------*
 *                                                                 *
 *--------      CALCULATION OF SECOND ORDER RESIDUES      ---------*
 *                                                                 *
 *******************************************************************



                  +---------------------------------------------+
                  ! CC_SOPR: Calculation of CCSD       Residues !
                  +---------------------------------------------+

 Doing the Mf*CsiA
 Doing the Mf*CsiA
 Doing the Mf*CsiA


 CCSD  Right transition moments in atomic units:
 -----------------------------------------------

  1      14.940804  <XDIPLEN |f> =       0.00000000
  1      14.940804  <YDIPLEN |f> =      -0.00000000
  1      14.940804  <ZDIPLEN |f> =       0.00000001


 CCSD  Left  transition moments in atomic units:
 -----------------------------------------------

  1      14.940804  <f|XDIPLEN > =       0.00000000
  1      14.940804  <f|YDIPLEN > =      -0.00000000
  1      14.940804  <f|ZDIPLEN > =       0.00000000


 CCSD  linear response residue property in atomic units:
 -------------------------------------------------------

 RES{<<XDIPLEN ,XDIPLEN >>(14.940804)} =     0.00000000 (   0.00000000)
 RES{<<XDIPLEN ,YDIPLEN >>(14.940804)} =    -0.00000000 (  -0.00000000)
 RES{<<XDIPLEN ,ZDIPLEN >>(14.940804)} =     0.00000000 (   0.00000000)
 RES{<<YDIPLEN ,XDIPLEN >>(14.940804)} =    -0.00000000 (  -0.00000000)
 RES{<<YDIPLEN ,YDIPLEN >>(14.940804)} =     0.00000000 (   0.00000000)
 RES{<<YDIPLEN ,ZDIPLEN >>(14.940804)} =    -0.00000000 (  -0.00000000)
 RES{<<ZDIPLEN ,XDIPLEN >>(14.940804)} =     0.00000000 (   0.00000000)
 RES{<<ZDIPLEN ,YDIPLEN >>(14.940804)} =    -0.00000000 (  -0.00000000)
 RES{<<ZDIPLEN ,ZDIPLEN >>(14.940804)} =     0.00000000 (   0.00000000)


 CCSD  Transition strength matrix for state nr.  1 of symmetry 1
 CCSD  excitation energy:14.94080373

 Gauge: length

               Column   1     Column   2     Column   3
       1     2.544729D-20  -5.323628D-19   7.645769D-19
       2    -5.323628D-19   1.046288D-17  -1.517954D-17
       3     7.645769D-19  -1.517954D-17   2.198560D-17
    ==== End of matrix output ====

 Principal values of diagonalized transition strength matrix:

             a.u.               
 1       0.00000000
 2       0.00000000
 3       0.00000000

 Principal axis of diagonalized transition strength matrix:


               Column   1     Column   2     Column   3
       1       1.00000000     0.00000000     0.00000000
       2       0.00000000     1.00000000     0.00000000
       3       0.00000000     0.00000000     1.00000000
    ==== End of matrix output ====


 CCSD   oscillator strength matrix for state nr.  1 of symmetry 1
 CCSD  excitation energy:14.94080373


               Column   1     Column   2     Column   3
       1     2.534686D-19  -5.302618D-18   7.615596D-18
       2    -5.302618D-18   1.042159D-16  -1.511963D-16
       3     7.615596D-18  -1.511963D-16   2.189883D-16
    ==== End of matrix output ====

 Principal values of diagonalized oscillator strength matrix:

             a.u.               
 1       0.00000000
 2       0.00000000
 3       0.00000000

 Principal axis of diagonalized oscillator strength matrix:


               Column   1     Column   2     Column   3
       1       1.00000000     0.00000000     0.00000000
       2       0.00000000     1.00000000     0.00000000
       3       0.00000000     0.00000000     1.00000000
    ==== End of matrix output ====

  Total time for      9 linear response residues:       2.70 seconds.
  

 *******************************************************************************
 *******************************************************************************
 *                                                                             *
 *                                                                             *
 *                   SUMMARY OF COUPLED CLUSTER CALCULATION                    *
 *                                                                             *
 *                                                                             *
 *******************************************************************************
 *******************************************************************************

                                                                                
                                                                                
            Total SCF   energy:                  -360.7308955278                
            Total MP2   energy:                  -361.8334834747                
            Total CCSD  energy:                  -361.8730504452                
                                                                                
                                                                                
            Total SCF   energy:                  -360.7308955278                
            Total RSTAR energy:                  -361.8730504452                
            Total CCSD  energy:                  -361.8731697013                
                                                                                
                                                                                
            Total SCF   energy:                  -360.7308955278                
            Total RSTAR energy:                  -361.8731697013                
            Total CCSD  energy:                  -361.8731704928                
                                                                                
                                                                                
            Total SCF   energy:                  -360.7308955278                
            Total RSTAR energy:                  -361.8731704928                
            Total CCSD  energy:                  -361.8731705788                
                                                                                
                                                                                
            Total SCF   energy:                  -360.7308955278                
            Total RSTAR energy:                  -361.8731705788                
            Total CCSD  energy:                  -361.8731705829                
                                                                                
                                                                                
            Total SCF   energy:                  -360.7308955278                
            Total RSTAR energy:                  -361.8731705829                
            Total CCSD  energy:                  -361.8731705830                
            CCSD Total  energy:                  -362.2190177026                
            CCSD E(QM/MM)     :                    -0.3422794522                
                                                                                
                                                                                
                                                                                
 +=============================================================================+
 |  sym. | Exci.  |        CCSD       Excitation energies            | ||T1||  |
 |(spin, |        +------------------------------------------------------------+
 | spat) |        |     Hartree    |       eV.      |     cm-1       |    %    |
 +=============================================================================+
 | ^1A   |    1   |    14.9408037  |     406.55995  |   3279127.361  |  88.28  |
 +=============================================================================+
                                                                                
                                                                                
     Total energies in Hartree:                                                 
             1 ^1A       -346.9359345207                                        
                                                                                
                                                                                
 +=============================================================================+
 |  sym. | Exci.  |        CCSD       Length   Gauge Oscillator Strength       |
 |(spin, |        +------------------------------------------------------------+
 | spat) |        | Dipole Strength(a.u.) | Oscillator strength  | Direction   |
 +=============================================================================+
 | ^1A   |    1   |        0.0000000      |      0.0000000       |    -        |
 +=============================================================================+

  1 a.u. =        27.21138 eV.  
  1 a.u. =    219474.62934 cm-1.
  

 *******************************************************************************
 *******************************************************************************
 *                                                                             *
 *                                                                             *
 *                      END OF COUPLED CLUSTER CALCULATION                     *
 *                                                                             *
 *                                                                             *
 *******************************************************************************
 *******************************************************************************


 CPU and wall time for CC :    5422.276   12490.043

 
     Date and time (Linux)  : Tue Dec  4 12:51:45 2018
     Host name              : n-62-29-10                              


                      .-------------------------------------.
                      | End of Coupled Cluster Section (CC) |
                      `-------------------------------------'

  Total CPU  time used in DALTON:   1 hour  32 minutes 17 seconds
  Total wall time used in DALTON:   3 hours 33 minutes 29 seconds

 
     Date and time (Linux)  : Tue Dec  4 12:51:45 2018
     Host name              : n-62-29-10                              
  

 +---------------------------------------------------------+ 
 | List of selected calculated molecular properties (a.u.) | 
 +---------------------------------------------------------+ 

  Properties are read from unit number                      4

 CCSD       properties :
 #  1 1 CCSD/MM  Ground state Energy =    -362.2190177026
 #  2 1 E_QM/MM  Ground state Energy =      -0.3422794522
 #  3 1 Sy: 1 Sp: 1 Exc:  1 E_tot:   -346.9359345207 w:     14.9408037297 E_grs:   -361.8767382504
 #  4 1 Exctot   Excited state Energy =    -346.9359345207
 #  5 1 |<O|XDIPLEN |i(14.940804)>| =     0.00000000
 #  7 1 |<O|YDIPLEN |i(14.940804)>| =     0.00000000
 #  9 1 |<O|ZDIPLEN |i(14.940804)>| =     0.00000000

 THE_END   
