

     ************************************************************************
     *************** Dalton - An Electronic Structure Program ***************
     ************************************************************************

    This is output from DALTON release Dalton2017.alpha (2016)
         ( Web site: http://daltonprogram.org )

   ----------------------------------------------------------------------------

    NOTE:
     
    Dalton is an experimental code for the evaluation of molecular
    properties using (MC)SCF, DFT, CI, and CC wave functions.
    The authors accept no responsibility for the performance of
    the code or for the correctness of the results.
     
    The code (in whole or part) is provided under a licence and
    is not to be reproduced for further distribution without
    the written permission of the authors or their representatives.
     
    See the home page "http://daltonprogram.org" for further information.
     
    If results obtained with this code are published,
    the appropriate citations would be both of:
     
       K. Aidas, C. Angeli, K. L. Bak, V. Bakken, R. Bast,
       L. Boman, O. Christiansen, R. Cimiraglia, S. Coriani,
       P. Dahle, E. K. Dalskov, U. Ekstroem,
       T. Enevoldsen, J. J. Eriksen, P. Ettenhuber, B. Fernandez,
       L. Ferrighi, H. Fliegl, L. Frediani, K. Hald, A. Halkier,
       C. Haettig, H. Heiberg, T. Helgaker, A. C. Hennum,
       H. Hettema, E. Hjertenaes, S. Hoest, I.-M. Hoeyvik,
       M. F. Iozzi, B. Jansik, H. J. Aa. Jensen, D. Jonsson,
       P. Joergensen, J. Kauczor, S. Kirpekar,
       T. Kjaergaard, W. Klopper, S. Knecht, R. Kobayashi, H. Koch,
       J. Kongsted, A. Krapp, K. Kristensen, A. Ligabue,
       O. B. Lutnaes, J. I. Melo, K. V. Mikkelsen, R. H. Myhre,
       C. Neiss, C. B. Nielsen, P. Norman, J. Olsen,
       J. M. H. Olsen, A. Osted, M. J. Packer, F. Pawlowski,
       T. B. Pedersen, P. F. Provasi, S. Reine, Z. Rinkevicius,
       T. A. Ruden, K. Ruud, V. Rybkin, P. Salek, C. C. M. Samson,
       A. Sanchez de Meras, T. Saue, S. P. A. Sauer,
       B. Schimmelpfennig, K. Sneskov, A. H. Steindal,
       K. O. Sylvester-Hvid, P. R. Taylor, A. M. Teale,
       E. I. Tellgren, D. P. Tew, A. J. Thorvaldsen, L. Thoegersen,
       O. Vahtras, M. A. Watson, D. J. D. Wilson, M. Ziolkowski
       and H. Agren,
       "The Dalton quantum chemistry program system",
       WIREs Comput. Mol. Sci. 2014, 4:269–284 (doi: 10.1002/wcms.1172)
     
    and
     
       Dalton, a Molecular Electronic Structure Program,
       Release Dalton2017.alpha (2016), see http://daltonprogram.org
   ----------------------------------------------------------------------------

    Authors in alphabetical order (major contribution(s) in parenthesis):

  Kestutis Aidas,           Vilnius University,           Lithuania   (QM/MM)
  Celestino Angeli,         University of Ferrara,        Italy       (NEVPT2)
  Keld L. Bak,              UNI-C,                        Denmark     (AOSOPPA, non-adiabatic coupling, magnetic properties)
  Vebjoern Bakken,          University of Oslo,           Norway      (DALTON; geometry optimizer, symmetry detection)
  Radovan Bast,             UiT The Arctic U. of Norway,  Norway      (DALTON installation and execution frameworks)
  Pablo Baudin,             University of Valencia,       Spain       (Cholesky excitation energies)
  Linus Boman,              NTNU,                         Norway      (Cholesky decomposition and subsystems)
  Ove Christiansen,         Aarhus University,            Denmark     (CC module)
  Renzo Cimiraglia,         University of Ferrara,        Italy       (NEVPT2)
  Sonia Coriani,            University of Trieste,        Italy       (CC module, MCD in RESPONS)
  Janusz Cukras,            University of Trieste,        Italy       (MChD in RESPONS)
  Paal Dahle,               University of Oslo,           Norway      (Parallelization)
  Erik K. Dalskov,          UNI-C,                        Denmark     (SOPPA)
  Thomas Enevoldsen,        Univ. of Southern Denmark,    Denmark     (SOPPA)
  Janus J. Eriksen,         Aarhus University,            Denmark     (Polarizable embedding model, TDA)
  Rasmus Faber,             University of Copenhagen,     Denmark     (Vib.avg. NMR with SOPPA, parallel AO-SOPPA)
  Berta Fernandez,          U. of Santiago de Compostela, Spain       (doublet spin, ESR in RESPONS)
  Lara Ferrighi,            Aarhus University,            Denmark     (PCM Cubic response)
  Heike Fliegl,             University of Oslo,           Norway      (CCSD(R12))
  Luca Frediani,            UiT The Arctic U. of Norway,  Norway      (PCM)
  Bin Gao,                  UiT The Arctic U. of Norway,  Norway      (Gen1Int library)
  Christof Haettig,         Ruhr-University Bochum,       Germany     (CC module)
  Kasper Hald,              Aarhus University,            Denmark     (CC module)
  Asger Halkier,            Aarhus University,            Denmark     (CC module)
  Frederik Beyer Hansen,    University of Copenhagen,     Denmark     (Parallel AO-SOPPA)
  Erik D. Hedegaard,        Univ. of Southern Denmark,    Denmark     (Polarizable embedding model, QM/MM)
  Hanne Heiberg,            University of Oslo,           Norway      (geometry analysis, selected one-electron integrals)
  Trygve Helgaker,          University of Oslo,           Norway      (DALTON; ABACUS, ERI, DFT modules, London, and much more)
  Alf Christian Hennum,     University of Oslo,           Norway      (Parity violation)
  Hinne Hettema,            University of Auckland,       New Zealand (quadratic response in RESPONS; SIRIUS supersymmetry)
  Eirik Hjertenaes,         NTNU,                         Norway      (Cholesky decomposition)
  Pi A. B. Haase,           University of Copenhagen,     Denmark     (Triplet AO-SOPPA)
  Maria Francesca Iozzi,    University of Oslo,           Norway      (RPA)
  Brano Jansik              Technical Univ. of Ostrava    Czech Rep.  (DFT cubic response)
  Hans Joergen Aa. Jensen,  Univ. of Southern Denmark,    Denmark     (DALTON; SIRIUS, RESPONS, ABACUS modules, London, and much more)
  Dan Jonsson,              UiT The Arctic U. of Norway,  Norway      (cubic response in RESPONS module)
  Poul Joergensen,          Aarhus University,            Denmark     (RESPONS, ABACUS, and CC modules)
  Maciej Kaminski,          University of Warsaw,         Poland      (CPPh in RESPONS)
  Joanna Kauczor,           Linkoeping University,        Sweden      (Complex polarization propagator (CPP) module)
  Sheela Kirpekar,          Univ. of Southern Denmark,    Denmark     (Mass-velocity & Darwin integrals)
  Wim Klopper,              KIT Karlsruhe,                Germany     (R12 code in CC, SIRIUS, and ABACUS modules)
  Stefan Knecht,            ETH Zurich,                   Switzerland (Parallel CI and MCSCF)
  Rika Kobayashi,           Australian National Univ.,    Australia   (DIIS in CC, London in MCSCF)
  Henrik Koch,              NTNU,                         Norway      (CC module, Cholesky decomposition)
  Jacob Kongsted,           Univ. of Southern Denmark,    Denmark     (Polarizable embedding model, QM/MM)
  Andrea Ligabue,           University of Modena,         Italy       (CTOCD, AOSOPPA)
  Nanna H. List             Univ. of Southern Denmark,    Denmark     (Polarizable embedding model)
  Ola B. Lutnaes,           University of Oslo,           Norway      (DFT Hessian)
  Juan I. Melo,             University of Buenos Aires,   Argentina   (LRESC, Relativistic Effects on NMR Shieldings)
  Kurt V. Mikkelsen,        University of Copenhagen,     Denmark     (MC-SCRF and QM/MM)
  Rolf H. Myhre,            NTNU,                         Norway      (Cholesky, subsystems and ECC2)
  Christian Neiss,          Univ. Erlangen-Nuernberg,     Germany     (CCSD(R12))
  Christian B. Nielsen,     University of Copenhagen,     Denmark     (QM/MM)
  Patrick Norman,           Linkoeping University,        Sweden      (Cubic response and complex frequency response in RESPONS)
  Jeppe Olsen,              Aarhus University,            Denmark     (SIRIUS CI/density modules)
  Jogvan Magnus H. Olsen,   Univ. of Southern Denmark,    Denmark     (Polarizable embedding model, QM/MM)
  Anders Osted,             Copenhagen University,        Denmark     (QM/MM)
  Martin J. Packer,         University of Sheffield,      UK          (SOPPA)
  Filip Pawlowski,          Kazimierz Wielki University,  Poland      (CC3)
  Morten N. Pedersen,       Univ. of Southern Denmark,    Denmark     (Polarizable embedding model)
  Thomas B. Pedersen,       University of Oslo,           Norway      (Cholesky decomposition)
  Patricio F. Provasi,      University of Northeastern,   Argentina   (Analysis of coupling constants in localized orbitals)
  Zilvinas Rinkevicius,     KTH Stockholm,                Sweden      (open-shell DFT, ESR)
  Elias Rudberg,            KTH Stockholm,                Sweden      (DFT grid and basis info)
  Torgeir A. Ruden,         University of Oslo,           Norway      (Numerical derivatives in ABACUS)
  Kenneth Ruud,             UiT The Arctic U. of Norway,  Norway      (DALTON; ABACUS magnetic properties and much more)
  Pawel Salek,              KTH Stockholm,                Sweden      (DALTON; DFT code)
  Claire C. M. Samson       University of Karlsruhe       Germany     (Boys localization, r12 integrals in ERI)
  Alfredo Sanchez de Meras, University of Valencia,       Spain       (CC module, Cholesky decomposition)
  Trond Saue,               Paul Sabatier University,     France      (direct Fock matrix construction)
  Stephan P. A. Sauer,      University of Copenhagen,     Denmark     (SOPPA(CCSD), SOPPA prop., AOSOPPA, vibrational g-factors)
  Bernd Schimmelpfennig,    Forschungszentrum Karlsruhe,  Germany     (AMFI module)
  Kristian Sneskov,         Aarhus University,            Denmark     (Polarizable embedding model, QM/MM)
  Arnfinn H. Steindal,      UiT The Arctic U. of Norway,  Norway      (parallel QM/MM, Polarizable embedding model)
  Casper Steinmann,         Univ. of Southern Denmark,    Denmark     (QFIT, Polarizable embedding model)
  K. O. Sylvester-Hvid,     University of Copenhagen,     Denmark     (MC-SCRF)
  Peter R. Taylor,          VLSCI/Univ. of Melbourne,     Australia   (Symmetry handling ABACUS, integral transformation)
  Andrew M. Teale,          University of Nottingham,     England     (DFT-AC, DFT-D)
  David P. Tew,             University of Bristol,        England     (CCSD(R12))
  Olav Vahtras,             KTH Stockholm,                Sweden      (triplet response, spin-orbit, ESR, TDDFT, open-shell DFT)
  David J. Wilson,          La Trobe University,          Australia   (DFT Hessian and DFT magnetizabilities)
  Hans Agren,               KTH Stockholm,                Sweden      (SIRIUS module, RESPONS, MC-SCRF solvation model)
 --------------------------------------------------------------------------------

     Date and time (Linux)  : Mon Dec  3 17:54:14 2018
     Host name              : n-62-23-32                              

 * Work memory size             :  1280000000 =  9.537 gigabytes.

 * Directories for basis set searches:
   1) /zhome/d7/7/119775/My_Codes/dalton-private/build2016/basis/diffs
   2) /zhome/37/3/129401/NH3NH4/CCSD/AIMD_SAMPLING/nh3_4h2o_nd
   3) /zhome/9a/4/124800/source/dalton/build-mlcc/basis


Compilation information
-----------------------

 Who compiled             | rfaber
 Host                     | hpclogin1
 System                   | Linux-2.6.32-696.1.1.el6.x86_64
 CMake generator          | Unix Makefiles
 Processor                | x86_64
 64-bit integers          | ON
 MPI                      | OFF
 Fortran compiler         | /opt/intel/2016update2/compilers_and_libraries_201
                          | 6.2.181/linux/bin/intel64/ifort
 Fortran compiler version | ifort (IFORT) 16.0.2 20160204
 C compiler               | /opt/intel/2016update2/compilers_and_libraries_201
                          | 6.2.181/linux/bin/intel64/icc
 C compiler version       | icc (ICC) 16.0.2 20160204
 C++ compiler             | /opt/intel/2016update2/compilers_and_libraries_201
                          | 6.2.181/linux/bin/intel64/icpc
 C++ compiler version     | icpc (ICC) 16.0.2 20160204
 Static linking           | OFF
 Last Git revision        | bb4d1599ca5680a9f3980451fc8bbefdba436d59
 Git branch               | mlcc
 Configuration time       | 2017-06-13 16:11:03.928841


   Content of the .dal input file
 ----------------------------------

**DALTON
.RUN WAVE FUNCTIONS
*QMMM
.QMMM
**INTEGRALS
.DIPLEN
**WAVE FUNCTIONS
.CC
*PRINT
!To check the origin of excit
.PRINTL
   0 11
*SCF INP
.THRESH
1.0D-7
*CC INP
.CCSD
.THRLEQ
 1.0D-9
.THRENR
 1.0D-10
.FROIMP
4
0
.PRINT
 1
.MAX IT
 1200
.MAXRED
 1200
.MXLRV
1199
*CCSLV
.CCMM
.MXSLIT
200
.MXINIT
4 5
*CCEXCI
.NCCEXC
 1
.IONISATION
1
1
.CVSEPARA
1
1
*CCLRSD
.DIPOLE
**END OF DALTON INPUT


   Content of the .mol file
 ----------------------------

ATOMBASIS


Atomtypes=5 Charge=0 Nosymm Angstrom
   7.00000    1    Basis=6-311G**
N          0.000000        0.000000        0.000000
   1.00000    3    Basis=6-311G**
H          0.222637        0.841047        0.580957
H         -0.992694       -0.052498       -0.016407
H          0.341485       -0.744223        0.552707
   8.00000    4    Basis=6-311G**
O          2.512270        1.022584        1.695678
O          0.102234        0.795089       -2.648548
O         -3.294386        0.322215        0.844119
O         -1.174108        0.313002        2.868064
   1.00000    8    Basis=6-311G**
H          1.981887        1.623529        2.267105
H          3.411123        0.803010        2.088407
H          0.909053        0.571688       -3.225730
H          0.211039        0.365011       -1.666472
H         -3.492285        0.866410        0.019451
H         -4.107906       -0.204429        0.986424
H         -2.031448        0.460028        2.399526
H         -1.003070       -0.594803        2.844043
   0.00000    1    Basis=diffs
X          0.000000        0.000000        0.000000


       *******************************************************************
       *********** Output from DALTON general input processing ***********
       *******************************************************************

 --------------------------------------------------------------------------------
   Overall default print level:    0
   Print level for DALTON.STAT:    1

    HERMIT 1- and 2-electron integral sections will be executed
    "Old" integral transformation used (limited to max 255 basis functions)
    Wave function sections will be executed (SIRIUS module)
 --------------------------------------------------------------------------------


 Changes of defaults for *QMMM  :
 --------------------------------

 +------------------+
 |  WORD: | CHANGE: |
 +------------------+
 |   QMMM |       T |
 +------------------+
 


   ****************************************************************************
   *************** Output of molecule and basis set information ***************
   ****************************************************************************


    The two title cards from your ".mol" input:
    ------------------------------------------------------------------------
 1:                                                                         
 2:                                                                         
    ------------------------------------------------------------------------

  Coordinates are entered in Angstrom and converted to atomic units.
          - Conversion factor : 1 bohr = 0.52917721 A

  Atomic type no.    1
  --------------------
  Nuclear charge:   7.00000
  Number of symmetry independent centers:    1
  Number of basis sets to read;    2
  The basis set is "6-311G**" from the basis set library.
  Basis set file used for this atomic type with Z =   7 :
     "/zhome/9a/4/124800/source/dalton/build-mlcc/basis/6-311G**"

  Info about the basis set file: your basis has no documentation.
  Basis set: 6-311G**                                                                        

  Atomic type no.    2
  --------------------
  Nuclear charge:   1.00000
  Number of symmetry independent centers:    3
  Number of basis sets to read;    2
  The basis set is "6-311G**" from the basis set library.
  Basis set file used for this atomic type with Z =   1 :
     "/zhome/9a/4/124800/source/dalton/build-mlcc/basis/6-311G**"

  Info about the basis set file: your basis has no documentation.
  Basis set: 6-311G**                                                                        

  Atomic type no.    3
  --------------------
  Nuclear charge:   8.00000
  Number of symmetry independent centers:    4
  Number of basis sets to read;    2
  The basis set is "6-311G**" from the basis set library.
  Basis set file used for this atomic type with Z =   8 :
     "/zhome/9a/4/124800/source/dalton/build-mlcc/basis/6-311G**"

  Info about the basis set file: your basis has no documentation.
  Basis set: 6-311G**                                                                        

  Atomic type no.    4
  --------------------
  Nuclear charge:   1.00000
  Number of symmetry independent centers:    8
  Number of basis sets to read;    2
  The basis set is "6-311G**" from the basis set library.
  Basis set file used for this atomic type with Z =   1 :
     "/zhome/9a/4/124800/source/dalton/build-mlcc/basis/6-311G**"

  Info about the basis set file: your basis has no documentation.
  Basis set: 6-311G**                                                                        

  Atomic type no.    5
  --------------------
  Nuclear charge:   0.00000
  Number of symmetry independent centers:    1
  Number of basis sets to read;    2
  The basis set is "diffs" from the basis set library.
  Basis set file used for this atomic type with Z =   0 :
     "/zhome/9a/4/124800/source/dalton/build-mlcc/basis/diffs"

  Info about the basis set file: your basis has no documentation.
  Basis set: diffs                                                                           


                         SYMGRP: Point group information
                         -------------------------------

@    Point group: C1 


                                 Isotopic Masses
                                 ---------------

                           N          14.003074
                           H           1.007825
                           H           1.007825
                           H           1.007825
                           O          15.994915
                           O          15.994915
                           O          15.994915
                           O          15.994915
                           H           1.007825
                           H           1.007825
                           H           1.007825
                           H           1.007825
                           H           1.007825
                           H           1.007825
                           H           1.007825
                           H           1.007825

                       Total mass:    89.068809 amu
                       Natural abundance:  98.514 %

 Center-of-mass coordinates (a.u.):   -0.726456    0.916537    1.082431


  Atoms and basis sets
  --------------------

  Number of atom types :    5
  Total number of atoms:   17

  label    atoms   charge   prim   cont     basis
  ----------------------------------------------------------------------
  N           1    7.0000    31    18      [11s5p1d|4s3p1d]                                   
  H           3    1.0000     8     6      [5s1p|3s1p]                                        
  O           4    8.0000    31    18      [11s5p1d|4s3p1d]                                   
  H           8    1.0000     8     6      [5s1p|3s1p]                                        
  X           1    0.0000     1     1      [1s|1s]                                            
  ----------------------------------------------------------------------
  total:     17   50.0000   244   157
  ----------------------------------------------------------------------
  Spherical harmonic basis used.

  Threshold for neglecting AO integrals:  1.00D-12


  Cartesian Coordinates (a.u.)
  ----------------------------

  Total number of coordinates:   51
  N       :     1  x   0.0000000000    2  y   0.0000000000    3  z   0.0000000000
  H       :     4  x   0.4207229553    5  y   1.5893484882    6  z   1.0978496204
  H       :     7  x  -1.8759197859    8  y  -0.0992068421    9  z  -0.0310047365
  H       :    10  x   0.6453131258   11  y  -1.4063776459   12  z   1.0444648574
  O       :    13  x   4.7475022520   14  y   1.9324036998   15  z   3.2043670162
  O       :    16  x   0.1931942607   17  y   1.5025004550   18  z  -5.0050303489
  O       :    19  x  -6.2254872900   20  y   0.6088981034   21  z   1.5951537269
  O       :    22  x  -2.2187425612   23  y   0.5914880566   24  z   5.4198554690
  H       :    25  x   3.7452236407   26  y   3.0680251660   27  z   4.2842075466
  H       :    28  x   6.4460882487   29  y   1.5174689756   30  z   3.9465172675
  H       :    31  x   1.7178612031   32  y   1.0803337489   33  z  -6.0957462532
  H       :    34  x   0.3988059117   35  y   0.6897708226   36  z  -3.1491756750
  H       :    37  x  -6.5994622004   38  y   1.6372776120   39  z   0.0367570629
  H       :    40  x  -7.7628172872   41  y  -0.3863148220   42  z   1.8640712031
  H       :    43  x  -3.8388803572   44  y   0.8693269298   45  z   4.5344469698
  H       :    46  x  -1.8955275842   47  y  -1.1240147683   48  z   5.3744623577
  X       :    49  x   0.0000000000   50  y   0.0000000000   51  z   0.0000000000

  Max    interatomic separation is    7.6658 Angstrom (   14.4863 Bohr)
  between atoms   14 and   10, "H     " and "H     ".

  Min HX interatomic separation is    0.9241 Angstrom (    1.7463 Bohr)

  Min YX interatomic separation is    2.7672 Angstrom (    5.2293 Bohr)


  Bond distances (Angstrom):
  --------------------------

                  atom 1     atom 2       distance
                  ------     ------       --------
  bond distance:  H          N            1.046154
  bond distance:  H          N            0.994217
  bond distance:  H          N            0.987909
  bond distance:  H          O            0.984363
  bond distance:  H          O            1.005179
  bond distance:  H          O            1.016860
  bond distance:  H          O            1.077627
  bond distance:  H          O            1.007665
  bond distance:  H          O            0.979500
  bond distance:  H          O            0.988016
  bond distance:  H          O            0.924089


  Bond angles (degrees):
  ----------------------

                  atom 1     atom 2     atom 3         angle
                  ------     ------     ------         -----
  bond angle:     H          N          H            105.314
  bond angle:     H          N          H            102.790
  bond angle:     H          N          H            108.336
  bond angle:     H          O          H            112.853
  bond angle:     H          O          H            110.456
  bond angle:     H          O          H            104.250
  bond angle:     H          O          H            107.126




 Principal moments of inertia (u*A**2) and principal axes
 --------------------------------------------------------

   IA     311.628314          0.891618    0.119838   -0.436643
   IB     360.444602          0.436279    0.030660    0.899289
   IC     651.326980         -0.121157    0.992320    0.024946


 Rotational constants
 --------------------

               A                   B                   C

           1621.7365           1402.0990            775.9221 MHz
            0.054095            0.046769            0.025882 cm-1


@  Nuclear repulsion energy :  186.020040684292 Hartree

  Number of floating/multiple basis set orbitals :    1


                     .---------------------------------------.
                     | Starting in Integral Section (HERMIT) |
                     `---------------------------------------'



 ***************************************************************************************
 ****************** Output from **INTEGRALS input processing (HERMIT) ******************
 ***************************************************************************************



    *************************************************************************
    ****************** Output from HERMIT input processing ******************
    *************************************************************************


 Default print level:        1

 * Nuclear model: Point charge

 Calculation of one- and two-electron Hamiltonian integrals.

 The following one-electron property integrals are calculated as requested:
          - overlap integrals
          - dipole length integrals

 Center of mass  (bohr):     -0.726456262166      0.916537416753      1.082431282820
 Operator center (bohr):      0.000000000000      0.000000000000      0.000000000000
 Gauge origin    (bohr):      0.000000000000      0.000000000000      0.000000000000
 Dipole origin   (bohr):      0.000000000000      0.000000000000      0.000000000000
 
  *********************************** 
  QMMM electrostatic potential: 
  Multipole order                                    0
  Isotropic polarization  
  *********************************** 
 
  ---------------- 
  QMMM information 
  ---------------- 
 
  MM coordinates in au 
  -------------------- 
     1     11.306938      3.161470      9.891441
     2     13.151674      3.606947      9.863017
     3     10.487341      4.685326     10.347152
     4     -7.118801     11.503704      2.461017
     5     -5.411894     10.927933      1.895720
     6     -6.926054     13.138173      3.095301
     7     -1.795157     -4.489358      5.475062
     8     -1.062880     -5.275501      6.901832
     9     -3.637177     -5.177785      5.483815
    10     -7.192925      5.124057      9.861698
    11     -7.115274      6.289691     11.520929
    12     -7.436547      6.316786      8.465640
    13     -4.814960     -4.144158     -1.291679
    14     -5.456189     -2.758539     -0.214869
    15     -4.246353     -3.308871     -3.004812
    16      3.269869     -7.195737     -7.845584
    17      2.816506     -5.781825     -8.888665
    18      3.098463     -6.740908     -6.092292
    19     11.624688      1.124529     -8.630580
    20     10.566251      2.345711     -7.773893
    21     11.818419      1.949332    -10.319258
    22      4.955442     -8.372845      9.926293
    23      3.408301     -7.390711      9.888973
    24      5.016340     -9.202857      8.222431
    25      8.001635     -4.340336     10.138974
    26      7.859966     -3.964764     11.950938
    27      7.421000     -6.112928     10.140408
    28     -6.267498      1.476740     -8.458492
    29     -7.943456      1.703930     -7.801644
    30     -6.399212      0.482961    -10.064485
    31     -4.061981     -5.264229    -10.201841
    32     -3.221760     -4.121971     -9.026005
    33     -4.743492     -6.872856     -9.267047
    34      3.590466     -6.946518     -1.850142
    35      4.186237     -8.735679     -1.601469
    36      1.898755     -6.648132     -1.111085
    37     -1.828633      3.921745      9.567207
    38     -3.505070      4.547418      9.993648
    39     -2.063326      2.533354      8.349288
    40    -10.797033     -0.108444     -2.122374
    41     -9.772063      0.945061     -3.302376
    42    -12.461980      0.566294     -2.548441
    43    -10.821502      6.942999     -5.269019
    44    -10.728450      8.776790     -4.581679
    45     -9.765050      7.090341     -6.759027
    46     -9.694817      8.986201      6.245702
    47     -8.533998      9.707693      4.969723
    48    -10.566135      7.690785      5.388989
    49      1.106397     -1.207839     11.095372
    50      2.041403     -1.175459      9.497363
    51     -0.170884      0.020301     10.783136
    52     -2.604868    -11.592519      7.672245
    53     -1.310336    -12.594380      8.404300
    54     -4.132982    -12.289095      8.428318
    55     -7.117489      3.366706     -3.022279
    56     -8.446395      4.632442     -3.511956
    57     -6.054945      3.435061     -4.434758
    58     -6.458874     -6.922741      4.924772
    59     -7.654946     -5.728028      3.984779
    60     -7.562094     -7.609339      6.316621
    61      4.354322    -10.907728      4.984425
    62      5.485121    -12.134277      4.108342
    63      4.852435     -9.209890      4.357909
    64    -10.225183     -9.411926      7.465097
    65    -10.630212    -11.231330      7.438162
    66    -11.058150     -8.585623      8.956862
    67      4.666524      5.889796    -11.738019
    68      6.057445      5.607265    -12.877028
    69      4.414882      4.241245    -11.102914
    70    -11.101824     -8.889230    -10.823616
    71    -10.553234     -7.437731     -9.613116
    72    -12.669342     -9.840437    -10.035391
    73     10.754550      5.876532      1.236028
    74     11.152667      7.325608      0.163694
    75      9.751813      4.580084      0.559913
    76      4.476087     -1.940788      7.337058
    77      5.919284     -2.516461      8.465882
    78      4.854954     -0.879881      5.897973
    79      0.388588      8.911289     11.288974
    80     -0.152941      7.194582     11.801786
    81      2.250722      8.722537     11.037626
    82     -3.380268     -2.235453     -5.890080
    83     -4.612795     -1.132547     -6.890767
    84     -1.976172     -1.023668     -5.617950
    85     10.524737     -7.575801     -2.318804
    86     10.280613     -7.683203     -0.429739
    87      9.829307     -5.906485     -2.773389
    88     10.011792      8.293683     10.072304
    89      9.093162      9.452894     11.266061
    90     11.730326      8.873995      9.720237
    91      4.146301      1.074912     -8.835180
    92      3.229478      0.253994    -10.105002
    93      5.707400      0.074899     -8.712885
    94      0.044497    -11.249031     -8.169498
    95      1.193358     -9.797172     -8.421716
    96      0.041842    -12.456383     -9.637333
    97      7.699296      4.541902     -5.815286
    98      6.284171      5.063317     -6.869377
    99      8.983546      5.890994     -5.681418
   100      6.821989     -3.074407     -3.578671
   101      5.610444     -4.246742     -3.043011
   102      6.456276     -1.470785     -2.868678
   103      7.567008     11.574915     -9.874875
   104      6.301583     12.679524    -10.730150
   105      6.623312     11.112311     -8.355687
   106     -1.063942     -6.848626      0.847270
   107     -1.003815     -6.085544      2.574104
   108     -2.393450     -5.919684     -0.026549
   109     -5.961527     -1.107037     10.552325
   110     -4.826291     -0.607711      9.235290
   111     -5.322899     -2.845926     11.169045
   112      6.427244    -11.253172     -1.831687
   113      7.473557     -9.784917     -2.347284
   114      5.538657    -12.156087     -3.300082
   115      1.765248      5.127201      5.902295
   116      0.835083      4.982628      7.515877
   117      3.039570      6.379245      6.028223
   118     -0.314660     -7.335898      9.671562
   119     -1.362351     -6.475972     10.949685
   120     -1.242567     -8.853065      9.084907
   121     -2.411051      5.611935     -8.117532
   122     -3.527580      4.112753     -8.320494
   123     -1.576946      5.484941     -6.538290
   124     -4.996139     -9.722027     -7.808127
   125     -3.222841    -10.400546     -7.592723
   126     -5.758681     -9.567850     -6.097237
   127      4.426653      9.976964     -6.312728
   128      3.758323      8.228554     -6.052186
   129      2.880415     10.819703     -6.840750
   130     -7.183692      7.714025     -9.016617
   131     -7.171556      9.451078     -9.768000
   132     -5.400858      7.292610     -8.385115
   133      1.772652      6.062283     -3.952440
   134      1.322530      4.308874     -4.568462
   135      1.155450      6.122743     -2.119027
   136      7.127888      8.163190      5.300253
   137      8.323743      8.646128      6.572709
   138      8.091667      7.611598      3.798816
   139    -10.889190     10.345971     -0.992996
   140     -9.699276     11.405716      0.028314
   141    -12.425656     11.169536     -0.793666
   142      0.080922      6.597675      0.817620
   143      0.992907      6.096149      2.356804
   144     -0.426942      8.411282      1.065078
   145      8.136858     -2.667957     -8.701898
   146      7.877728     -3.077839     -6.827512
   147      9.530726     -1.395204     -8.904879
   148      6.911214      1.724010     -1.480702
   149      6.582035      2.811476     -2.975824
   150      5.825451      2.252062     -0.053222
   151     -7.032805    -11.655946     11.544751
   152     -6.132450    -10.556125     12.780607
   153     -8.606051    -10.572715     11.323547
   154     -7.663278     -8.338677     -3.236534
   155     -6.955419     -7.345057     -1.740534
   156     -9.393309     -8.653330     -2.712243
   157    -10.482233     -4.008689      8.444835
   158     -9.259841     -3.009519      9.551581
   159    -12.237241     -3.809421      9.131366
   160      9.522683      1.032304      5.137294
   161     10.882940      0.434680      4.110882
   162     10.087286      1.520154      6.853778
   163      5.655690     -6.237330      3.512464
   164      5.099065     -4.884218      4.646882
   165      4.699271     -6.202771      1.920861
   166     -1.608270     11.591879      1.977559
   167     -1.758524     11.621903      3.830658
   168     -1.216795     13.359202      1.366244
   169     10.585815     -7.319079      3.186968
   170      8.817846     -6.813598      3.518530
   171     11.140194     -8.378505      4.611227
   172     -9.860026     -2.950050      3.605161
   173    -10.374663     -3.432495      5.303365
   174    -10.920812     -3.994490      2.459257
   175     -9.415704     -5.148636     -7.371183
   176     -8.670133     -5.864720     -5.773370
   177    -10.509708     -3.785012     -6.934025
 
  MM charges 
  ---------- 
     1     -0.674440
     2      0.337220
     3      0.337220
     4     -0.674440
     5      0.337220
     6      0.337220
     7     -0.674440
     8      0.337220
     9      0.337220
    10     -0.674440
    11      0.337220
    12      0.337220
    13     -0.674440
    14      0.337220
    15      0.337220
    16     -0.674440
    17      0.337220
    18      0.337220
    19     -0.674440
    20      0.337220
    21      0.337220
    22     -0.674440
    23      0.337220
    24      0.337220
    25     -0.674440
    26      0.337220
    27      0.337220
    28     -0.674440
    29      0.337220
    30      0.337220
    31     -0.674440
    32      0.337220
    33      0.337220
    34     -0.674440
    35      0.337220
    36      0.337220
    37     -0.674440
    38      0.337220
    39      0.337220
    40     -0.674440
    41      0.337220
    42      0.337220
    43     -0.674440
    44      0.337220
    45      0.337220
    46     -0.674440
    47      0.337220
    48      0.337220
    49     -0.674440
    50      0.337220
    51      0.337220
    52     -0.674440
    53      0.337220
    54      0.337220
    55     -0.674440
    56      0.337220
    57      0.337220
    58     -0.674440
    59      0.337220
    60      0.337220
    61     -0.674440
    62      0.337220
    63      0.337220
    64     -0.674440
    65      0.337220
    66      0.337220
    67     -0.674440
    68      0.337220
    69      0.337220
    70     -0.674440
    71      0.337220
    72      0.337220
    73     -0.674440
    74      0.337220
    75      0.337220
    76     -0.674440
    77      0.337220
    78      0.337220
    79     -0.674440
    80      0.337220
    81      0.337220
    82     -0.674440
    83      0.337220
    84      0.337220
    85     -0.674440
    86      0.337220
    87      0.337220
    88     -0.674440
    89      0.337220
    90      0.337220
    91     -0.674440
    92      0.337220
    93      0.337220
    94     -0.674440
    95      0.337220
    96      0.337220
    97     -0.674440
    98      0.337220
    99      0.337220
   100     -0.674440
   101      0.337220
   102      0.337220
   103     -0.674440
   104      0.337220
   105      0.337220
   106     -0.674440
   107      0.337220
   108      0.337220
   109     -0.674440
   110      0.337220
   111      0.337220
   112     -0.674440
   113      0.337220
   114      0.337220
   115     -0.674440
   116      0.337220
   117      0.337220
   118     -0.674440
   119      0.337220
   120      0.337220
   121     -0.674440
   122      0.337220
   123      0.337220
   124     -0.674440
   125      0.337220
   126      0.337220
   127     -0.674440
   128      0.337220
   129      0.337220
   130     -0.674440
   131      0.337220
   132      0.337220
   133     -0.674440
   134      0.337220
   135      0.337220
   136     -0.674440
   137      0.337220
   138      0.337220
   139     -0.674440
   140      0.337220
   141      0.337220
   142     -0.674440
   143      0.337220
   144      0.337220
   145     -0.674440
   146      0.337220
   147      0.337220
   148     -0.674440
   149      0.337220
   150      0.337220
   151     -0.674440
   152      0.337220
   153      0.337220
   154     -0.674440
   155      0.337220
   156      0.337220
   157     -0.674440
   158      0.337220
   159      0.337220
   160     -0.674440
   161      0.337220
   162      0.337220
   163     -0.674440
   164      0.337220
   165      0.337220
   166     -0.674440
   167      0.337220
   168      0.337220
   169     -0.674440
   170      0.337220
   171      0.337220
   172     -0.674440
   173      0.337220
   174      0.337220
   175     -0.674440
   176      0.337220
   177      0.337220
 
  MM isotropic polarizabilities in au 
  ----------------------------------- 
     1      5.739350
     2      2.308390
     3      2.308390
     4      5.739350
     5      2.308390
     6      2.308390
     7      5.739350
     8      2.308390
     9      2.308390
    10      5.739350
    11      2.308390
    12      2.308390
    13      5.739350
    14      2.308390
    15      2.308390
    16      5.739350
    17      2.308390
    18      2.308390
    19      5.739350
    20      2.308390
    21      2.308390
    22      5.739350
    23      2.308390
    24      2.308390
    25      5.739350
    26      2.308390
    27      2.308390
    28      5.739350
    29      2.308390
    30      2.308390
    31      5.739350
    32      2.308390
    33      2.308390
    34      5.739350
    35      2.308390
    36      2.308390
    37      5.739350
    38      2.308390
    39      2.308390
    40      5.739350
    41      2.308390
    42      2.308390
    43      5.739350
    44      2.308390
    45      2.308390
    46      5.739350
    47      2.308390
    48      2.308390
    49      5.739350
    50      2.308390
    51      2.308390
    52      5.739350
    53      2.308390
    54      2.308390
    55      5.739350
    56      2.308390
    57      2.308390
    58      5.739350
    59      2.308390
    60      2.308390
    61      5.739350
    62      2.308390
    63      2.308390
    64      5.739350
    65      2.308390
    66      2.308390
    67      5.739350
    68      2.308390
    69      2.308390
    70      5.739350
    71      2.308390
    72      2.308390
    73      5.739350
    74      2.308390
    75      2.308390
    76      5.739350
    77      2.308390
    78      2.308390
    79      5.739350
    80      2.308390
    81      2.308390
    82      5.739350
    83      2.308390
    84      2.308390
    85      5.739350
    86      2.308390
    87      2.308390
    88      5.739350
    89      2.308390
    90      2.308390
    91      5.739350
    92      2.308390
    93      2.308390
    94      5.739350
    95      2.308390
    96      2.308390
    97      5.739350
    98      2.308390
    99      2.308390
   100      5.739350
   101      2.308390
   102      2.308390
   103      5.739350
   104      2.308390
   105      2.308390
   106      5.739350
   107      2.308390
   108      2.308390
   109      5.739350
   110      2.308390
   111      2.308390
   112      5.739350
   113      2.308390
   114      2.308390
   115      5.739350
   116      2.308390
   117      2.308390
   118      5.739350
   119      2.308390
   120      2.308390
   121      5.739350
   122      2.308390
   123      2.308390
   124      5.739350
   125      2.308390
   126      2.308390
   127      5.739350
   128      2.308390
   129      2.308390
   130      5.739350
   131      2.308390
   132      2.308390
   133      5.739350
   134      2.308390
   135      2.308390
   136      5.739350
   137      2.308390
   138      2.308390
   139      5.739350
   140      2.308390
   141      2.308390
   142      5.739350
   143      2.308390
   144      2.308390
   145      5.739350
   146      2.308390
   147      2.308390
   148      5.739350
   149      2.308390
   150      2.308390
   151      5.739350
   152      2.308390
   153      2.308390
   154      5.739350
   155      2.308390
   156      2.308390
   157      5.739350
   158      2.308390
   159      2.308390
   160      5.739350
   161      2.308390
   162      2.308390
   163      5.739350
   164      2.308390
   165      2.308390
   166      5.739350
   167      2.308390
   168      2.308390
   169      5.739350
   170      2.308390
   171      2.308390
   172      5.739350
   173      2.308390
   174      2.308390
   175      5.739350
   176      2.308390
   177      2.308390


     ************************************************************************
     ************************** Output from HERINT **************************
     ************************************************************************



                      Nuclear contribution to dipole moments
                      --------------------------------------

                 au               Debye          C m (/(10**-30)

      x    -36.62685884       -93.09618321      -310.53544120
      y     44.51796018       113.15336092       377.43898454
      z     54.62161713       138.83429365       463.10135544



 Threshold for neglecting two-electron integrals:  1.00D-12
 HERMIT - Number of two-electron integrals written:    30063403 ( 39.1% )
 HERMIT - Megabytes written:                            344.242

  Time used in TWOINT     is       6.07 seconds
  Total CPU  time used in HERMIT:   6.24 seconds
  Total wall time used in HERMIT:  13.98 seconds


                        .----------------------------------.
                        | End of Integral Section (HERMIT) |
                        `----------------------------------'



                   .--------------------------------------------.
                   | Starting in Wave Function Section (SIRIUS) |
                   `--------------------------------------------'

NCCEXCI for singlet:    1
 CCSD_INPUT: core-val requested
 Requested number of virtual orbs per sym
                     1
 Indices of requested virtual orbs
                     1
 CCSD_INPUT: core-val requested
 Requested number of core orbs per sym
                     1
 Indices of requested core orbs
                     1

 *** Output from Huckel module :

     Using EWMO model:          T
     Using EHT  model:          F
     Number of Huckel orbitals each symmetry:   36

 EWMO - Energy Weighted Maximum Overlap - is a Huckel type method,
        which normally is better than Extended Huckel Theory.
 Reference: Linderberg and Ohrn, Propagators in Quantum Chemistry (Wiley, 1973)

 Huckel EWMO eigenvalues for symmetry :  1
          -20.685365     -20.684414     -20.684143     -20.683779     -15.674305
           -1.730316      -1.618292      -1.581184      -1.555492      -1.460218
           -0.826377      -0.806681      -0.802089      -0.783333      -0.730245
           -0.702215      -0.694291      -0.689648      -0.659272      -0.643471
           -0.619704      -0.613472      -0.610166      -0.602712      -0.512322
           -0.262965      -0.248490      -0.240641      -0.211415      -0.187529
           -0.179504      -0.177760      -0.163871      -0.161232      -0.149555
           -0.139331

 **********************************************************************
 *SIRIUS* a direct, restricted step, second order MCSCF program       *
 **********************************************************************

 
     Date and time (Linux)  : Mon Dec  3 17:54:29 2018
     Host name              : n-62-23-32                              

 Title lines from ".mol" input file:
                                                                             
                                                                             

 Print level on unit LUPRI =   2 is   0
 Print level on unit LUW4  =   2 is  11

@    (Integral direct) CC calculation.

@    This is a combination run starting with
@              a restricted, closed shell Hartree-Fock calculation


 Initial molecular orbitals are obtained according to
 ".MOSTART EWMO  " input option

@    QM part is embedded in an environment :

@         Model: QMMM

     Wave function specification
     ============================

     For the specification of the Coupled Cluster: see later.

@    Wave function type        --- CC ---
@    Number of closed shell electrons          50
@    Number of electrons in active shells       0
@    Total charge of the molecule               0

@    Spin multiplicity and 2 M_S                1         0
@    Total number of symmetries                 1 (point group: C1 )
@    Reference state symmetry                   1 (irrep name : A  )

     Orbital specifications
     ======================
@    Abelian symmetry species          All |    1
@                                          |  A  
                                       --- |  ---
@    Occupied SCF orbitals              25 |   25
@    Secondary orbitals                132 |  132
@    Total number of orbitals          157 |  157
@    Number of basis functions         157 |  157

     Optimization information
     ========================
@    Number of configurations                 1
@    Number of orbital rotations           3300
     ------------------------------------------
@    Total number of variables             3301

     Maximum number of Fock   iterations      0
     Maximum number of DIIS   iterations     60
     Maximum number of QC-SCF iterations     60
     Threshold for SCF convergence     1.00D-07


 Changes of defaults for CC:
 ---------------------------


 -Implicit frozen core calculation
 -Excitation energies calculated
 -One-photon absorption strengths will be calculated
 -Oscillator strengths calculated
  
* Read MO coefficients from SIRIUS.RST with label "NEWORB  " and header info:  3Dec18  REORTHO 


 ***********************************************
 ***** DIIS acceleration of SCF iterations *****
 ***********************************************

 C1-DIIS algorithm; max error vectors =    8
 -----------------------------------------------------------------------------

 *** DIIS iteration number    1
 RDSUPM called. NFMAT, ISYMDM(1:NFMAT)                     1
                     1

Calculating AOSUPINT
     (Precalculated two-electron integrals are transformed to P-supermatrix elements.
      Threshold for discarding integrals :  1.00D-12 )
  CPU  time used in FORMSUP    is   3.02 seconds
  WALL time used in FORMSUP    is  35.99 seconds

 ITDIIS, energy, error norm, change in energy, scr.thr., difden:
@ DIIS iter.   1    -359.878489236        3.82646D+00   -3.60D+02  -20    F

 (DIIS_RED) Control Parameters C2DIIS =         F NEVC =    1


 (DIIS_RED) B matrix:

               Column   1
       1      14.64178362
    ==== End of matrix output ====

 DIIS C vector; C2DIIS = F, LAMBDA = -1.46D+01
    1.000000
* Read MO coefficients from SIRIUS.RST with label "NEWORB  " and header info:  3Dec18  DIIS   1
      Virial theorem: -V/T =      1.997990
@      MULPOP N      -0.30; H       0.16; H       0.17; H       0.16; O      -0.63; O      -0.86; O      -0.55; O      -0.70; H       0.33; H       0.31; 
@             H       0.32; H       0.31; H       0.31; H       0.31; H       0.33; H       0.33; 
   1  Level shift: doubly occupied orbital energies shifted by -2.00D-01

 DIIS Fock eigenvalues in symmetry 1
      -20.74507      -20.69148      -20.67303      -20.52733      -16.02805
       -1.55310       -1.53744       -1.51110       -1.46878       -1.44506
       -0.97638       -0.94328       -0.92917       -0.92527       -0.90413
       -0.87640       -0.80832       -0.76626       -0.76271       -0.75690
       -0.75598       -0.72710       -0.72464       -0.69158       -0.68079
        0.00000        0.11234        0.16075        0.18503        0.19913
        0.21976        0.23371        0.26731        0.27503        0.30277
        0.32378        0.34431        0.41692        0.44126        0.50357
        0.51625        0.55184        0.56975        0.57896        0.58502
        0.59974        0.61910        0.66860        0.80510        0.85516
        0.85954        0.96039        0.97610        0.99206        1.00142
        1.02491        1.06314        1.06946        1.08547        1.10358
        1.13768        1.14709        1.15485        1.22056        1.23402
        1.28519        1.32783        1.35596        1.38015        1.45688
        1.46620        1.48216        1.48739        1.51830        1.52261
        1.59425        1.60586        1.62143        1.66703        1.69450
        1.72036        1.73371        1.76052        1.80392        1.82480
        1.85345        1.86012        1.89083        1.90504        1.96650
        2.06697        2.10757        2.16645        2.24222        2.24986
        2.29345        2.30951        2.36217        2.42386        2.44446
        2.47162        2.56334        2.60353        2.61846        2.63836
        2.65744        2.72206        2.76135        2.77371        2.78456
        2.82006        2.82439        2.87767        2.91665        3.07357
        3.30959        3.34005        3.40161        3.40966        3.43723
        3.46426        3.47558        3.52327        3.53366        3.56284
        3.60957        3.62329        3.62840        3.71815        3.94999
        4.01128        4.04582        4.05839        4.16885        4.19581
        4.20237        4.26118        4.46423        4.94908        5.10605
        5.32927        5.34212        5.41583        5.43406        5.69946
        5.72584        5.76690        5.80192        6.04496        6.13459
        6.13847        6.26424       36.78453       51.52260       51.57042
       51.64939       51.72879
 Time used in FCKEIG, thr_jaco:   4.20D-02  1.39D-01  1.67D-04
 CPU and wall times used in FCKEIG, THR_FCKEIG:   4.20D-02  1.39D-01  3.83D-02
 -----------------------------------------------------------------------------

 *** DIIS iteration number    2
 RDSUPM called. NFMAT, ISYMDM(1:NFMAT)                     1
                     1

 ITDIIS, energy, error norm, change in energy, scr.thr., difden:
@ DIIS iter.   2    -360.677004584        9.78929D-01   -7.99D-01  -20    F

 (DIIS_RED) Control Parameters C2DIIS =         F NEVC =    2


 (DIIS_RED) B matrix:

               Column   1     Column   2
       1      14.64178362
       2       0.82319315     0.95830123
    ==== End of matrix output ====

 DIIS C vector; C2DIIS = F, LAMBDA = -9.57D-01
    0.009683    0.990317
* Read MO coefficients from SIRIUS.RST with label "NEWORB  " and header info:  3Dec18  DIIS   2
      Virial theorem: -V/T =      2.004054
@      MULPOP N      -0.64; H       0.25; H       0.22; H       0.23; O      -0.62; O      -0.73; O      -0.56; O      -0.60; H       0.31; H       0.32; 
@             H       0.28; H       0.34; H       0.31; H       0.30; H       0.28; H       0.30; 
   2  Level shift: doubly occupied orbital energies shifted by -1.00D-01

 DIIS Fock eigenvalues in symmetry 1
      -20.76233      -20.66383      -20.65691      -20.64484      -15.51653
       -1.44129       -1.43763       -1.42700       -1.40487       -1.21083
       -0.80836       -0.80682       -0.78999       -0.78301       -0.71682
       -0.70189       -0.69678       -0.68814       -0.66300       -0.65805
       -0.64812       -0.62244       -0.61468       -0.60227       -0.51465
        0.00000        0.15803        0.19163        0.20036        0.23793
        0.24864        0.26765        0.29368        0.31722        0.32254
        0.34751        0.36506        0.48596        0.50289        0.53071
        0.55081        0.59271        0.60193        0.60910        0.61987
        0.63605        0.66742        0.73545        0.90706        0.92533
        0.95196        0.95381        0.97790        0.99471        1.02803
        1.05714        1.08012        1.09868        1.11674        1.12175
        1.14460        1.16431        1.19989        1.28908        1.32783
        1.35139        1.38199        1.39164        1.41320        1.50668
        1.51086        1.51851        1.53150        1.54347        1.57125
        1.61221        1.65468        1.66318        1.72137        1.72996
        1.78012        1.81038        1.81886        1.87008        1.88723
        1.90882        1.92866        1.95863        1.98722        2.04437
        2.18756        2.22397        2.23306        2.24788        2.29293
        2.35615        2.36644        2.41720        2.47873        2.51449
        2.57859        2.62961        2.66571        2.68586        2.69080
        2.71845        2.78695        2.82715        2.82912        2.85063
        2.87596        2.98785        3.04335        3.07088        3.21204
        3.34242        3.42341        3.43967        3.44560        3.48902
        3.50337        3.51796        3.54466        3.54611        3.55076
        3.57943        3.64229        3.67184        3.73639        3.95512
        3.98725        4.06761        4.07555        4.11397        4.19858
        4.23553        4.27413        4.67368        5.19794        5.24576
        5.32381        5.33471        5.38911        5.42040        5.56665
        5.69713        5.75083        5.82308        5.99384        6.08153
        6.15126        6.26941       37.18837       51.40004       51.50335
       51.51966       51.57144
 Time used in FCKEIG, thr_jaco:   2.80D-02  6.30D-02  4.26D-05
 CPU and wall times used in FCKEIG, THR_FCKEIG:   2.80D-02  6.30D-02  9.79D-03
 -----------------------------------------------------------------------------

 *** DIIS iteration number    3
 RDSUPM called. NFMAT, ISYMDM(1:NFMAT)                     1
                     1

 ITDIIS, energy, error norm, change in energy, scr.thr., difden:
@ DIIS iter.   3    -360.739761851        3.73232D-01   -6.28D-02  -20    F

 (DIIS_RED) Control Parameters C2DIIS =         F NEVC =    3


 (DIIS_RED) B matrix:

               Column   1     Column   2     Column   3
       1      14.64178362
       2       0.82319315     0.95830123
       3       0.72895451     0.03424005     0.13930192
    ==== End of matrix output ====

 DIIS C vector; C2DIIS = F, LAMBDA = -1.01D-01
   -0.045918    0.110981    0.934937
* Read MO coefficients from SIRIUS.RST with label "NEWORB  " and header info:  3Dec18  DIIS   3
      Virial theorem: -V/T =      2.001884
@      MULPOP N      -0.55; H       0.22; H       0.19; H       0.20; O      -0.67; O      -0.84; O      -0.61; O      -0.65; H       0.34; H       0.35; 
@             H       0.34; H       0.39; H       0.33; H       0.32; H       0.30; H       0.33; 
   3  Level shift: doubly occupied orbital energies shifted by -5.00D-02

 DIIS Fock eigenvalues in symmetry 1
      -20.59402      -20.56688      -20.56439      -20.55773      -15.60654
       -1.37347       -1.36489       -1.34327       -1.34030       -1.19799
       -0.74101       -0.72889       -0.72402       -0.72038       -0.68609
       -0.66211       -0.63225       -0.60431       -0.59144       -0.58400
       -0.55492       -0.55385       -0.54118       -0.53154       -0.48555
        0.00000        0.16297        0.19746        0.20678        0.23991
        0.25207        0.26977        0.29748        0.32077        0.32413
        0.35072        0.37143        0.48612        0.50538        0.54422
        0.56194        0.60196        0.61268        0.61787        0.62815
        0.64423        0.67618        0.73862        0.90293        0.94155
        0.94796        0.97493        0.99856        1.00270        1.03411
        1.06673        1.09265        1.11046        1.12522        1.13579
        1.15660        1.17634        1.20922        1.29048        1.32644
        1.36071        1.38274        1.39823        1.42432        1.51978
        1.52330        1.52973        1.54605        1.55384        1.58434
        1.62998        1.66605        1.67341        1.73276        1.74137
        1.78976        1.81829        1.82787        1.87678        1.89415
        1.91624        1.93503        1.96907        1.99010        2.04884
        2.17709        2.22458        2.23470        2.26760        2.30457
        2.36962        2.37950        2.43132        2.49584        2.53070
        2.57634        2.64016        2.67780        2.69658        2.70196
        2.72466        2.79573        2.83611        2.83942        2.85986
        2.88604        2.96438        3.01680        3.05266        3.19737
        3.40164        3.44191        3.45823        3.47609        3.50120
        3.51280        3.51790        3.52748        3.56562        3.60025
        3.60153        3.65904        3.68867        3.76026        4.00299
        4.00683        4.08729        4.09855        4.17240        4.21971
        4.25308        4.29986        4.61723        5.14271        5.29448
        5.33782        5.35187        5.38948        5.44824        5.65234
        5.71979        5.77980        5.84115        6.08004        6.09995
        6.17381        6.29935       37.05276       51.52467       51.54736
       51.55377       51.61269
 Time used in FCKEIG, thr_jaco:   2.50D-02  4.80D-02  1.62D-05
 CPU and wall times used in FCKEIG, THR_FCKEIG:   2.50D-02  4.80D-02  3.73D-03
 -----------------------------------------------------------------------------

 *** DIIS iteration number    4
 RDSUPM called. NFMAT, ISYMDM(1:NFMAT)                     1
                     1

 ITDIIS, energy, error norm, change in energy, scr.thr., difden:
@ DIIS iter.   4    -360.749371355        1.12815D-01   -9.61D-03  -20    F

 (DIIS_RED) Control Parameters C2DIIS =         F NEVC =    4


 (DIIS_RED) B matrix:

               Column   1     Column   2     Column   3     Column   4
       1      14.64178362
       2       0.82319315     0.95830123
       3       0.72895451     0.03424005     0.13930192
       4       0.02144794     0.08778555    -0.00418486     0.01272730
    ==== End of matrix output ====

 DIIS C vector; C2DIIS = F, LAMBDA = -4.50D-03
   -0.000426   -0.089971    0.086816    1.003582
* Read MO coefficients from SIRIUS.RST with label "NEWORB  " and header info:  3Dec18  DIIS   4
      Virial theorem: -V/T =      2.002685
@      MULPOP N      -0.61; H       0.24; H       0.20; H       0.22; O      -0.69; O      -0.82; O      -0.63; O      -0.66; H       0.35; H       0.36; 
@             H       0.34; H       0.39; H       0.34; H       0.33; H       0.31; H       0.34; 
   4  Level shift: doubly occupied orbital energies shifted by -2.50D-02

 DIIS Fock eigenvalues in symmetry 1
      -20.57358      -20.57285      -20.54672      -20.54596      -15.55522
       -1.35128       -1.34292       -1.32828       -1.32010       -1.16429
       -0.71856       -0.70641       -0.70416       -0.69716       -0.65537
       -0.62882       -0.60769       -0.58779       -0.56742       -0.55805
       -0.53880       -0.52717       -0.51499       -0.50424       -0.45252
        0.00000        0.16332        0.19689        0.20590        0.24008
        0.25249        0.27051        0.29756        0.32192        0.32486
        0.35168        0.37234        0.48982        0.50887        0.54446
        0.56241        0.60146        0.61133        0.61709        0.62722
        0.64402        0.67559        0.74113        0.90687        0.94396
        0.95307        0.97233        0.99628        1.00336        1.03649
        1.06801        1.09227        1.11011        1.12600        1.13435
        1.15532        1.17584        1.20868        1.29249        1.32997
        1.36116        1.38716        1.39900        1.42467        1.51807
        1.52165        1.52864        1.54402        1.55253        1.58323
        1.62803        1.66467        1.67275        1.73205        1.74040
        1.78911        1.82008        1.82818        1.87786        1.89422
        1.91698        1.93507        1.96835        1.99343        2.05187
        2.18335        2.23034        2.23344        2.26161        2.30324
        2.36737        2.37787        2.42894        2.49455        2.53077
        2.58139        2.63812        2.67694        2.69580        2.70024
        2.72764        2.79669        2.83609        2.83845        2.85856
        2.88747        2.97356        3.02648        3.06059        3.20372
        3.39017        3.44202        3.45860        3.47849        3.50150
        3.51210        3.51858        3.53119        3.56549        3.58893
        3.59996        3.65918        3.68785        3.75883        3.99627
        4.00241        4.08664        4.09696        4.16094        4.21925
        4.25235        4.29824        4.63075        5.15686        5.30489
        5.31711        5.35069        5.38998        5.44527        5.63227
        5.71861        5.77700        5.83957        6.05977        6.09763
        6.17188        6.29556       37.07871       51.51237       51.52157
       51.54407       51.60577
 Time used in FCKEIG, thr_jaco:   2.40D-02  3.70D-02  4.91D-06
 CPU and wall times used in FCKEIG, THR_FCKEIG:   2.40D-02  3.70D-02  1.13D-03
 -----------------------------------------------------------------------------

 *** DIIS iteration number    5
 RDSUPM called. NFMAT, ISYMDM(1:NFMAT)                     1
                     1

 ITDIIS, energy, error norm, change in energy, scr.thr., difden:
@ DIIS iter.   5    -360.750600126        2.69704D-02   -1.23D-03  -20    F

 (DIIS_RED) Control Parameters C2DIIS =         F NEVC =    5


 (DIIS_RED) B matrix:

               Column   1     Column   2     Column   3     Column   4     Column   5
       1      14.64178362
       2       0.82319315     0.95830123
       3       0.72895451     0.03424005     0.13930192
       4       0.02144794     0.08778555    -0.00418486     0.01272730
       5       0.01576934     0.00696703     0.00566532     0.00109910     0.00072740
    ==== End of matrix output ====

 DIIS C vector; C2DIIS = F, LAMBDA = -4.55D-04
    0.001587    0.001100   -0.054529   -0.091150    1.142992
* Read MO coefficients from SIRIUS.RST with label "NEWORB  " and header info:  3Dec18  DIIS   5
      Virial theorem: -V/T =      2.002358
@      MULPOP N      -0.61; H       0.24; H       0.20; H       0.22; O      -0.70; O      -0.84; O      -0.64; O      -0.67; H       0.35; H       0.36; 
@             H       0.36; H       0.40; H       0.35; H       0.33; H       0.31; H       0.35; 

 DIIS Fock eigenvalues in symmetry 1
      -20.54761      -20.54011      -20.52161      -20.52046      -15.52411
       -1.32625       -1.31790       -1.30031       -1.29486       -1.13748
       -0.69399       -0.68107       -0.67840       -0.67248       -0.62902
       -0.60246       -0.58303       -0.56035       -0.54282       -0.53301
       -0.51001       -0.50128       -0.48889       -0.47808       -0.42542
        0.00000        0.16335        0.19682        0.20600        0.24006
        0.25262        0.27051        0.29742        0.32197        0.32493
        0.35171        0.37285        0.49027        0.50941        0.54515
        0.56225        0.60124        0.61162        0.61691        0.62685
        0.64383        0.67555        0.74170        0.90784        0.94561
        0.95393        0.97434        0.99795        1.00421        1.03714
        1.06852        1.09277        1.11018        1.12602        1.13478
        1.15575        1.17568        1.20879        1.29310        1.33067
        1.36146        1.38805        1.39941        1.42470        1.51831
        1.52180        1.52823        1.54403        1.55256        1.58297
        1.62865        1.66441        1.67249        1.73194        1.74032
        1.78873        1.82009        1.82809        1.87817        1.89410
        1.91704        1.93497        1.96795        1.99391        2.05248
        2.18416        2.23067        2.23330        2.26231        2.30272
        2.36673        2.37739        2.42844        2.49429        2.53145
        2.58228        2.63725        2.67664        2.69534        2.70003
        2.72793        2.79649        2.83567        2.83788        2.85778
        2.88726        2.97505        3.02803        3.06193        3.20493
        3.39337        3.44232        3.45873        3.48077        3.50387
        3.51227        3.51897        3.53275        3.56561        3.59189
        3.59994        3.65942        3.68758        3.75882        3.99912
        4.00233        4.08665        4.09698        4.16396        4.21952
        4.25214        4.29821        4.63386        5.15963        5.30743
        5.32204        5.35127        5.39062        5.44558        5.63697
        5.71887        5.77702        5.83947        6.06415        6.09736
        6.17194        6.29539       37.08468       51.51909       51.52338
       51.54460       51.60589
 Time used in FCKEIG, thr_jaco:   2.20D-02  2.60D-02  1.17D-06
 CPU and wall times used in FCKEIG, THR_FCKEIG:   2.20D-02  2.60D-02  2.70D-04
 -----------------------------------------------------------------------------

 *** DIIS iteration number    6
 RDSUPM called. NFMAT, ISYMDM(1:NFMAT)                     1
                     1

 ITDIIS, energy, error norm, change in energy, scr.thr., difden:
@ DIIS iter.   6    -360.750704545        9.76234D-03   -1.04D-04  -20    F

 (DIIS_RED) Control Parameters C2DIIS =         F NEVC =    6


 (DIIS_RED) B matrix:

               Column   1     Column   2     Column   3     Column   4     Column   5     Column   6
       1      14.64178362
       2       0.82319315     0.95830123
       3       0.72895451     0.03424005     0.13930192
       4       0.02144794     0.08778555    -0.00418486     0.01272730
       5       0.01576934     0.00696703     0.00566532     0.00109910     0.00072740
       6      -0.00146691    -0.00029663     0.00080826     0.00033277     0.00007692     0.00009530
    ==== End of matrix output ====

 DIIS C vector; C2DIIS = F, LAMBDA = -4.58D-05
    0.000617    0.009077   -0.021842   -0.108531    0.199289    0.921391
* Read MO coefficients from SIRIUS.RST with label "NEWORB  " and header info:  3Dec18  DIIS   6
      Virial theorem: -V/T =      2.002495
@      MULPOP N      -0.61; H       0.24; H       0.20; H       0.22; O      -0.71; O      -0.85; O      -0.64; O      -0.67; H       0.36; H       0.36; 
@             H       0.36; H       0.40; H       0.35; H       0.33; H       0.31; H       0.35; 

 DIIS Fock eigenvalues in symmetry 1
      -20.54784      -20.54284      -20.52122      -20.52031      -15.52824
       -1.32620       -1.31785       -1.30102       -1.29472       -1.13880
       -0.69405       -0.68149       -0.67907       -0.67260       -0.63017
       -0.60356       -0.58328       -0.56117       -0.54297       -0.53309
       -0.51045       -0.50116       -0.48858       -0.47775       -0.42652
        0.00000        0.16320        0.19670        0.20591        0.23991
        0.25250        0.27037        0.29729        0.32189        0.32474
        0.35158        0.37259        0.48983        0.50898        0.54483
        0.56217        0.60108        0.61135        0.61679        0.62666
        0.64368        0.67545        0.74143        0.90729        0.94501
        0.95333        0.97394        0.99765        1.00399        1.03703
        1.06837        1.09250        1.11006        1.12578        1.13459
        1.15543        1.17562        1.20866        1.29264        1.33017
        1.36140        1.38746        1.39919        1.42454        1.51795
        1.52147        1.52810        1.54371        1.55218        1.58286
        1.62831        1.66427        1.67237        1.73162        1.74004
        1.78859        1.81981        1.82785        1.87778        1.89373
        1.91672        1.93458        1.96774        1.99346        2.05199
        2.18333        2.23003        2.23271        2.26178        2.30257
        2.36649        2.37723        2.42829        2.49414        2.53100
        2.58163        2.63690        2.67646        2.69517        2.69975
        2.72757        2.79619        2.83539        2.83767        2.85744
        2.88697        2.97382        3.02671        3.06082        3.20404
        3.39251        3.44239        3.45843        3.47969        3.50267
        3.51219        3.51850        3.53161        3.56566        3.59108
        3.60003        3.65943        3.68738        3.75894        3.99822
        4.00207        4.08669        4.09703        4.16310        4.21955
        4.25197        4.29834        4.63167        5.15754        5.30577
        5.32060        5.35138        5.39017        5.44582        5.63553
        5.71896        5.77720        5.83927        6.06273        6.09711
        6.17197        6.29553       37.08064       51.51731       51.52228
       51.54473       51.60623
 Time used in FCKEIG, thr_jaco:   2.20D-02  3.40D-02  4.25D-07
 CPU and wall times used in FCKEIG, THR_FCKEIG:   2.20D-02  3.40D-02  9.76D-05
 -----------------------------------------------------------------------------

 *** DIIS iteration number    7
 RDSUPM called. NFMAT, ISYMDM(1:NFMAT)                     1
                     1

 ITDIIS, energy, error norm, change in energy, scr.thr., difden:
@ DIIS iter.   7    -360.750714391        2.60444D-03   -9.85D-06  -20    F

 (DIIS_RED) Control Parameters C2DIIS =         F NEVC =    7


 (DIIS_RED) B matrix:

               Column   1     Column   2     Column   3     Column   4     Column   5     Column   6
       1      14.64178362
       2       0.82319315     0.95830123
       3       0.72895451     0.03424005     0.13930192
       4       0.02144794     0.08778555    -0.00418486     0.01272730
       5       0.01576934     0.00696703     0.00566532     0.00109910     0.00072740
       6      -0.00146691    -0.00029663     0.00080826     0.00033277     0.00007692     0.00009530
       7       0.00039917    -0.00005038     0.00010250     0.00000184     0.00004686     0.00000119

               Column   7
       7       0.00000678
    ==== End of matrix output ====

 DIIS C vector; C2DIIS = F, LAMBDA = -1.54D-06
   -0.000230   -0.001403    0.007988    0.027016   -0.152742   -0.045110    1.164481
* Read MO coefficients from SIRIUS.RST with label "NEWORB  " and header info:  3Dec18  DIIS   7
      Virial theorem: -V/T =      2.002471
@      MULPOP N      -0.61; H       0.24; H       0.20; H       0.22; O      -0.71; O      -0.85; O      -0.64; O      -0.67; H       0.36; H       0.36; 
@             H       0.36; H       0.40; H       0.35; H       0.34; H       0.31; H       0.35; 

 DIIS Fock eigenvalues in symmetry 1
      -20.54794      -20.54214      -20.52141      -20.52041      -15.52770
       -1.32623       -1.31787       -1.30068       -1.29470       -1.13863
       -0.69412       -0.68149       -0.67893       -0.67263       -0.63007
       -0.60347       -0.58339       -0.56096       -0.54310       -0.53316
       -0.51007       -0.50113       -0.48855       -0.47770       -0.42632
        0.00000        0.16322        0.19671        0.20595        0.23990
        0.25252        0.27037        0.29729        0.32189        0.32474
        0.35158        0.37268        0.48990        0.50906        0.54497
        0.56216        0.60107        0.61142        0.61678        0.62664
        0.64367        0.67543        0.74146        0.90734        0.94517
        0.95339        0.97414        0.99780        1.00405        1.03706
        1.06839        1.09255        1.11006        1.12580        1.13462
        1.15550        1.17560        1.20865        1.29273        1.33021
        1.36144        1.38751        1.39921        1.42455        1.51799
        1.52152        1.52807        1.54373        1.55222        1.58282
        1.62844        1.66424        1.67236        1.73165        1.74009
        1.78857        1.81979        1.82783        1.87786        1.89373
        1.91675        1.93458        1.96771        1.99348        2.05207
        2.18339        2.23005        2.23270        2.26189        2.30254
        2.36642        2.37719        2.42824        2.49412        2.53112
        2.58165        2.63682        2.67643        2.69514        2.69979
        2.72757        2.79618        2.83538        2.83765        2.85737
        2.88703        2.97395        3.02687        3.06093        3.20411
        3.39284        3.44238        3.45841        3.47992        3.50291
        3.51215        3.51852        3.53175        3.56565        3.59140
        3.59998        3.65944        3.68734        3.75890        3.99851
        4.00205        4.08667        4.09700        4.16342        4.21956
        4.25193        4.29830        4.63199        5.15778        5.30597
        5.32105        5.35137        5.39017        5.44574        5.63597
        5.71892        5.77711        5.83921        6.06316        6.09705
        6.17194        6.29545       37.08116       51.51778       51.52240
       51.54463       51.60605
 Time used in FCKEIG, thr_jaco:   2.20D-02  3.90D-02  1.13D-07
 CPU and wall times used in FCKEIG, THR_FCKEIG:   2.20D-02  3.90D-02  2.60D-05
 -----------------------------------------------------------------------------

 *** DIIS iteration number    8
 RDSUPM called. NFMAT, ISYMDM(1:NFMAT)                     1
                     1

 ITDIIS, energy, error norm, change in energy, scr.thr., difden:
@ DIIS iter.   8    -360.750715197        4.11993D-04   -8.05D-07  -20    F

 (DIIS_RED) Control Parameters C2DIIS =         F NEVC =    8


 (DIIS_RED) B matrix:

               Column   1     Column   2     Column   3     Column   4     Column   5     Column   6
       1      14.64178362
       2       0.82319315     0.95830123
       3       0.72895451     0.03424005     0.13930192
       4       0.02144794     0.08778555    -0.00418486     0.01272730
       5       0.01576934     0.00696703     0.00566532     0.00109910     0.00072740
       6      -0.00146691    -0.00029663     0.00080826     0.00033277     0.00007692     0.00009530
       7       0.00039917    -0.00005038     0.00010250     0.00000184     0.00004686     0.00000119
       8       0.00010244     0.00000715     0.00000358     0.00000284     0.00000148     0.00000167

               Column   7     Column   8
       7       0.00000678
       8       0.00000045     0.00000017
    ==== End of matrix output ====

 DIIS C vector; C2DIIS = F, LAMBDA = -1.06D-07
   -0.000002   -0.000105   -0.000252    0.000000    0.012581   -0.025738   -0.140630    1.154146
* Read MO coefficients from SIRIUS.RST with label "NEWORB  " and header info:  3Dec18  DIIS   8
      Virial theorem: -V/T =      2.002484
@      MULPOP N      -0.61; H       0.24; H       0.20; H       0.22; O      -0.71; O      -0.85; O      -0.64; O      -0.68; H       0.36; H       0.36; 
@             H       0.36; H       0.40; H       0.35; H       0.34; H       0.31; H       0.35; 

 DIIS Fock eigenvalues in symmetry 1
      -20.54790      -20.54217      -20.52132      -20.52035      -15.52771
       -1.32620       -1.31785       -1.30069       -1.29468       -1.13863
       -0.69409       -0.68148       -0.67893       -0.67260       -0.63007
       -0.60348       -0.58339       -0.56097       -0.54310       -0.53316
       -0.51007       -0.50111       -0.48851       -0.47768       -0.42633
        0.00000        0.16322        0.19671        0.20595        0.23990
        0.25252        0.27037        0.29728        0.32189        0.32473
        0.35157        0.37267        0.48989        0.50905        0.54496
        0.56216        0.60107        0.61142        0.61678        0.62663
        0.64368        0.67544        0.74146        0.90734        0.94517
        0.95339        0.97414        0.99780        1.00405        1.03706
        1.06840        1.09255        1.11007        1.12580        1.13463
        1.15550        1.17561        1.20865        1.29273        1.33021
        1.36145        1.38751        1.39921        1.42455        1.51798
        1.52151        1.52807        1.54373        1.55221        1.58282
        1.62843        1.66424        1.67236        1.73164        1.74008
        1.78857        1.81979        1.82783        1.87785        1.89372
        1.91675        1.93457        1.96771        1.99347        2.05205
        2.18338        2.23004        2.23269        2.26190        2.30255
        2.36642        2.37720        2.42825        2.49412        2.53110
        2.58165        2.63681        2.67643        2.69514        2.69980
        2.72756        2.79618        2.83537        2.83765        2.85736
        2.88700        2.97394        3.02686        3.06092        3.20410
        3.39282        3.44240        3.45841        3.47991        3.50291
        3.51217        3.51852        3.53174        3.56567        3.59139
        3.60001        3.65946        3.68735        3.75893        3.99850
        4.00205        4.08669        4.09702        4.16341        4.21958
        4.25194        4.29833        4.63197        5.15777        5.30597
        5.32103        5.35140        5.39018        5.44579        5.63595
        5.71896        5.77716        5.83922        6.06314        6.09706
        6.17197        6.29549       37.08115       51.51777       51.52242
       51.54469       51.60614
 Time used in FCKEIG, thr_jaco:   2.10D-02  9.90D-02  1.79D-08
 CPU and wall times used in FCKEIG, THR_FCKEIG:   2.10D-02  9.90D-02  4.12D-06
 -----------------------------------------------------------------------------

 *** DIIS iteration number    9
 RDSUPM called. NFMAT, ISYMDM(1:NFMAT)                     1
                     1

 ITDIIS, energy, error norm, change in energy, scr.thr., difden:
@ DIIS iter.   9    -360.750715220        1.33894D-04   -2.35D-08  -20    F

 (DIIS_RED) Control Parameters C2DIIS =         F NEVC =    8


 (DIIS_RED) B matrix:

               Column   1     Column   2     Column   3     Column   4     Column   5     Column   6
       1       0.00000002
       2      -0.00000331     0.95830123
       3       0.00000019     0.03424005     0.13930192
       4      -0.00000007     0.08778555    -0.00418486     0.01272730
       5       0.00000016     0.00696703     0.00566532     0.00109910     0.00072740
[...]
 | 1 1 1 1 |   7   1  12   1 |     1459        1 |      1063612 |   -0.097411  |
 | 1 1 1 1 |  11   1  12   1 |     1463        1 |      1069454 |    0.092706  |
 | 1 1 1 1 |  25   1  12   1 |     1477        1 |      1090027 |    0.142895  |
 | 1 1 1 1 |  27   1  12   1 |     1479        1 |      1092982 |   -0.087733  |
 | 1 1 1 1 |  30   1  12   1 |     1482        1 |      1097422 |   -0.084897  |
 | 1 1 1 1 | 114   1  12   1 |     1566        1 |      1225396 |   -0.068070  |
 | 1 1 1 1 |  12   1  21   1 |     2652        1 |      3515227 |   -0.144177  |
 | 1 1 1 1 |  22   1  21   1 |     2662        1 |      3541792 |   -0.067108  |
 | 1 1 1 1 |  24   1  21   1 |     2664        1 |      3547117 |    0.155896  |
 | 1 1 1 1 | 113   1  21   1 |     2753        1 |      3788129 |   -0.098972  |
 +=============================================================================+


          Norm of Printed Amplitude Vector :             0.8733

          Printed all single excitations greater than 0.379431

          Printed all double excitations greater than 0.065125



+======================================================================+
| contributions of excitation levels to right eigenvectors as computed |
| from the (RE|RE) self overlap                                        |
+----------------------------------------------------------------------+
| sym | multi | state |    E / eV  | % singles | % doubles | % triples |
+======================================================================+
|    1|   1   |   1   |  406.41383 |  88.2530  |  11.7470  |   0.0000  |
+======================================================================+





+======================================================================+
| contributions of excitation levels to excited states as computed     |
| from the (LE|RE) overlap                                             |
+----------------------------------------------------------------------+
| sym | multi | state |    E / eV  | % singles | % doubles | % triples |
+======================================================================+
|    1|   1   |   1   |  406.41383 |  78.9832  |  21.0168  |   0.0000  |
+======================================================================+



 --------------------------
 Symmetry class Nr.:     1
 Multiplicity      :     3
 --------------------------

 Length of Excitation vectors in this class is:   7689528
 No Excitation Energies calculated in this symmetry class
     

   *******************************************************************
   *                                                                 *
   *--------   OUTPUT FROM PROPERTY AND SYMMETRY ANALYSIS   ---------*
   *                                                                 *
   *******************************************************************



                         +-------------------------------+
                         ! REQUESTED PROPERTY OPERATORS: !
                         +-------------------------------+

             Index   Oper. Label  Symmetry  Transp.  PDBS  Atom
             --------------------------------------------------
                1     HAM0            1        1      T      0
                2     XDIPLEN         1        1      F      0
                3     YDIPLEN         1        1      F      0
                4     ZDIPLEN         1        1      F      0
             --------------------------------------------------




                         +-------------------------------+
                         ! REQUESTED EXPECTATION VALUES: !
                         +-------------------------------+

                       Index   Oper. Label  Symmetry
                       -----------------------------
                       -----------------------------




                       +------------------------------------+
                       ! REQUESTED EFFECTIVE FOCK MATRICES: !
                       +------------------------------------+

                       Index   Oper. Label  Symmetry
                       -----------------------------
                       -----------------------------




                        +----------------------------------+
                        ! REQUESTED FIRST ORDER M-VECTORS: !
                        +----------------------------------+

               Index   State Symmetry  Frequency
               --------------------------------------------------
                  1             1    1     1.493543D+01
               --------------------------------------------------


      

    *******************************************************************
    *          SOLVING COUPLED CLUSTER RESPONSE EQUATIONS             *
    *******************************************************************



 
 +======================================================================+
 !                     RHS & ETA VECTORS TO COMPUTE:                    !
 +======================================================================+
 | TYPE | # VEC. |  NEEDED FOR:                                         |
 +----------------------------------------------------------------------+
 +======================================================================+



 +======================================================================+
 !                       LINEAR EQUATIONS TO SOLVE:                     !
 +======================================================================+
 | TYPE | # VEC. |  EQUATION:                                           |
 +----------------------------------------------------------------------+
 |  M1  |    1   |  first-order ground - excited state multipliers      |
 +======================================================================+



 +======================================================================+
 !                F MATRIX TRANSFORMATIONS TO COMPUTE:                  !
 +======================================================================+
 | TYPE | # VEC. |  TRANSFORMED:                                        |
 +----------------------------------------------------------------------+
 |  FR  |    1   |  right eigenvectors (RE)                             |
 +======================================================================+





 Testing R1 list: 

 List nr.  Label     Symmetry      Frequency      T1-norm        T2-norm


 Testing L1 list: 

 List nr.  Label     Symmetry      Frequency      T1-norm        T2-norm
  Solvent 1-order response equations converged in                     0 
  solvent iterations
 SONIAPRI                     0
 CCEQ_STR: CVSEPARATION =  T
 CCEQ_STR: IONIZATION =  T
 CCEQ_STR: REMOVE_CORE =  F
 could not find required file CCM1_1___1
 IOPTSV is    33 ... program continues nevertheless.
 Vector nr.  1 of type M1  and symmetry  1 was not found on file.
     M1  start vector nr.  1 of symmetry  1 generated from gradient
 CCEQ_STR: freeze VALENCE OR VIRT
 CCEQ_SOL: CVSEPARA=     T
 CCEQ_SOL: LIONISAT=     T
 CCEQ_SOL: REMOVE_CORE =  F



 ----- COUPLED CLUSTER RESPONSE SOLVER -----

    Iter  #Vectors  time (min)   residual
    --------------------------------------
 CCRED CVS/IONIS sigma_                     1 
 project out valence occupied or virtual
      1       1         1.47     0.34E+00
 CCRED CVS/IONIS sigma_                     2 
 project out valence occupied or virtual
      2       1         1.46     0.73E-01
 CCRED CVS/IONIS sigma_                     3 
 project out valence occupied or virtual
                    -1  vectors with norm le:  1.000000000000000E-035  REMOVED

 CCORT,**WARNING**  number vectors added is zero after check for vector norm , NBADD :    0

 CCORT, number vectors added is zero , NBADD :    0

 CCORT, number vectors added is zero , NBADD :    0

 CCORT, number vectors added is zero , NBADD :    0

 *** MICROITERATIONS STOPPED DUE TO LINEAR DEPENDENCE BETWEEN ALL NEW TRIAL VECTORS
                     0  trial vectors converged
  LINEAR DEPENDENCE BETWEEN                     1  NON CONVERGED TRIAL VECTORS
      3       1         1.41     0.77E-02

 ***  CCEQ_SOL -MICROITERATIONS STOPPED  
     LINEAR DEPENDENCE BETWEEN ALL NEW TRIAL VECTORS
    --------------------------------------
    converged in  3 iterations
    threshold:    0.10E-08


         Routine          Time (min)
         ---------------------------
         CC_TRDRV            4.34
         CCRED               0.02
         CCNEX               0.03
         ---------------------------
         Total time          4.39


  Total CPU  time used in CCEQ_SOLV:  4 minutes 23 seconds
  Total wall time used in CCEQ_SOLV:  4 minutes 39 seconds


 xxxxxxxxxxxxxxxxxxxxxxxxxxxxxxxxxxxxx

 
 Solution of CC response equations completed.
 

 *******************************************************************
 *                                                                 *
 *--------  OUTPUT FROM COUPLED CLUSTER LINEAR RESPONSE   ---------*
 *                                                                 *
 *--------      CALCULATION OF SECOND ORDER RESIDUES      ---------*
 *                                                                 *
 *******************************************************************



                  +---------------------------------------------+
                  ! CC_SOPR: Calculation of CCSD       Residues !
                  +---------------------------------------------+

 Doing the Mf*CsiA
 Doing the Mf*CsiA
 Doing the Mf*CsiA


 CCSD  Right transition moments in atomic units:
 -----------------------------------------------

  1      14.935434  <XDIPLEN |f> =       0.00000000
  1      14.935434  <YDIPLEN |f> =      -0.00000000
  1      14.935434  <ZDIPLEN |f> =      -0.00000001


 CCSD  Left  transition moments in atomic units:
 -----------------------------------------------

  1      14.935434  <f|XDIPLEN > =       0.00000000
  1      14.935434  <f|YDIPLEN > =      -0.00000000
  1      14.935434  <f|ZDIPLEN > =      -0.00000000


 CCSD  linear response residue property in atomic units:
 -------------------------------------------------------

 RES{<<XDIPLEN ,XDIPLEN >>(14.935434)} =     0.00000000 (   0.00000000)
 RES{<<XDIPLEN ,YDIPLEN >>(14.935434)} =    -0.00000000 (  -0.00000000)
 RES{<<XDIPLEN ,ZDIPLEN >>(14.935434)} =    -0.00000000 (  -0.00000000)
 RES{<<YDIPLEN ,XDIPLEN >>(14.935434)} =    -0.00000000 (  -0.00000000)
 RES{<<YDIPLEN ,YDIPLEN >>(14.935434)} =     0.00000000 (   0.00000000)
 RES{<<YDIPLEN ,ZDIPLEN >>(14.935434)} =     0.00000000 (   0.00000000)
 RES{<<ZDIPLEN ,XDIPLEN >>(14.935434)} =    -0.00000000 (  -0.00000000)
 RES{<<ZDIPLEN ,YDIPLEN >>(14.935434)} =     0.00000000 (   0.00000000)
 RES{<<ZDIPLEN ,ZDIPLEN >>(14.935434)} =     0.00000000 (   0.00000000)


 CCSD  Transition strength matrix for state nr.  1 of symmetry 1
 CCSD  excitation energy:14.93543401

 Gauge: length

               Column   1     Column   2     Column   3
       1     3.323078D-18  -2.400813D-18  -8.775941D-18
       2    -2.400813D-18   1.724648D-18   6.333887D-18
       3    -8.775941D-18   6.333887D-18   2.317225D-17
    ==== End of matrix output ====

 Principal values of diagonalized transition strength matrix:

             a.u.               
 1       0.00000000
 2       0.00000000
 3       0.00000000

 Principal axis of diagonalized transition strength matrix:


               Column   1     Column   2     Column   3
       1       1.00000000     0.00000000     0.00000000
       2       0.00000000     1.00000000     0.00000000
       3       0.00000000     0.00000000     1.00000000
    ==== End of matrix output ====


 CCSD   oscillator strength matrix for state nr.  1 of symmetry 1
 CCSD  excitation energy:14.93543401


               Column   1     Column   2     Column   3
       1     3.308774D-17  -2.390478D-17  -8.738166D-17
       2    -2.390478D-17   1.717224D-17   6.306624D-17
       3    -8.738166D-17   6.306624D-17   2.307250D-16
    ==== End of matrix output ====

 Principal values of diagonalized oscillator strength matrix:

             a.u.               
 1       0.00000000
 2       0.00000000
 3       0.00000000

 Principal axis of diagonalized oscillator strength matrix:


               Column   1     Column   2     Column   3
       1       1.00000000     0.00000000     0.00000000
       2       0.00000000     1.00000000     0.00000000
       3       0.00000000     0.00000000     1.00000000
    ==== End of matrix output ====

  Total time for      9 linear response residues:       2.92 seconds.
  

 *******************************************************************************
 *******************************************************************************
 *                                                                             *
 *                                                                             *
 *                   SUMMARY OF COUPLED CLUSTER CALCULATION                    *
 *                                                                             *
 *                                                                             *
 *******************************************************************************
 *******************************************************************************

                                                                                
                                                                                
            Total SCF   energy:                  -360.7507152221                
            Total MP2   energy:                  -361.8530308560                
            Total CCSD  energy:                  -361.8920508731                
                                                                                
                                                                                
            Total SCF   energy:                  -360.7507152221                
            Total RSTAR energy:                  -361.8920508731                
            Total CCSD  energy:                  -361.8921828716                
                                                                                
                                                                                
            Total SCF   energy:                  -360.7507152221                
            Total RSTAR energy:                  -361.8921828716                
            Total CCSD  energy:                  -361.8921835979                
                                                                                
                                                                                
            Total SCF   energy:                  -360.7507152221                
            Total RSTAR energy:                  -361.8921835979                
            Total CCSD  energy:                  -361.8921836640                
                                                                                
                                                                                
            Total SCF   energy:                  -360.7507152221                
            Total RSTAR energy:                  -361.8921836640                
            Total CCSD  energy:                  -361.8921836667                
                                                                                
                                                                                
            Total SCF   energy:                  -360.7507152221                
            Total RSTAR energy:                  -361.8921836667                
            Total CCSD  energy:                  -361.8921836668                
            CCSD Total  energy:                  -362.2741466103                
            CCSD E(QM/MM)     :                    -0.3773809554                
                                                                                
                                                                                
                                                                                
 +=============================================================================+
 |  sym. | Exci.  |        CCSD       Excitation energies            | ||T1||  |
 |(spin, |        +------------------------------------------------------------+
 | spat) |        |     Hartree    |       eV.      |     cm-1       |    %    |
 +=============================================================================+
 | ^1A   |    1   |    14.9354340  |     406.41383  |   3277948.844  |  88.25  |
 +=============================================================================+
                                                                                
                                                                                
     Total energies in Hartree:                                                 
             1 ^1A       -346.9613316401                                        
                                                                                
                                                                                
 +=============================================================================+
 |  sym. | Exci.  |        CCSD       Length   Gauge Oscillator Strength       |
 |(spin, |        +------------------------------------------------------------+
 | spat) |        | Dipole Strength(a.u.) | Oscillator strength  | Direction   |
 +=============================================================================+
 | ^1A   |    1   |        0.0000000      |      0.0000000       |    -        |
 +=============================================================================+

  1 a.u. =        27.21138 eV.  
  1 a.u. =    219474.62934 cm-1.
  

 *******************************************************************************
 *******************************************************************************
 *                                                                             *
 *                                                                             *
 *                      END OF COUPLED CLUSTER CALCULATION                     *
 *                                                                             *
 *                                                                             *
 *******************************************************************************
 *******************************************************************************


 CPU and wall time for CC :    6714.749    8653.218

 
     Date and time (Linux)  : Mon Dec  3 20:24:05 2018
     Host name              : n-62-23-32                              


                      .-------------------------------------.
                      | End of Coupled Cluster Section (CC) |
                      `-------------------------------------'

  Total CPU  time used in DALTON:   1 hour  54 minutes  2 seconds
  Total wall time used in DALTON:   2 hours 29 minutes 51 seconds

 
     Date and time (Linux)  : Mon Dec  3 20:24:05 2018
     Host name              : n-62-23-32                              
  

 +---------------------------------------------------------+ 
 | List of selected calculated molecular properties (a.u.) | 
 +---------------------------------------------------------+ 

  Properties are read from unit number                      4

 CCSD       properties :
 #  1 1 CCSD/MM  Ground state Energy =    -362.2741466103
 #  2 1 E_QM/MM  Ground state Energy =      -0.3773809554
 #  3 1 Sy: 1 Sp: 1 Exc:  1 E_tot:   -346.9613316401 w:     14.9354340147 E_grs:   -361.8967656548
 #  4 1 Exctot   Excited state Energy =    -346.9613316401
 #  5 1 |<O|XDIPLEN |i(14.935434)>| =     0.00000000
 #  7 1 |<O|YDIPLEN |i(14.935434)>| =     0.00000000
 #  9 1 |<O|ZDIPLEN |i(14.935434)>| =     0.00000000

 THE_END   
