

     ************************************************************************
     *************** Dalton - An Electronic Structure Program ***************
     ************************************************************************

    This is output from DALTON release Dalton2017.alpha (2016)
         ( Web site: http://daltonprogram.org )

   ----------------------------------------------------------------------------

    NOTE:
     
    Dalton is an experimental code for the evaluation of molecular
    properties using (MC)SCF, DFT, CI, and CC wave functions.
    The authors accept no responsibility for the performance of
    the code or for the correctness of the results.
     
    The code (in whole or part) is provided under a licence and
    is not to be reproduced for further distribution without
    the written permission of the authors or their representatives.
     
    See the home page "http://daltonprogram.org" for further information.
     
    If results obtained with this code are published,
    the appropriate citations would be both of:
     
       K. Aidas, C. Angeli, K. L. Bak, V. Bakken, R. Bast,
       L. Boman, O. Christiansen, R. Cimiraglia, S. Coriani,
       P. Dahle, E. K. Dalskov, U. Ekstroem,
       T. Enevoldsen, J. J. Eriksen, P. Ettenhuber, B. Fernandez,
       L. Ferrighi, H. Fliegl, L. Frediani, K. Hald, A. Halkier,
       C. Haettig, H. Heiberg, T. Helgaker, A. C. Hennum,
       H. Hettema, E. Hjertenaes, S. Hoest, I.-M. Hoeyvik,
       M. F. Iozzi, B. Jansik, H. J. Aa. Jensen, D. Jonsson,
       P. Joergensen, J. Kauczor, S. Kirpekar,
       T. Kjaergaard, W. Klopper, S. Knecht, R. Kobayashi, H. Koch,
       J. Kongsted, A. Krapp, K. Kristensen, A. Ligabue,
       O. B. Lutnaes, J. I. Melo, K. V. Mikkelsen, R. H. Myhre,
       C. Neiss, C. B. Nielsen, P. Norman, J. Olsen,
       J. M. H. Olsen, A. Osted, M. J. Packer, F. Pawlowski,
       T. B. Pedersen, P. F. Provasi, S. Reine, Z. Rinkevicius,
       T. A. Ruden, K. Ruud, V. Rybkin, P. Salek, C. C. M. Samson,
       A. Sanchez de Meras, T. Saue, S. P. A. Sauer,
       B. Schimmelpfennig, K. Sneskov, A. H. Steindal,
       K. O. Sylvester-Hvid, P. R. Taylor, A. M. Teale,
       E. I. Tellgren, D. P. Tew, A. J. Thorvaldsen, L. Thoegersen,
       O. Vahtras, M. A. Watson, D. J. D. Wilson, M. Ziolkowski
       and H. Agren,
       "The Dalton quantum chemistry program system",
       WIREs Comput. Mol. Sci. 2014, 4:269–284 (doi: 10.1002/wcms.1172)
     
    and
     
       Dalton, a Molecular Electronic Structure Program,
       Release Dalton2017.alpha (2016), see http://daltonprogram.org
   ----------------------------------------------------------------------------

    Authors in alphabetical order (major contribution(s) in parenthesis):

  Kestutis Aidas,           Vilnius University,           Lithuania   (QM/MM)
  Celestino Angeli,         University of Ferrara,        Italy       (NEVPT2)
  Keld L. Bak,              UNI-C,                        Denmark     (AOSOPPA, non-adiabatic coupling, magnetic properties)
  Vebjoern Bakken,          University of Oslo,           Norway      (DALTON; geometry optimizer, symmetry detection)
  Radovan Bast,             UiT The Arctic U. of Norway,  Norway      (DALTON installation and execution frameworks)
  Pablo Baudin,             University of Valencia,       Spain       (Cholesky excitation energies)
  Linus Boman,              NTNU,                         Norway      (Cholesky decomposition and subsystems)
  Ove Christiansen,         Aarhus University,            Denmark     (CC module)
  Renzo Cimiraglia,         University of Ferrara,        Italy       (NEVPT2)
  Sonia Coriani,            University of Trieste,        Italy       (CC module, MCD in RESPONS)
  Janusz Cukras,            University of Trieste,        Italy       (MChD in RESPONS)
  Paal Dahle,               University of Oslo,           Norway      (Parallelization)
  Erik K. Dalskov,          UNI-C,                        Denmark     (SOPPA)
  Thomas Enevoldsen,        Univ. of Southern Denmark,    Denmark     (SOPPA)
  Janus J. Eriksen,         Aarhus University,            Denmark     (Polarizable embedding model, TDA)
  Rasmus Faber,             University of Copenhagen,     Denmark     (Vib.avg. NMR with SOPPA, parallel AO-SOPPA)
  Berta Fernandez,          U. of Santiago de Compostela, Spain       (doublet spin, ESR in RESPONS)
  Lara Ferrighi,            Aarhus University,            Denmark     (PCM Cubic response)
  Heike Fliegl,             University of Oslo,           Norway      (CCSD(R12))
  Luca Frediani,            UiT The Arctic U. of Norway,  Norway      (PCM)
  Bin Gao,                  UiT The Arctic U. of Norway,  Norway      (Gen1Int library)
  Christof Haettig,         Ruhr-University Bochum,       Germany     (CC module)
  Kasper Hald,              Aarhus University,            Denmark     (CC module)
  Asger Halkier,            Aarhus University,            Denmark     (CC module)
  Frederik Beyer Hansen,    University of Copenhagen,     Denmark     (Parallel AO-SOPPA)
  Erik D. Hedegaard,        Univ. of Southern Denmark,    Denmark     (Polarizable embedding model, QM/MM)
  Hanne Heiberg,            University of Oslo,           Norway      (geometry analysis, selected one-electron integrals)
  Trygve Helgaker,          University of Oslo,           Norway      (DALTON; ABACUS, ERI, DFT modules, London, and much more)
  Alf Christian Hennum,     University of Oslo,           Norway      (Parity violation)
  Hinne Hettema,            University of Auckland,       New Zealand (quadratic response in RESPONS; SIRIUS supersymmetry)
  Eirik Hjertenaes,         NTNU,                         Norway      (Cholesky decomposition)
  Pi A. B. Haase,           University of Copenhagen,     Denmark     (Triplet AO-SOPPA)
  Maria Francesca Iozzi,    University of Oslo,           Norway      (RPA)
  Brano Jansik              Technical Univ. of Ostrava    Czech Rep.  (DFT cubic response)
  Hans Joergen Aa. Jensen,  Univ. of Southern Denmark,    Denmark     (DALTON; SIRIUS, RESPONS, ABACUS modules, London, and much more)
  Dan Jonsson,              UiT The Arctic U. of Norway,  Norway      (cubic response in RESPONS module)
  Poul Joergensen,          Aarhus University,            Denmark     (RESPONS, ABACUS, and CC modules)
  Maciej Kaminski,          University of Warsaw,         Poland      (CPPh in RESPONS)
  Joanna Kauczor,           Linkoeping University,        Sweden      (Complex polarization propagator (CPP) module)
  Sheela Kirpekar,          Univ. of Southern Denmark,    Denmark     (Mass-velocity & Darwin integrals)
  Wim Klopper,              KIT Karlsruhe,                Germany     (R12 code in CC, SIRIUS, and ABACUS modules)
  Stefan Knecht,            ETH Zurich,                   Switzerland (Parallel CI and MCSCF)
  Rika Kobayashi,           Australian National Univ.,    Australia   (DIIS in CC, London in MCSCF)
  Henrik Koch,              NTNU,                         Norway      (CC module, Cholesky decomposition)
  Jacob Kongsted,           Univ. of Southern Denmark,    Denmark     (Polarizable embedding model, QM/MM)
  Andrea Ligabue,           University of Modena,         Italy       (CTOCD, AOSOPPA)
  Nanna H. List             Univ. of Southern Denmark,    Denmark     (Polarizable embedding model)
  Ola B. Lutnaes,           University of Oslo,           Norway      (DFT Hessian)
  Juan I. Melo,             University of Buenos Aires,   Argentina   (LRESC, Relativistic Effects on NMR Shieldings)
  Kurt V. Mikkelsen,        University of Copenhagen,     Denmark     (MC-SCRF and QM/MM)
  Rolf H. Myhre,            NTNU,                         Norway      (Cholesky, subsystems and ECC2)
  Christian Neiss,          Univ. Erlangen-Nuernberg,     Germany     (CCSD(R12))
  Christian B. Nielsen,     University of Copenhagen,     Denmark     (QM/MM)
  Patrick Norman,           Linkoeping University,        Sweden      (Cubic response and complex frequency response in RESPONS)
  Jeppe Olsen,              Aarhus University,            Denmark     (SIRIUS CI/density modules)
  Jogvan Magnus H. Olsen,   Univ. of Southern Denmark,    Denmark     (Polarizable embedding model, QM/MM)
  Anders Osted,             Copenhagen University,        Denmark     (QM/MM)
  Martin J. Packer,         University of Sheffield,      UK          (SOPPA)
  Filip Pawlowski,          Kazimierz Wielki University,  Poland      (CC3)
  Morten N. Pedersen,       Univ. of Southern Denmark,    Denmark     (Polarizable embedding model)
  Thomas B. Pedersen,       University of Oslo,           Norway      (Cholesky decomposition)
  Patricio F. Provasi,      University of Northeastern,   Argentina   (Analysis of coupling constants in localized orbitals)
  Zilvinas Rinkevicius,     KTH Stockholm,                Sweden      (open-shell DFT, ESR)
  Elias Rudberg,            KTH Stockholm,                Sweden      (DFT grid and basis info)
  Torgeir A. Ruden,         University of Oslo,           Norway      (Numerical derivatives in ABACUS)
  Kenneth Ruud,             UiT The Arctic U. of Norway,  Norway      (DALTON; ABACUS magnetic properties and much more)
  Pawel Salek,              KTH Stockholm,                Sweden      (DALTON; DFT code)
  Claire C. M. Samson       University of Karlsruhe       Germany     (Boys localization, r12 integrals in ERI)
  Alfredo Sanchez de Meras, University of Valencia,       Spain       (CC module, Cholesky decomposition)
  Trond Saue,               Paul Sabatier University,     France      (direct Fock matrix construction)
  Stephan P. A. Sauer,      University of Copenhagen,     Denmark     (SOPPA(CCSD), SOPPA prop., AOSOPPA, vibrational g-factors)
  Bernd Schimmelpfennig,    Forschungszentrum Karlsruhe,  Germany     (AMFI module)
  Kristian Sneskov,         Aarhus University,            Denmark     (Polarizable embedding model, QM/MM)
  Arnfinn H. Steindal,      UiT The Arctic U. of Norway,  Norway      (parallel QM/MM, Polarizable embedding model)
  Casper Steinmann,         Univ. of Southern Denmark,    Denmark     (QFIT, Polarizable embedding model)
  K. O. Sylvester-Hvid,     University of Copenhagen,     Denmark     (MC-SCRF)
  Peter R. Taylor,          VLSCI/Univ. of Melbourne,     Australia   (Symmetry handling ABACUS, integral transformation)
  Andrew M. Teale,          University of Nottingham,     England     (DFT-AC, DFT-D)
  David P. Tew,             University of Bristol,        England     (CCSD(R12))
  Olav Vahtras,             KTH Stockholm,                Sweden      (triplet response, spin-orbit, ESR, TDDFT, open-shell DFT)
  David J. Wilson,          La Trobe University,          Australia   (DFT Hessian and DFT magnetizabilities)
  Hans Agren,               KTH Stockholm,                Sweden      (SIRIUS module, RESPONS, MC-SCRF solvation model)
 --------------------------------------------------------------------------------

     Date and time (Linux)  : Tue Dec  4 09:19:31 2018
     Host name              : n-62-23-29                              

 * Work memory size             :  1280000000 =  9.537 gigabytes.

 * Directories for basis set searches:
   1) /zhome/d7/7/119775/My_Codes/dalton-private/build2016/basis/diffs
   2) /zhome/37/3/129401/NH3NH4/CCSD/AIMD_SAMPLING/nh3_4h2o_nd
   3) /zhome/9a/4/124800/source/dalton/build-mlcc/basis


Compilation information
-----------------------

 Who compiled             | rfaber
 Host                     | hpclogin1
 System                   | Linux-2.6.32-696.1.1.el6.x86_64
 CMake generator          | Unix Makefiles
 Processor                | x86_64
 64-bit integers          | ON
 MPI                      | OFF
 Fortran compiler         | /opt/intel/2016update2/compilers_and_libraries_201
                          | 6.2.181/linux/bin/intel64/ifort
 Fortran compiler version | ifort (IFORT) 16.0.2 20160204
 C compiler               | /opt/intel/2016update2/compilers_and_libraries_201
                          | 6.2.181/linux/bin/intel64/icc
 C compiler version       | icc (ICC) 16.0.2 20160204
 C++ compiler             | /opt/intel/2016update2/compilers_and_libraries_201
                          | 6.2.181/linux/bin/intel64/icpc
 C++ compiler version     | icpc (ICC) 16.0.2 20160204
 Static linking           | OFF
 Last Git revision        | bb4d1599ca5680a9f3980451fc8bbefdba436d59
 Git branch               | mlcc
 Configuration time       | 2017-06-13 16:11:03.928841


   Content of the .dal input file
 ----------------------------------

**DALTON
.RUN WAVE FUNCTIONS
*QMMM
.QMMM
**INTEGRALS
.DIPLEN
**WAVE FUNCTIONS
.CC
*PRINT
!To check the origin of excit
.PRINTL
   0 11
*SCF INP
.THRESH
1.0D-7
*CC INP
.CCSD
.THRLEQ
 1.0D-9
.THRENR
 1.0D-10
.FROIMP
4
0
.PRINT
 1
.MAX IT
 1200
.MAXRED
 1200
.MXLRV
1199
*CCSLV
.CCMM
.MXSLIT
200
.MXINIT
4 5
*CCEXCI
.NCCEXC
 1
.IONISATION
1
1
.CVSEPARA
1
1
*CCLRSD
.DIPOLE
**END OF DALTON INPUT


   Content of the .mol file
 ----------------------------

ATOMBASIS


Atomtypes=5 Charge=0 Nosymm Angstrom
   7.00000    1    Basis=6-311G**
N          0.000000        0.000000        0.000000
   1.00000    3    Basis=6-311G**
H         -0.305864        0.091801        0.956173
H         -0.189965       -0.958421       -0.258381
H          1.051645        0.054692       -0.000893
   8.00000    4    Basis=6-311G**
O         -1.186657        1.741954       -1.914225
O         -0.037721       -3.160932        0.814127
O          2.850493        0.693898        0.788883
O         -1.154306        0.924573        2.884827
   1.00000    8    Basis=6-311G**
H         -0.541061        1.671065       -2.679589
H         -0.795387        1.128179       -1.233240
H          0.986975       -3.013789        0.754687
H         -0.097379       -4.128826        0.717541
H          3.014382        1.686286        0.632648
H          2.726096        0.517604        1.798006
H         -1.368117        1.863732        2.533907
H         -1.851152        0.352135        2.529855
   0.00000    1    Basis=diffs
X          0.000000        0.000000        0.000000


       *******************************************************************
       *********** Output from DALTON general input processing ***********
       *******************************************************************

 --------------------------------------------------------------------------------
   Overall default print level:    0
   Print level for DALTON.STAT:    1

    HERMIT 1- and 2-electron integral sections will be executed
    "Old" integral transformation used (limited to max 255 basis functions)
    Wave function sections will be executed (SIRIUS module)
 --------------------------------------------------------------------------------


 Changes of defaults for *QMMM  :
 --------------------------------

 +------------------+
 |  WORD: | CHANGE: |
 +------------------+
 |   QMMM |       T |
 +------------------+
 


   ****************************************************************************
   *************** Output of molecule and basis set information ***************
   ****************************************************************************


    The two title cards from your ".mol" input:
    ------------------------------------------------------------------------
 1:                                                                         
 2:                                                                         
    ------------------------------------------------------------------------

  Coordinates are entered in Angstrom and converted to atomic units.
          - Conversion factor : 1 bohr = 0.52917721 A

  Atomic type no.    1
  --------------------
  Nuclear charge:   7.00000
  Number of symmetry independent centers:    1
  Number of basis sets to read;    2
  The basis set is "6-311G**" from the basis set library.
  Basis set file used for this atomic type with Z =   7 :
     "/zhome/9a/4/124800/source/dalton/build-mlcc/basis/6-311G**"

  Info about the basis set file: your basis has no documentation.
  Basis set: 6-311G**                                                                        

  Atomic type no.    2
  --------------------
  Nuclear charge:   1.00000
  Number of symmetry independent centers:    3
  Number of basis sets to read;    2
  The basis set is "6-311G**" from the basis set library.
  Basis set file used for this atomic type with Z =   1 :
     "/zhome/9a/4/124800/source/dalton/build-mlcc/basis/6-311G**"

  Info about the basis set file: your basis has no documentation.
  Basis set: 6-311G**                                                                        

  Atomic type no.    3
  --------------------
  Nuclear charge:   8.00000
  Number of symmetry independent centers:    4
  Number of basis sets to read;    2
  The basis set is "6-311G**" from the basis set library.
  Basis set file used for this atomic type with Z =   8 :
     "/zhome/9a/4/124800/source/dalton/build-mlcc/basis/6-311G**"

  Info about the basis set file: your basis has no documentation.
  Basis set: 6-311G**                                                                        

  Atomic type no.    4
  --------------------
  Nuclear charge:   1.00000
  Number of symmetry independent centers:    8
  Number of basis sets to read;    2
  The basis set is "6-311G**" from the basis set library.
  Basis set file used for this atomic type with Z =   1 :
     "/zhome/9a/4/124800/source/dalton/build-mlcc/basis/6-311G**"

  Info about the basis set file: your basis has no documentation.
  Basis set: 6-311G**                                                                        

  Atomic type no.    5
  --------------------
  Nuclear charge:   0.00000
  Number of symmetry independent centers:    1
  Number of basis sets to read;    2
  The basis set is "diffs" from the basis set library.
  Basis set file used for this atomic type with Z =   0 :
     "/zhome/9a/4/124800/source/dalton/build-mlcc/basis/diffs"

  Info about the basis set file: your basis has no documentation.
  Basis set: diffs                                                                           


                         SYMGRP: Point group information
                         -------------------------------

@    Point group: C1 


                                 Isotopic Masses
                                 ---------------

                           N          14.003074
                           H           1.007825
                           H           1.007825
                           H           1.007825
                           O          15.994915
                           O          15.994915
                           O          15.994915
                           O          15.994915
                           H           1.007825
                           H           1.007825
                           H           1.007825
                           H           1.007825
                           H           1.007825
                           H           1.007825
                           H           1.007825
                           H           1.007825

                       Total mass:    89.068809 amu
                       Natural abundance:  98.514 %

 Center-of-mass coordinates (a.u.):    0.216351    0.051971    0.996335


  Atoms and basis sets
  --------------------

  Number of atom types :    5
  Total number of atoms:   17

  label    atoms   charge   prim   cont     basis
  ----------------------------------------------------------------------
  N           1    7.0000    31    18      [11s5p1d|4s3p1d]                                   
  H           3    1.0000     8     6      [5s1p|3s1p]                                        
  O           4    8.0000    31    18      [11s5p1d|4s3p1d]                                   
  H           8    1.0000     8     6      [5s1p|3s1p]                                        
  X           1    0.0000     1     1      [1s|1s]                                            
  ----------------------------------------------------------------------
  total:     17   50.0000   244   157
  ----------------------------------------------------------------------
  Spherical harmonic basis used.

  Threshold for neglecting AO integrals:  1.00D-12


  Cartesian Coordinates (a.u.)
  ----------------------------

  Total number of coordinates:   51
  N       :     1  x   0.0000000000    2  y   0.0000000000    3  z   0.0000000000
  H       :     4  x  -0.5779991915    5  y   0.1734787480    6  z   1.8069050981
  H       :     7  x  -0.3589818233    8  y  -1.8111532024    9  z  -0.4882693259
  H       :    10  x   1.9873210307   11  y   0.1033529012   12  z  -0.0016875254
  O       :    13  x  -2.2424567343   14  y   3.2918159823   15  z  -3.6173609916
  O       :    16  x  -0.0712823592   17  y  -5.9732957797   18  z   1.5384770610
  O       :    19  x   5.3866510912   20  y   1.3112771787   21  z   1.4907728147
  O       :    22  x  -2.1813222044   23  y   1.7471897526   24  z   5.4515329480
  H       :    25  x  -1.0224571069   26  y   3.1578551871   27  z  -5.0636893375
  H       :    28  x  -1.5030635934   29  y   2.1319493300   30  z  -2.3304858464
  H       :    31  x   1.8651124422   32  y  -5.6952358085   33  z   1.4261517401
  H       :    34  x  -0.1840196403   35  y  -7.8023503578   36  z   1.3559559735
  H       :    37  x   5.6963564161   38  y   3.1866187084   39  z   1.1955314535
  H       :    40  x   5.1515748304   41  y   0.9781298012   42  z   3.3977389111
  H       :    43  x  -2.5853664369   44  y   3.5219430504   45  z   4.7883902562
  H       :    46  x  -3.4981702957   47  y   0.6654387090   48  z   4.7807330859
  X       :    49  x   0.0000000000   50  y   0.0000000000   51  z   0.0000000000

  Max    interatomic separation is    6.7362 Angstrom (   12.7295 Bohr)
  between atoms   12 and    9, "H     " and "H     ".

  Min HX interatomic separation is    0.9692 Angstrom (    1.8315 Bohr)

  Min YX interatomic separation is    2.8472 Angstrom (    5.3805 Bohr)


  Bond distances (Angstrom):
  --------------------------

                  atom 1     atom 2       distance
                  ------     ------       --------
  bond distance:  H          N            1.008091
  bond distance:  H          N            1.010652
  bond distance:  H          N            1.053067
  bond distance:  H          O            1.003794
  bond distance:  H          O            0.996771
  bond distance:  H          O            1.036912
  bond distance:  H          O            0.974529
  bond distance:  H          O            1.017891
  bond distance:  H          O            1.031932
  bond distance:  H          O            1.025124
  bond distance:  H          O            0.969167


  Bond angles (degrees):
  ----------------------

                  atom 1     atom 2     atom 3         angle
                  ------     ------     ------         -----
  bond angle:     H          N          H            105.773
  bond angle:     H          N          H            107.402
  bond angle:     H          N          H            103.694
  bond angle:     H          O          H            103.001
  bond angle:     H          O          H            101.289
  bond angle:     H          O          H            109.637
  bond angle:     H          O          H            105.413




 Principal moments of inertia (u*A**2) and principal axes
 --------------------------------------------------------

   IA     379.748968         -0.215940    0.837972   -0.501171
   IB     486.057115          0.880889    0.388610    0.270216
   IC     495.291855         -0.421193    0.383126    0.822077


 Rotational constants
 --------------------

               A                   B                   C

           1330.8239           1039.7523           1020.3661 MHz
            0.044392            0.034682            0.034036 cm-1


@  Nuclear repulsion energy :  179.845255484175 Hartree

  Number of floating/multiple basis set orbitals :    1


                     .---------------------------------------.
                     | Starting in Integral Section (HERMIT) |
                     `---------------------------------------'



 ***************************************************************************************
 ****************** Output from **INTEGRALS input processing (HERMIT) ******************
 ***************************************************************************************



    *************************************************************************
    ****************** Output from HERMIT input processing ******************
    *************************************************************************


 Default print level:        1

 * Nuclear model: Point charge

 Calculation of one- and two-electron Hamiltonian integrals.

 The following one-electron property integrals are calculated as requested:
          - overlap integrals
          - dipole length integrals

 Center of mass  (bohr):      0.216350734403      0.051971366210      0.996334527364
 Operator center (bohr):      0.000000000000      0.000000000000      0.000000000000
 Gauge origin    (bohr):      0.000000000000      0.000000000000      0.000000000000
 Dipole origin   (bohr):      0.000000000000      0.000000000000      0.000000000000
 
  *********************************** 
  QMMM electrostatic potential: 
  Multipole order                                    0
  Isotropic polarization  
  *********************************** 
 
  ---------------- 
  QMMM information 
  ---------------- 
 
  MM coordinates in au 
  -------------------- 
     1      7.928677      8.473095     -8.598770
     2      8.736873      7.693663    -10.065384
     3      6.206913      9.056418     -9.019750
     4     -9.063406     -8.494451      6.270138
     5     -8.021568    -10.144964      6.403925
     6     -9.177370     -7.735269      8.058705
     7     -9.570267     -5.578696     10.553714
     8     -9.038426     -6.198166     12.157253
     9    -11.389136     -5.243761     10.801514
    10     10.193436      6.766028     10.767319
    11     11.974594      7.428073     10.557830
    12     10.151994      5.024566     10.071940
    13     -5.783526     -1.192459      3.247398
    14     -7.386299     -0.803086      4.135197
    15     -6.303871     -0.678786      1.584985
    16     -0.999557     -5.223755     -5.660796
    17     -1.713454     -3.951465     -6.809827
    18     -2.223694     -5.541618     -4.330168
    19      7.611397      5.143332     -4.533778
    20      6.672491      5.596917     -2.934488
    21      7.666449      6.630117     -5.670276
    22     -2.654336    -10.593213    -10.234243
    23     -3.965535     -9.504536    -10.883645
    24     -2.225876    -11.668749    -11.701931
    25      5.343700     -9.583447     11.657598
    26      6.287308     -8.870416     12.942031
    27      3.988140     -8.378762     11.139219
    28    -10.975361      3.667798     -4.078369
    29    -12.779847      4.021804     -4.201644
    30    -10.636051      2.723282     -5.622368
    31     -8.625791     -3.002756     -5.026862
    32     -7.890918     -1.913011     -3.675977
    33     -9.999886     -3.896279     -4.038471
    34     -5.411541     -7.855452     -2.317751
    35     -3.984614     -8.964248     -1.904207
    36     -6.089172     -7.469273     -0.548039
    37     -7.563789      2.365633     10.866853
    38     -6.713477      3.861638     11.415354
    39     -8.924147      3.006150      9.876984
    40     10.420065      0.388607      0.978311
    41     11.020361      1.765199     -0.252360
    42      8.388715      0.668910      1.330900
    43     11.391235      8.127710      1.928842
    44     11.274592      9.936753      2.456362
    45     12.590635      8.334019      0.525979
    46      5.774844      5.515591      6.460628
    47      6.700672      7.111115      5.860026
    48      6.974679      4.422923      7.381040
    49     -1.633120     -1.953671    -10.038461
    50     -0.522156     -3.369119    -10.529303
    51     -3.104450     -2.124413    -11.166686
    52     -8.703517     10.185614     10.839431
    53     -7.720845      9.231299     12.068025
    54     -9.824127     11.435937     11.794404
    55     -7.891899      5.012483      5.741797
    56     -8.136951      6.547765      4.672930
    57     -5.984458      4.949378      5.868760
    58      8.853138     -5.483932    -11.138722
    59      8.106558     -3.901659    -10.704735
    60      9.109510     -6.361669     -9.538442
    61     -1.690369    -10.188366      7.544730
    62     -0.089902    -10.543918      6.742072
    63     -2.013104     -8.301257      7.222269
    64      7.609381     10.591433      8.534631
    65      8.944009      9.369343      9.038562
    66      7.308831     11.681093     10.020432
    67     -0.425812      6.644937    -11.200702
    68      0.505653      7.936897    -10.200135
    69     -0.042770      4.971008    -10.323746
    70      6.985208     -7.458038     -6.467125
    71      6.069976     -6.132210     -5.593455
    72      7.673705     -8.816032     -5.060435
    73      3.594582     10.643597      0.674035
    74      1.975055     11.212890     -0.043844
    75      3.535039     11.414730      2.336525
    76      1.272132     -6.153060     11.313906
    77      0.303193     -7.563005     12.119101
    78      0.515757     -6.152648      9.506806
    79     -5.568035      6.539548     -9.767745
    80     -5.698057      6.980153     -7.969007
    81     -3.785133      6.539373    -10.179359
    82     -6.594643      0.936715     -2.173329
    83     -7.906140      2.210031     -2.744043
    84     -5.093105      1.552015     -3.183489
    85      4.516814     -4.527791      1.225843
    86      4.704836     -3.378993      2.591807
    87      5.967400     -5.682284      1.102425
    88      2.942542     10.329492     -9.098944
    89      2.247705     11.845308     -8.151269
    90      3.627171     11.373851    -10.560270
    91      5.034994     -1.024787      6.208302
    92      6.420139     -0.165748      7.092380
    93      3.437450     -0.903047      7.355906
    94      0.374440      2.265115     -8.142172
    95     -0.442202      0.932877     -9.037485
    96      2.114717      1.570546     -7.742115
    97     -8.956142    -10.046493     -4.800003
    98     -7.680733     -9.120162     -3.787344
    99     -8.559577    -11.795274     -4.470310
   100      6.409373      6.479223      0.097538
   101      5.112064      7.815718      0.282748
   102      8.007131      7.348355      0.656935
   103      3.779753     -2.888237     -3.922427
   104      2.258616     -3.675502     -4.719893
   105      3.856398     -3.239546     -2.090171
   106      1.979118     -9.550508     -5.686906
   107      1.058904     -7.943201     -6.003909
   108      3.801513     -9.036325     -5.710465
   109     -5.398713     -2.141065      9.836624
   110     -6.760958     -3.413837      9.885233
   111     -6.154332     -0.486601      9.393144
   112    -10.372253      0.553259     -8.056112
   113     -9.146819      1.130058     -9.396986
   114     -9.599799     -0.676212     -6.718283
   115      1.391318      0.550755      9.326156
   116      0.279011      1.270013      8.114167
   117      0.622910     -1.025252      9.806734
   118     -6.859832     -7.252654     -8.778369
   119     -6.517849     -5.757818     -7.738387
   120     -7.453473     -8.776500     -7.533365
   121     -7.337774      8.145213     -4.528364
   122     -8.369516      6.646269     -4.256506
   123     -6.020231      7.717479     -3.304834
   124      8.063284     -7.788501      0.062864
   125      9.609518     -6.650944     -0.174276
   126      8.602462     -8.638439      1.578216
   127     -1.010558    -10.961965     -1.699542
   128     -1.413103    -12.859630     -1.502200
   129     -0.238888    -10.899213     -3.395588
   130      9.369005    -11.416157     -3.488058
   131      8.978712    -10.495565     -1.825320
   132     11.161017    -10.801737     -4.024735
   133     -3.229138      7.681697     -1.285309
   134     -2.496434      6.138069     -2.158394
   135     -2.822140      7.384366      0.529469
   136      0.941747      7.579406      7.668998
   137      0.200851      7.145988      9.308468
   138      2.608391      6.748133      7.506217
   139     10.447285    -10.436965      3.914093
   140     11.836190     -9.604497      4.950438
   141      9.181017    -10.777645      5.258943
   142     -2.777347      7.052405      4.277762
   143     -1.278509      7.391212      5.432335
   144     -3.871537      8.397618      4.886367
   145      5.109128      0.970730     -6.918079
   146      5.170461     -0.596690     -5.798294
   147      5.774015      2.369392     -5.815313
   148    -10.520001      0.627121      5.389465
   149     -9.813263      2.448070      5.450522
   150    -11.467788      0.749823      3.766247
   151     11.006319    -10.973851     -9.796932
   152     12.236853    -10.451414     -8.489982
   153     10.050962    -12.474252     -9.052759
   154     -7.362392     -6.390744      2.034819
   155     -5.970318     -5.340041      2.589414
   156     -7.838705     -7.284639      3.574135
   157      8.824099     -0.628816    -10.354853
   158     10.506046     -0.445337     -9.460980
   159      7.516777     -0.114419     -9.117012
   160      9.374011      2.214069      8.751025
   161     10.610022      1.179321      7.733937
   162      9.016174      1.296226     10.311257
   163     -1.206719     -4.930235      6.945137
   164     -2.541170     -3.583310      7.088586
   165     -1.043936     -5.134361      4.970093
   166     -5.978863     10.778240      6.048293
   167     -6.506614     10.210699      7.826624
   168     -4.467118     11.670716      6.634522
   169      3.570243    -10.468667      5.983171
   170      4.584619     -8.965609      6.379492
   171      4.207337    -11.806701      7.010347
   172      6.218405     -6.157799      7.064853
   173      5.650213     -4.470841      6.731034
   174      6.806208     -6.080052      8.928472
   175    -11.450958     -4.470397     -0.631418
   176     -9.951793     -4.676526      0.352356
   177    -12.191984     -2.819224      0.057268
 
  MM charges 
  ---------- 
     1     -0.674440
     2      0.337220
     3      0.337220
     4     -0.674440
     5      0.337220
     6      0.337220
     7     -0.674440
     8      0.337220
     9      0.337220
    10     -0.674440
    11      0.337220
    12      0.337220
    13     -0.674440
    14      0.337220
    15      0.337220
    16     -0.674440
    17      0.337220
    18      0.337220
    19     -0.674440
    20      0.337220
    21      0.337220
    22     -0.674440
    23      0.337220
    24      0.337220
    25     -0.674440
    26      0.337220
    27      0.337220
    28     -0.674440
    29      0.337220
    30      0.337220
    31     -0.674440
    32      0.337220
    33      0.337220
    34     -0.674440
    35      0.337220
    36      0.337220
    37     -0.674440
    38      0.337220
    39      0.337220
    40     -0.674440
    41      0.337220
    42      0.337220
    43     -0.674440
    44      0.337220
    45      0.337220
    46     -0.674440
    47      0.337220
    48      0.337220
    49     -0.674440
    50      0.337220
    51      0.337220
    52     -0.674440
    53      0.337220
    54      0.337220
    55     -0.674440
    56      0.337220
    57      0.337220
    58     -0.674440
    59      0.337220
    60      0.337220
    61     -0.674440
    62      0.337220
    63      0.337220
    64     -0.674440
    65      0.337220
    66      0.337220
    67     -0.674440
    68      0.337220
    69      0.337220
    70     -0.674440
    71      0.337220
    72      0.337220
    73     -0.674440
    74      0.337220
    75      0.337220
    76     -0.674440
    77      0.337220
    78      0.337220
    79     -0.674440
    80      0.337220
    81      0.337220
    82     -0.674440
    83      0.337220
    84      0.337220
    85     -0.674440
    86      0.337220
    87      0.337220
    88     -0.674440
    89      0.337220
    90      0.337220
    91     -0.674440
    92      0.337220
    93      0.337220
    94     -0.674440
    95      0.337220
    96      0.337220
    97     -0.674440
    98      0.337220
    99      0.337220
   100     -0.674440
   101      0.337220
   102      0.337220
   103     -0.674440
   104      0.337220
   105      0.337220
   106     -0.674440
   107      0.337220
   108      0.337220
   109     -0.674440
   110      0.337220
   111      0.337220
   112     -0.674440
   113      0.337220
   114      0.337220
   115     -0.674440
   116      0.337220
   117      0.337220
   118     -0.674440
   119      0.337220
   120      0.337220
   121     -0.674440
   122      0.337220
   123      0.337220
   124     -0.674440
   125      0.337220
   126      0.337220
   127     -0.674440
   128      0.337220
   129      0.337220
   130     -0.674440
   131      0.337220
   132      0.337220
   133     -0.674440
   134      0.337220
   135      0.337220
   136     -0.674440
   137      0.337220
   138      0.337220
   139     -0.674440
   140      0.337220
   141      0.337220
   142     -0.674440
   143      0.337220
   144      0.337220
   145     -0.674440
   146      0.337220
   147      0.337220
   148     -0.674440
   149      0.337220
   150      0.337220
   151     -0.674440
   152      0.337220
   153      0.337220
   154     -0.674440
   155      0.337220
   156      0.337220
   157     -0.674440
   158      0.337220
   159      0.337220
   160     -0.674440
   161      0.337220
   162      0.337220
   163     -0.674440
   164      0.337220
   165      0.337220
   166     -0.674440
   167      0.337220
   168      0.337220
   169     -0.674440
   170      0.337220
   171      0.337220
   172     -0.674440
   173      0.337220
   174      0.337220
   175     -0.674440
   176      0.337220
   177      0.337220
 
  MM isotropic polarizabilities in au 
  ----------------------------------- 
     1      5.739350
     2      2.308390
     3      2.308390
     4      5.739350
     5      2.308390
     6      2.308390
     7      5.739350
     8      2.308390
     9      2.308390
    10      5.739350
    11      2.308390
    12      2.308390
    13      5.739350
    14      2.308390
    15      2.308390
    16      5.739350
    17      2.308390
    18      2.308390
    19      5.739350
    20      2.308390
    21      2.308390
    22      5.739350
    23      2.308390
    24      2.308390
    25      5.739350
    26      2.308390
    27      2.308390
    28      5.739350
    29      2.308390
    30      2.308390
    31      5.739350
    32      2.308390
    33      2.308390
    34      5.739350
    35      2.308390
    36      2.308390
    37      5.739350
    38      2.308390
    39      2.308390
    40      5.739350
    41      2.308390
    42      2.308390
    43      5.739350
    44      2.308390
    45      2.308390
    46      5.739350
    47      2.308390
    48      2.308390
    49      5.739350
    50      2.308390
    51      2.308390
    52      5.739350
    53      2.308390
    54      2.308390
    55      5.739350
    56      2.308390
    57      2.308390
    58      5.739350
    59      2.308390
    60      2.308390
    61      5.739350
    62      2.308390
    63      2.308390
    64      5.739350
    65      2.308390
    66      2.308390
    67      5.739350
    68      2.308390
    69      2.308390
    70      5.739350
    71      2.308390
    72      2.308390
    73      5.739350
    74      2.308390
    75      2.308390
    76      5.739350
    77      2.308390
    78      2.308390
    79      5.739350
    80      2.308390
    81      2.308390
    82      5.739350
    83      2.308390
    84      2.308390
    85      5.739350
    86      2.308390
    87      2.308390
    88      5.739350
    89      2.308390
    90      2.308390
    91      5.739350
    92      2.308390
    93      2.308390
    94      5.739350
    95      2.308390
    96      2.308390
    97      5.739350
    98      2.308390
    99      2.308390
   100      5.739350
   101      2.308390
   102      2.308390
   103      5.739350
   104      2.308390
   105      2.308390
   106      5.739350
   107      2.308390
   108      2.308390
   109      5.739350
   110      2.308390
   111      2.308390
   112      5.739350
   113      2.308390
   114      2.308390
   115      5.739350
   116      2.308390
   117      2.308390
   118      5.739350
   119      2.308390
   120      2.308390
   121      5.739350
   122      2.308390
   123      2.308390
   124      5.739350
   125      2.308390
   126      2.308390
   127      5.739350
   128      2.308390
   129      2.308390
   130      5.739350
   131      2.308390
   132      2.308390
   133      5.739350
   134      2.308390
   135      2.308390
   136      5.739350
   137      2.308390
   138      2.308390
   139      5.739350
   140      2.308390
   141      2.308390
   142      5.739350
   143      2.308390
   144      2.308390
   145      5.739350
   146      2.308390
   147      2.308390
   148      5.739350
   149      2.308390
   150      2.308390
   151      5.739350
   152      2.308390
   153      2.308390
   154      5.739350
   155      2.308390
   156      2.308390
   157      5.739350
   158      2.308390
   159      2.308390
   160      5.739350
   161      2.308390
   162      2.308390
   163      5.739350
   164      2.308390
   165      2.308390
   166      5.739350
   167      2.308390
   168      2.308390
   169      5.739350
   170      2.308390
   171      2.308390
   172      5.739350
   173      2.308390
   174      2.308390
   175      5.739350
   176      2.308390
   177      2.308390


     ************************************************************************
     ************************** Output from HERINT **************************
     ************************************************************************



                      Nuclear contribution to dipole moments
                      --------------------------------------

                 au               Debye          C m (/(10**-30)

      x     12.10302498        30.76281905       102.61371902
      y      1.62592414         4.13268667        13.78515891
      z     49.77464914       126.51453067       422.00704951



 Threshold for neglecting two-electron integrals:  1.00D-12
 HERMIT - Number of two-electron integrals written:    28421995 ( 36.9% )
 HERMIT - Megabytes written:                            325.445

  Time used in TWOINT     is       6.43 seconds
  Total CPU  time used in HERMIT:   6.63 seconds
  Total wall time used in HERMIT:  10.31 seconds


                        .----------------------------------.
                        | End of Integral Section (HERMIT) |
                        `----------------------------------'



                   .--------------------------------------------.
                   | Starting in Wave Function Section (SIRIUS) |
                   `--------------------------------------------'

NCCEXCI for singlet:    1
 CCSD_INPUT: core-val requested
 Requested number of virtual orbs per sym
                     1
 Indices of requested virtual orbs
                     1
 CCSD_INPUT: core-val requested
 Requested number of core orbs per sym
                     1
 Indices of requested core orbs
                     1

 *** Output from Huckel module :

     Using EWMO model:          T
     Using EHT  model:          F
     Number of Huckel orbitals each symmetry:   36

 EWMO - Energy Weighted Maximum Overlap - is a Huckel type method,
        which normally is better than Extended Huckel Theory.
 Reference: Linderberg and Ohrn, Propagators in Quantum Chemistry (Wiley, 1973)

 Huckel EWMO eigenvalues for symmetry :  1
          -20.684417     -20.684337     -20.684291     -20.684041     -15.673790
           -1.702281      -1.591162      -1.587440      -1.575073      -1.451050
           -0.800211      -0.786263      -0.784467      -0.773247      -0.745752
           -0.729000      -0.701559      -0.689204      -0.685058      -0.667566
           -0.616269      -0.615902      -0.592832      -0.583081      -0.514117
           -0.262426      -0.248756      -0.245517      -0.232284      -0.188475
           -0.183642      -0.182334      -0.177685      -0.158526      -0.150463
           -0.143281

 **********************************************************************
 *SIRIUS* a direct, restricted step, second order MCSCF program       *
 **********************************************************************

 
     Date and time (Linux)  : Tue Dec  4 09:19:42 2018
     Host name              : n-62-23-29                              

 Title lines from ".mol" input file:
                                                                             
                                                                             

 Print level on unit LUPRI =   2 is   0
 Print level on unit LUW4  =   2 is  11

@    (Integral direct) CC calculation.

@    This is a combination run starting with
@              a restricted, closed shell Hartree-Fock calculation


 Initial molecular orbitals are obtained according to
 ".MOSTART EWMO  " input option

@    QM part is embedded in an environment :

@         Model: QMMM

     Wave function specification
     ============================

     For the specification of the Coupled Cluster: see later.

@    Wave function type        --- CC ---
@    Number of closed shell electrons          50
@    Number of electrons in active shells       0
@    Total charge of the molecule               0

@    Spin multiplicity and 2 M_S                1         0
@    Total number of symmetries                 1 (point group: C1 )
@    Reference state symmetry                   1 (irrep name : A  )

     Orbital specifications
     ======================
@    Abelian symmetry species          All |    1
@                                          |  A  
                                       --- |  ---
@    Occupied SCF orbitals              25 |   25
@    Secondary orbitals                132 |  132
@    Total number of orbitals          157 |  157
@    Number of basis functions         157 |  157

     Optimization information
     ========================
@    Number of configurations                 1
@    Number of orbital rotations           3300
     ------------------------------------------
@    Total number of variables             3301

     Maximum number of Fock   iterations      0
     Maximum number of DIIS   iterations     60
     Maximum number of QC-SCF iterations     60
     Threshold for SCF convergence     1.00D-07


 Changes of defaults for CC:
 ---------------------------


 -Implicit frozen core calculation
 -Excitation energies calculated
 -One-photon absorption strengths will be calculated
 -Oscillator strengths calculated
  
* Read MO coefficients from SIRIUS.RST with label "NEWORB  " and header info:  4Dec18  REORTHO 


 ***********************************************
 ***** DIIS acceleration of SCF iterations *****
 ***********************************************

 C1-DIIS algorithm; max error vectors =    8
 -----------------------------------------------------------------------------

 *** DIIS iteration number    1
 RDSUPM called. NFMAT, ISYMDM(1:NFMAT)                     1
                     1

Calculating AOSUPINT
     (Precalculated two-electron integrals are transformed to P-supermatrix elements.
      Threshold for discarding integrals :  1.00D-12 )
  CPU  time used in FORMSUP    is   4.92 seconds
  WALL time used in FORMSUP    is  32.90 seconds

 ITDIIS, energy, error norm, change in energy, scr.thr., difden:
@ DIIS iter.   1    -359.941866461        3.73845D+00   -3.60D+02  -20    F

 (DIIS_RED) Control Parameters C2DIIS =         F NEVC =    1


 (DIIS_RED) B matrix:

               Column   1
       1      13.97602883
    ==== End of matrix output ====

 DIIS C vector; C2DIIS = F, LAMBDA = -1.40D+01
    1.000000
* Read MO coefficients from SIRIUS.RST with label "NEWORB  " and header info:  4Dec18  DIIS   1
      Virial theorem: -V/T =      1.998481
@      MULPOP N      -0.40; H       0.15; H       0.16; H       0.16; O      -0.81; O      -0.63; O      -0.61; O      -0.63; H       0.32; H       0.33; 
@             H       0.33; H       0.31; H       0.32; H       0.33; H       0.33; H       0.34; 
   1  Level shift: doubly occupied orbital energies shifted by -2.00D-01

 DIIS Fock eigenvalues in symmetry 1
      -20.72352      -20.71633      -20.68926      -20.55862      -15.93004
       -1.54604       -1.52804       -1.51396       -1.46128       -1.40915
       -0.92735       -0.91658       -0.91345       -0.90058       -0.88304
       -0.85335       -0.80095       -0.77766       -0.76829       -0.75363
       -0.74766       -0.74052       -0.72363       -0.68727       -0.67119
        0.00000        0.11281        0.15573        0.16586        0.20840
        0.23815        0.25461        0.26560        0.27860        0.29917
        0.32445        0.36732        0.44834        0.45452        0.49589
        0.51156        0.54213        0.55015        0.56748        0.59070
        0.60372        0.63612        0.66673        0.84841        0.87621
        0.89413        0.95477        0.98580        1.00066        1.01335
        1.02364        1.05627        1.06173        1.07961        1.08714
        1.11601        1.13090        1.18794        1.23333        1.25965
        1.28807        1.32760        1.37134        1.41987        1.43979
        1.44872        1.45510        1.46501        1.50375        1.51015
        1.53379        1.55863        1.61063        1.65085        1.67447
        1.68112        1.70503        1.76352        1.79059        1.82379
        1.83657        1.87844        1.89131        1.96293        2.01280
        2.11434        2.14848        2.15644        2.17634        2.19278
        2.24585        2.29732        2.30957        2.32328        2.45770
        2.53839        2.57386        2.60541        2.61104        2.61767
        2.68486        2.70678        2.73488        2.74573        2.81733
        2.83838        2.86078        2.89538        2.94032        3.09099
        3.33458        3.36104        3.38560        3.42077        3.43480
        3.45644        3.48288        3.49586        3.50725        3.56112
        3.57021        3.62138        3.64471        3.71906        3.95332
        3.96848        3.97950        4.02871        4.12330        4.17243
        4.22941        4.25861        4.48740        5.00919        5.08637
        5.34630        5.35729        5.41276        5.43939        5.70164
        5.73037        5.75462        5.81376        6.00821        6.04497
        6.05588        6.18826       36.84202       51.52751       51.53828
       51.56308       51.73528
 Time used in FCKEIG, thr_jaco:   4.10D-02  5.00D-02  1.63D-04
 CPU and wall times used in FCKEIG, THR_FCKEIG:   4.10D-02  5.00D-02  3.74D-02
 -----------------------------------------------------------------------------

 *** DIIS iteration number    2
 RDSUPM called. NFMAT, ISYMDM(1:NFMAT)                     1
                     1

 ITDIIS, energy, error norm, change in energy, scr.thr., difden:
@ DIIS iter.   2    -360.714654871        8.97676D-01   -7.73D-01  -20    F

 (DIIS_RED) Control Parameters C2DIIS =         F NEVC =    2


 (DIIS_RED) B matrix:

               Column   1     Column   2
       1      13.97602883
       2       0.93648681     0.80582188
    ==== End of matrix output ====

 DIIS C vector; C2DIIS = F, LAMBDA = -8.04D-01
   -0.010122    1.010122
* Read MO coefficients from SIRIUS.RST with label "NEWORB  " and header info:  4Dec18  DIIS   2
      Virial theorem: -V/T =      2.004849
@      MULPOP N      -0.66; H       0.20; H       0.22; H       0.24; O      -0.68; O      -0.59; O      -0.59; O      -0.59; H       0.30; H       0.31; 
@             H       0.33; H       0.27; H       0.32; H       0.30; H       0.30; H       0.32; 
   2  Level shift: doubly occupied orbital energies shifted by -5.00D-02

 DIIS Fock eigenvalues in symmetry 1
      -20.64709      -20.64233      -20.63536      -20.60764      -15.46853
       -1.38922       -1.38072       -1.36404       -1.35656       -1.13582
       -0.75100       -0.74588       -0.71925       -0.70887       -0.65020
       -0.64769       -0.64078       -0.62937       -0.62306       -0.61443
       -0.57705       -0.56933       -0.56431       -0.55292       -0.44415
        0.00000        0.14951        0.18439        0.19714        0.23239
        0.25888        0.27046        0.28910        0.30446        0.34171
        0.36239        0.38824        0.51177        0.51309        0.53711
        0.54486        0.57710        0.58190        0.60670        0.62837
        0.64392        0.65812        0.73024        0.92325        0.93393
        0.94000        0.97141        0.98349        1.01558        1.04316
        1.06576        1.07582        1.08884        1.10115        1.10245
        1.15172        1.16190        1.16874        1.28158        1.32049
        1.35334        1.39287        1.40951        1.46758        1.48397
        1.49407        1.49837        1.51967        1.55453        1.56520
        1.57755        1.59947        1.61971        1.70715        1.72474
        1.73623        1.74677        1.83627        1.85870        1.88634
        1.90698        1.94875        1.95611        2.04388        2.07806
        2.18622        2.20165        2.21962        2.23594        2.28669
        2.30299        2.31866        2.37068        2.38668        2.54158
        2.60602        2.63666        2.65702        2.67193        2.68889
        2.76284        2.78485        2.79724        2.81541        2.87702
        2.89851        2.98390        3.03812        3.06854        3.20956
        3.39146        3.42115        3.45258        3.45636        3.46860
        3.48943        3.49983        3.51539        3.51822        3.56563
        3.58566        3.65037        3.66917        3.68089        3.97081
        3.98001        3.98515        4.00270        4.13436        4.19275
        4.21971        4.26062        4.65341        5.20842        5.26729
        5.30404        5.34044        5.34966        5.44555        5.69625
        5.71190        5.72167        5.74752        6.00710        6.05430
        6.06844        6.10514       37.14852       51.44950       51.47901
       51.49749       51.50719
 Time used in FCKEIG, thr_jaco:   2.60D-02  7.40D-02  3.91D-05
 CPU and wall times used in FCKEIG, THR_FCKEIG:   2.60D-02  7.40D-02  8.98D-03
 -----------------------------------------------------------------------------

 *** DIIS iteration number    3
 RDSUPM called. NFMAT, ISYMDM(1:NFMAT)                     1
                     1

 ITDIIS, energy, error norm, change in energy, scr.thr., difden:
@ DIIS iter.   3    -360.772959576        3.27832D-01   -5.83D-02  -20    F

 (DIIS_RED) Control Parameters C2DIIS =         F NEVC =    3


 (DIIS_RED) B matrix:

               Column   1     Column   2     Column   3
       1      13.97602883
       2       0.93648681     0.80582188
       3       0.58672472     0.07141986     0.10747409
    ==== End of matrix output ====

 DIIS C vector; C2DIIS = F, LAMBDA = -8.63D-02
   -0.039106    0.066379    0.972727
* Read MO coefficients from SIRIUS.RST with label "NEWORB  " and header info:  4Dec18  DIIS   3
      Virial theorem: -V/T =      2.002392
@      MULPOP N      -0.59; H       0.18; H       0.19; H       0.22; O      -0.77; O      -0.65; O      -0.66; O      -0.65; H       0.36; H       0.34; 
@             H       0.37; H       0.29; H       0.36; H       0.33; H       0.33; H       0.35; 
   3  Level shift: doubly occupied orbital energies shifted by -2.50D-02

 DIIS Fock eigenvalues in symmetry 1
      -20.57034      -20.56833      -20.53662      -20.49823      -15.56492
       -1.34788       -1.33682       -1.31408       -1.30082       -1.14355
       -0.70942       -0.70298       -0.66703       -0.66337       -0.63761
       -0.62654       -0.60334       -0.58119       -0.57094       -0.56763
       -0.53209       -0.52475       -0.50180       -0.49260       -0.44094
        0.00000        0.15403        0.18978        0.20143        0.23596
        0.26272        0.27535        0.29295        0.30753        0.34292
        0.36341        0.39197        0.51219        0.51401        0.54631
        0.55347        0.58624        0.59164        0.61384        0.63718
        0.65257        0.66884        0.73234        0.92729        0.93674
        0.94665        0.98605        1.01005        1.03166        1.04858
        1.06637        1.09012        1.10153        1.11396        1.11458
        1.16103        1.17332        1.18742        1.28522        1.32811
        1.36121        1.39294        1.41629        1.47247        1.49528
        1.50510        1.50980        1.53055        1.56649        1.57614
        1.58901        1.61091        1.63327        1.71577        1.73521
        1.74603        1.75734        1.84296        1.86183        1.89489
        1.91173        1.95124        1.96331        2.04589        2.08363
        2.19754        2.21150        2.22278        2.24235        2.28330
        2.31274        2.33561        2.38475        2.40124        2.55135
        2.61519        2.64789        2.66632        2.68074        2.69468
        2.76952        2.79034        2.80496        2.82235        2.88437
        2.90612        2.97007        3.01351        3.05237        3.19539
        3.41637        3.43798        3.46796        3.47975        3.49528
        3.50211        3.51456        3.53156        3.54186        3.57450
        3.61158        3.67217        3.69442        3.72586        3.99534
        4.00577        4.02292        4.03147        4.16233        4.21786
        4.26077        4.28942        4.60294        5.15998        5.23251
        5.36862        5.37313        5.38560        5.46817        5.72719
        5.74923        5.77916        5.78293        6.04127        6.08550
        6.09776        6.17173       37.03096       51.50115       51.52129
       51.54358       51.62484
 Time used in FCKEIG, thr_jaco:   2.40D-02  4.50D-02  1.43D-05
 CPU and wall times used in FCKEIG, THR_FCKEIG:   2.40D-02  4.50D-02  3.28D-03
 -----------------------------------------------------------------------------

 *** DIIS iteration number    4
 RDSUPM called. NFMAT, ISYMDM(1:NFMAT)                     1
                     1

 ITDIIS, energy, error norm, change in energy, scr.thr., difden:
@ DIIS iter.   4    -360.780580755        1.20219D-01   -7.62D-03  -20    F

 (DIIS_RED) Control Parameters C2DIIS =         F NEVC =    4


 (DIIS_RED) B matrix:

               Column   1     Column   2     Column   3     Column   4
       1      13.97602883
       2       0.93648681     0.80582188
       3       0.58672472     0.07141986     0.10747409
       4      -0.01642748     0.07676833    -0.00975873     0.01445260
    ==== End of matrix output ====

 DIIS C vector; C2DIIS = F, LAMBDA = -3.84D-03
    0.000304   -0.099048    0.183033    0.915711
* Read MO coefficients from SIRIUS.RST with label "NEWORB  " and header info:  4Dec18  DIIS   4
      Virial theorem: -V/T =      2.003506
@      MULPOP N      -0.66; H       0.20; H       0.21; H       0.24; O      -0.76; O      -0.66; O      -0.67; O      -0.65; H       0.36; H       0.34; 
@             H       0.38; H       0.29; H       0.37; H       0.33; H       0.33; H       0.35; 
   4  Level shift: doubly occupied orbital energies shifted by -1.25D-02

 DIIS Fock eigenvalues in symmetry 1
      -20.57455      -20.56799      -20.53784      -20.52312      -15.51751
       -1.34002       -1.33062       -1.30705       -1.30043       -1.12014
       -0.70057       -0.69554       -0.66027       -0.65749       -0.61644
       -0.60678       -0.59337       -0.57179       -0.56422       -0.56107
       -0.52096       -0.51284       -0.49103       -0.48883       -0.41732
        0.00000        0.15366        0.18873        0.20032        0.23539
        0.26201        0.27467        0.29255        0.30793        0.34480
        0.36527        0.39302        0.51567        0.51694        0.54592
        0.55279        0.58437        0.59129        0.61329        0.63588
        0.65012        0.66642        0.73464        0.93051        0.93971
        0.94864        0.98547        1.00606        1.02986        1.04995
        1.06994        1.08792        1.09974        1.11230        1.11269
        1.16166        1.17198        1.18222        1.28582        1.32880
        1.36094        1.39679        1.41695        1.47411        1.49381
        1.50285        1.50746        1.52896        1.56477        1.57347
        1.58692        1.60859        1.63073        1.71485        1.73336
        1.74401        1.75577        1.84274        1.86396        1.89392
        1.91304        1.95351        1.96207        2.04931        2.08505
        2.19594        2.21113        2.22429        2.24092        2.28834
        2.31026        2.32978        2.38164        2.39741        2.55250
        2.61549        2.64573        2.66457        2.67976        2.69533
        2.77054        2.79267        2.80427        2.82224        2.88313
        2.90464        2.97886        3.02522        3.06161        3.20336
        3.41185        3.43779        3.47180        3.47942        3.49048
        3.49658        3.51412        3.53003        3.53726        3.57038
        3.60652        3.66932        3.69028        3.71491        3.99085
        4.00040        4.01693        4.02285        4.15694        4.21429
        4.25198        4.28403        4.62033        5.17777        5.24719
        5.35254        5.36535        5.37431        5.46376        5.72118
        5.74090        5.76442        5.77232        6.03226        6.07799
        6.09130        6.15285       37.06521       51.48480       51.50940
       51.53016       51.58816
 Time used in FCKEIG, thr_jaco:   2.30D-02  4.70D-02  5.23D-06
 CPU and wall times used in FCKEIG, THR_FCKEIG:   2.30D-02  4.70D-02  1.20D-03
 -----------------------------------------------------------------------------

 *** DIIS iteration number    5
 RDSUPM called. NFMAT, ISYMDM(1:NFMAT)                     1
                     1

 ITDIIS, energy, error norm, change in energy, scr.thr., difden:
@ DIIS iter.   5    -360.781707832        2.39857D-02   -1.13D-03  -20    F

 (DIIS_RED) Control Parameters C2DIIS =         F NEVC =    5


 (DIIS_RED) B matrix:

               Column   1     Column   2     Column   3     Column   4     Column   5
       1      13.97602883
       2       0.93648681     0.80582188
       3       0.58672472     0.07141986     0.10747409
       4      -0.01642748     0.07676833    -0.00975873     0.01445260
       5       0.01320393     0.00643192     0.00475062     0.00077772     0.00057531
    ==== End of matrix output ====

 DIIS C vector; C2DIIS = F, LAMBDA = -2.89D-04
    0.001298    0.011468   -0.080848   -0.160133    1.228215
* Read MO coefficients from SIRIUS.RST with label "NEWORB  " and header info:  4Dec18  DIIS   5
      Virial theorem: -V/T =      2.003058
@      MULPOP N      -0.66; H       0.20; H       0.21; H       0.24; O      -0.78; O      -0.67; O      -0.68; O      -0.66; H       0.37; H       0.35; 
@             H       0.39; H       0.30; H       0.37; H       0.34; H       0.34; H       0.36; 

 DIIS Fock eigenvalues in symmetry 1
      -20.55913      -20.55365      -20.52369      -20.50602      -15.50196
       -1.32688       -1.31725       -1.29395       -1.28614       -1.10689
       -0.68802       -0.68290       -0.64706       -0.64471       -0.60348
       -0.59381       -0.58069       -0.55877       -0.55058       -0.54841
       -0.50687       -0.49882       -0.47700       -0.47372       -0.40354
        0.00000        0.15353        0.18856        0.20008        0.23540
        0.26185        0.27462        0.29251        0.30793        0.34502
        0.36543        0.39332        0.51577        0.51702        0.54594
        0.55271        0.58418        0.59151        0.61322        0.63581
        0.64979        0.66660        0.73479        0.93117        0.94047
        0.94910        0.98629        1.00774        1.03075        1.05059
        1.07060        1.08819        1.10008        1.11248        1.11294
        1.16224        1.17232        1.18284        1.28624        1.32917
        1.36115        1.39709        1.41731        1.47440        1.49424
        1.50239        1.50722        1.52867        1.56482        1.57305
        1.58690        1.60840        1.63137        1.71452        1.73315
        1.74363        1.75575        1.84228        1.86390        1.89348
        1.91295        1.95354        1.96161        2.04948        2.08509
        2.19561        2.21087        2.22418        2.24069        2.28854
        2.31006        2.32989        2.38136        2.39713        2.55265
        2.61560        2.64535        2.66426        2.67928        2.69499
        2.77016        2.79250        2.80363        2.82174        2.88261
        2.90403        2.97935        3.02579        3.06209        3.20382
        3.41279        3.43847        3.47250        3.48040        3.49129
        3.49808        3.51493        3.53086        3.53782        3.57175
        3.60734        3.66983        3.69071        3.71659        3.99132
        4.00111        4.01820        4.02383        4.15784        4.21486
        4.25364        4.28471        4.62183        5.17906        5.24846
        5.35526        5.36656        5.37625        5.46497        5.72215
        5.74238        5.76688        5.77314        6.03348        6.07860
        6.09198        6.15516       37.06820       51.48767       51.51122
       51.53179       51.59268
 Time used in FCKEIG, thr_jaco:   2.20D-02  4.30D-02  1.04D-06
 CPU and wall times used in FCKEIG, THR_FCKEIG:   2.20D-02  4.30D-02  2.40D-04
 -----------------------------------------------------------------------------

 *** DIIS iteration number    6
 RDSUPM called. NFMAT, ISYMDM(1:NFMAT)                     1
                     1

 ITDIIS, energy, error norm, change in energy, scr.thr., difden:
@ DIIS iter.   6    -360.781798441        7.17545D-03   -9.06D-05  -20    F

 (DIIS_RED) Control Parameters C2DIIS =         F NEVC =    6


 (DIIS_RED) B matrix:

               Column   1     Column   2     Column   3     Column   4     Column   5     Column   6
       1      13.97602883
       2       0.93648681     0.80582188
       3       0.58672472     0.07141986     0.10747409
       4      -0.01642748     0.07676833    -0.00975873     0.01445260
       5       0.01320393     0.00643192     0.00475062     0.00077772     0.00057531
       6      -0.00257152    -0.00039584     0.00049245     0.00014291     0.00007618     0.00005149
    ==== End of matrix output ====

 DIIS C vector; C2DIIS = F, LAMBDA = -3.28D-05
    0.000445    0.007954   -0.023816   -0.071751    0.123909    0.963259
* Read MO coefficients from SIRIUS.RST with label "NEWORB  " and header info:  4Dec18  DIIS   6
      Virial theorem: -V/T =      2.003199
@      MULPOP N      -0.66; H       0.20; H       0.21; H       0.24; O      -0.78; O      -0.68; O      -0.69; O      -0.67; H       0.37; H       0.35; 
@             H       0.39; H       0.30; H       0.37; H       0.34; H       0.34; H       0.36; 

 DIIS Fock eigenvalues in symmetry 1
      -20.56067      -20.55444      -20.52430      -20.50735      -15.50521
       -1.32709       -1.31773       -1.29409       -1.28640       -1.10793
       -0.68833       -0.68343       -0.64739       -0.64498       -0.60439
       -0.59467       -0.58108       -0.55939       -0.55101       -0.54881
       -0.50724       -0.49898       -0.47700       -0.47383       -0.40444
        0.00000        0.15339        0.18844        0.19997        0.23531
        0.26172        0.27452        0.29238        0.30780        0.34481
        0.36519        0.39318        0.51542        0.51667        0.54571
        0.55252        0.58396        0.59132        0.61302        0.63565
        0.64962        0.66643        0.73447        0.93071        0.93998
        0.94871        0.98607        1.00767        1.03056        1.05020
        1.07013        1.08790        1.09977        1.11224        1.11263
        1.16200        1.17203        1.18262        1.28583        1.32883
        1.36088        1.39659        1.41698        1.47399        1.49404
        1.50208        1.50702        1.52845        1.56456        1.57282
        1.58670        1.60814        1.63112        1.71422        1.73294
        1.74341        1.75556        1.84197        1.86349        1.89326
        1.91266        1.95316        1.96135        2.04905        2.08483
        2.19519        2.21051        2.22370        2.24031        2.28788
        2.30962        2.32961        2.38109        2.39689        2.55226
        2.61524        2.64511        2.66412        2.67899        2.69459
        2.76981        2.79214        2.80331        2.82144        2.88243
        2.90381        2.97849        3.02473        3.06120        3.20302
        3.41221        3.43803        3.47205        3.47968        3.49069
        3.49750        3.51433        3.53033        3.53758        3.57108
        3.60679        3.66951        3.69049        3.71623        3.99108
        4.00053        4.01783        4.02348        4.15725        4.21455
        4.25318        4.28446        4.62013        5.17738        5.24696
        5.35459        5.36621        5.37542        5.46445        5.72168
        5.74155        5.76620        5.77278        6.03261        6.07824
        6.09152        6.15450       37.06502       51.48615       51.51043
       51.53118       51.59138
 Time used in FCKEIG, thr_jaco:   2.10D-02  4.10D-02  3.12D-07
 CPU and wall times used in FCKEIG, THR_FCKEIG:   2.10D-02  4.10D-02  7.18D-05
 -----------------------------------------------------------------------------

 *** DIIS iteration number    7
 RDSUPM called. NFMAT, ISYMDM(1:NFMAT)                     1
                     1

 ITDIIS, energy, error norm, change in energy, scr.thr., difden:
@ DIIS iter.   7    -360.781804241        2.58291D-03   -5.80D-06  -20    F

 (DIIS_RED) Control Parameters C2DIIS =         F NEVC =    7


 (DIIS_RED) B matrix:

               Column   1     Column   2     Column   3     Column   4     Column   5     Column   6
       1      13.97602883
       2       0.93648681     0.80582188
       3       0.58672472     0.07141986     0.10747409
       4      -0.01642748     0.07676833    -0.00975873     0.01445260
       5       0.01320393     0.00643192     0.00475062     0.00077772     0.00057531
       6      -0.00257152    -0.00039584     0.00049245     0.00014291     0.00007618     0.00005149
       7       0.00111029     0.00004153     0.00009462    -0.00000587     0.00003536    -0.00000051

               Column   7
       7       0.00000667
    ==== End of matrix output ====

 DIIS C vector; C2DIIS = F, LAMBDA = -1.22D-06
   -0.000224   -0.001937    0.011653    0.027266   -0.180738    0.088332    1.055649
* Read MO coefficients from SIRIUS.RST with label "NEWORB  " and header info:  4Dec18  DIIS   7
      Virial theorem: -V/T =      2.003163
@      MULPOP N      -0.66; H       0.20; H       0.21; H       0.24; O      -0.78; O      -0.68; O      -0.69; O      -0.67; H       0.37; H       0.35; 
@             H       0.39; H       0.30; H       0.37; H       0.34; H       0.34; H       0.36; 

 DIIS Fock eigenvalues in symmetry 1
      -20.56018      -20.55423      -20.52414      -20.50681      -15.50448
       -1.32699       -1.31754       -1.29401       -1.28613       -1.10768
       -0.68827       -0.68332       -0.64723       -0.64489       -0.60423
       -0.59452       -0.58108       -0.55930       -0.55087       -0.54879
       -0.50702       -0.49881       -0.47687       -0.47353       -0.40419
        0.00000        0.15342        0.18846        0.19998        0.23537
        0.26174        0.27455        0.29242        0.30782        0.34486
        0.36524        0.39326        0.51550        0.51675        0.54577
        0.55256        0.58399        0.59142        0.61307        0.63570
        0.64963        0.66654        0.73454        0.93083        0.94012
        0.94879        0.98617        1.00786        1.03067        1.05032
        1.07026        1.08798        1.09985        1.11231        1.11269
        1.16209        1.17213        1.18276        1.28597        1.32892
        1.36094        1.39669        1.41710        1.47409        1.49419
        1.50208        1.50703        1.52846        1.56462        1.57281
        1.58678        1.60819        1.63128        1.71424        1.73299
        1.74342        1.75565        1.84199        1.86355        1.89327
        1.91273        1.95324        1.96136        2.04914        2.08491
        2.19523        2.21055        2.22376        2.24035        2.28800
        2.30968        2.32973        2.38112        2.39690        2.55235
        2.61534        2.64514        2.66422        2.67900        2.69462
        2.76982        2.79217        2.80330        2.82146        2.88248
        2.90383        2.97867        3.02495        3.06138        3.20317
        3.41239        3.43815        3.47218        3.47988        3.49088
        3.49776        3.51450        3.53049        3.53767        3.57133
        3.60697        3.66962        3.69057        3.71649        3.99115
        4.00070        4.01802        4.02364        4.15745        4.21466
        4.25344        4.28458        4.62053        5.17774        5.24729
        5.35493        5.36635        5.37572        5.46460        5.72182
        5.74182        5.76653        5.77288        6.03288        6.07834
        6.09165        6.15484       37.06573       51.48663       51.51064
       51.53134       51.59190
 Time used in FCKEIG, thr_jaco:   2.10D-02  4.40D-02  1.12D-07
 CPU and wall times used in FCKEIG, THR_FCKEIG:   2.10D-02  4.40D-02  2.58D-05
 -----------------------------------------------------------------------------

 *** DIIS iteration number    8
 RDSUPM called. NFMAT, ISYMDM(1:NFMAT)                     1
                     1

 ITDIIS, energy, error norm, change in energy, scr.thr., difden:
@ DIIS iter.   8    -360.781804863        3.67367D-04   -6.22D-07  -20    F

 (DIIS_RED) Control Parameters C2DIIS =         F NEVC =    8


 (DIIS_RED) B matrix:

               Column   1     Column   2     Column   3     Column   4     Column   5     Column   6
       1      13.97602883
       2       0.93648681     0.80582188
       3       0.58672472     0.07141986     0.10747409
       4      -0.01642748     0.07676833    -0.00975873     0.01445260
       5       0.01320393     0.00643192     0.00475062     0.00077772     0.00057531
       6      -0.00257152    -0.00039584     0.00049245     0.00014291     0.00007618     0.00005149
       7       0.00111029     0.00004153     0.00009462    -0.00000587     0.00003536    -0.00000051
       8      -0.00001264     0.00000366    -0.00000760     0.00000595     0.00000072     0.00000132

               Column   7     Column   8
       7       0.00000667
       8       0.00000021     0.00000013
    ==== End of matrix output ====

 DIIS C vector; C2DIIS = F, LAMBDA = -6.91D-08
    0.000025    0.000223   -0.001637   -0.004123    0.033274   -0.051039   -0.193434    1.216711
* Read MO coefficients from SIRIUS.RST with label "NEWORB  " and header info:  4Dec18  DIIS   8
      Virial theorem: -V/T =      2.003184
@      MULPOP N      -0.66; H       0.20; H       0.21; H       0.24; O      -0.78; O      -0.68; O      -0.69; O      -0.67; H       0.37; H       0.35; 
@             H       0.39; H       0.30; H       0.37; H       0.34; H       0.34; H       0.36; 

 DIIS Fock eigenvalues in symmetry 1
      -20.56028      -20.55425      -20.52415      -20.50678      -15.50450
       -1.32700       -1.31757       -1.29401       -1.28612       -1.10768
       -0.68828       -0.68334       -0.64722       -0.64488       -0.60424
       -0.59453       -0.58111       -0.55934       -0.55087       -0.54880
       -0.50705       -0.49882       -0.47688       -0.47352       -0.40419
        0.00000        0.15341        0.18845        0.19997        0.23538
        0.26173        0.27455        0.29242        0.30782        0.34486
        0.36523        0.39326        0.51549        0.51674        0.54577
        0.55255        0.58398        0.59142        0.61306        0.63569
        0.64962        0.66654        0.73453        0.93081        0.94012
        0.94877        0.98617        1.00787        1.03067        1.05031
        1.07025        1.08797        1.09984        1.11230        1.11267
        1.16208        1.17213        1.18277        1.28596        1.32891
        1.36094        1.39668        1.41709        1.47408        1.49419
        1.50206        1.50702        1.52845        1.56461        1.57281
        1.58678        1.60817        1.63128        1.71423        1.73299
        1.74341        1.75565        1.84198        1.86354        1.89326
        1.91272        1.95323        1.96135        2.04913        2.08491
        2.19522        2.21054        2.22375        2.24034        2.28798
        2.30966        2.32974        2.38111        2.39689        2.55234
        2.61532        2.64513        2.66422        2.67899        2.69461
        2.76981        2.79216        2.80329        2.82145        2.88248
        2.90382        2.97866        3.02494        3.06137        3.20316
        3.41236        3.43813        3.47217        3.47987        3.49084
        3.49776        3.51449        3.53048        3.53766        3.57133
        3.60694        3.66960        3.69056        3.71650        3.99114
        4.00066        4.01801        4.02364        4.15741        4.21465
        4.25344        4.28457        4.62052        5.17773        5.24727
        5.35493        5.36633        5.37568        5.46458        5.72180
        5.74177        5.76654        5.77287        6.03282        6.07833
        6.09163        6.15485       37.06571       51.48654       51.51062
       51.53132       51.59193
 Time used in FCKEIG, thr_jaco:   2.10D-02  2.70D-02  1.60D-08
 CPU and wall times used in FCKEIG, THR_FCKEIG:   2.10D-02  2.70D-02  3.67D-06
 -----------------------------------------------------------------------------

 *** DIIS iteration number    9
 RDSUPM called. NFMAT, ISYMDM(1:NFMAT)                     1
                     1

 ITDIIS, energy, error norm, change in energy, scr.thr., difden:
@ DIIS iter.   9    -360.781804881        1.22066D-04   -1.81D-08  -20    F

 (DIIS_RED) Control Parameters C2DIIS =         F NEVC =    8


 (DIIS_RED) B matrix:

               Column   1     Column   2     Column   3     Column   4     Column   5     Column   6
       1       0.00000001
       2       0.00000404     0.80582188
       3       0.00000111     0.07141986     0.10747409
       4      -0.00000005     0.07676833    -0.00975873     0.01445260
       5       0.00000023     0.00643192     0.00475062     0.00077772     0.00057531
[...]
 | 1 1 1 1 |  25   1  21   1 |     2665        1 |      3549781 |   -0.159544  |
 | 1 1 1 1 |  37   1  21   1 |     2677        1 |      3581827 |    0.071362  |
 | 1 1 1 1 | 113   1  21   1 |     2753        1 |      3788129 |    0.103091  |
 +=============================================================================+


          Norm of Printed Amplitude Vector :             0.8600

          Printed all single excitations greater than 0.378608

          Printed all double excitations greater than 0.065316



+======================================================================+
| contributions of excitation levels to right eigenvectors as computed |
| from the (RE|RE) self overlap                                        |
+----------------------------------------------------------------------+
| sym | multi | state |    E / eV  | % singles | % doubles | % triples |
+======================================================================+
|    1|   1   |   1   |  405.71744 |  88.1382  |  11.8618  |   0.0000  |
+======================================================================+





+======================================================================+
| contributions of excitation levels to excited states as computed     |
| from the (LE|RE) overlap                                             |
+----------------------------------------------------------------------+
| sym | multi | state |    E / eV  | % singles | % doubles | % triples |
+======================================================================+
|    1|   1   |   1   |  405.71744 |  78.8055  |  21.1945  |   0.0000  |
+======================================================================+



 --------------------------
 Symmetry class Nr.:     1
 Multiplicity      :     3
 --------------------------

 Length of Excitation vectors in this class is:   7689528
 No Excitation Energies calculated in this symmetry class
     

   *******************************************************************
   *                                                                 *
   *--------   OUTPUT FROM PROPERTY AND SYMMETRY ANALYSIS   ---------*
   *                                                                 *
   *******************************************************************



                         +-------------------------------+
                         ! REQUESTED PROPERTY OPERATORS: !
                         +-------------------------------+

             Index   Oper. Label  Symmetry  Transp.  PDBS  Atom
             --------------------------------------------------
                1     HAM0            1        1      T      0
                2     XDIPLEN         1        1      F      0
                3     YDIPLEN         1        1      F      0
                4     ZDIPLEN         1        1      F      0
             --------------------------------------------------




                         +-------------------------------+
                         ! REQUESTED EXPECTATION VALUES: !
                         +-------------------------------+

                       Index   Oper. Label  Symmetry
                       -----------------------------
                       -----------------------------




                       +------------------------------------+
                       ! REQUESTED EFFECTIVE FOCK MATRICES: !
                       +------------------------------------+

                       Index   Oper. Label  Symmetry
                       -----------------------------
                       -----------------------------




                        +----------------------------------+
                        ! REQUESTED FIRST ORDER M-VECTORS: !
                        +----------------------------------+

               Index   State Symmetry  Frequency
               --------------------------------------------------
                  1             1    1     1.490984D+01
               --------------------------------------------------


      

    *******************************************************************
    *          SOLVING COUPLED CLUSTER RESPONSE EQUATIONS             *
    *******************************************************************



 
 +======================================================================+
 !                     RHS & ETA VECTORS TO COMPUTE:                    !
 +======================================================================+
 | TYPE | # VEC. |  NEEDED FOR:                                         |
 +----------------------------------------------------------------------+
 +======================================================================+



 +======================================================================+
 !                       LINEAR EQUATIONS TO SOLVE:                     !
 +======================================================================+
 | TYPE | # VEC. |  EQUATION:                                           |
 +----------------------------------------------------------------------+
 |  M1  |    1   |  first-order ground - excited state multipliers      |
 +======================================================================+



 +======================================================================+
 !                F MATRIX TRANSFORMATIONS TO COMPUTE:                  !
 +======================================================================+
 | TYPE | # VEC. |  TRANSFORMED:                                        |
 +----------------------------------------------------------------------+
 |  FR  |    1   |  right eigenvectors (RE)                             |
 +======================================================================+





 Testing R1 list: 

 List nr.  Label     Symmetry      Frequency      T1-norm        T2-norm


 Testing L1 list: 

 List nr.  Label     Symmetry      Frequency      T1-norm        T2-norm
  Solvent 1-order response equations converged in                     0 
  solvent iterations
 SONIAPRI                     0
 CCEQ_STR: CVSEPARATION =  T
 CCEQ_STR: IONIZATION =  T
 CCEQ_STR: REMOVE_CORE =  F
 could not find required file CCM1_1___1
 IOPTSV is    33 ... program continues nevertheless.
 Vector nr.  1 of type M1  and symmetry  1 was not found on file.
     M1  start vector nr.  1 of symmetry  1 generated from gradient
 CCEQ_STR: freeze VALENCE OR VIRT
 CCEQ_SOL: CVSEPARA=     T
 CCEQ_SOL: LIONISAT=     T
 CCEQ_SOL: REMOVE_CORE =  F



 ----- COUPLED CLUSTER RESPONSE SOLVER -----

    Iter  #Vectors  time (min)   residual
    --------------------------------------
 CCRED CVS/IONIS sigma_                     1 
 project out valence occupied or virtual
      1       1         1.49     0.37E+00
 CCRED CVS/IONIS sigma_                     2 
 project out valence occupied or virtual
      2       1         1.46     0.77E-01
 CCRED CVS/IONIS sigma_                     3 
 project out valence occupied or virtual
      3       1         1.45     0.83E-02
 CCRED CVS/IONIS sigma_                     4 
 project out valence occupied or virtual
                    -1  vectors with norm le:  1.000000000000000E-035  REMOVED

 CCORT,**WARNING**  number vectors added is zero after check for vector norm , NBADD :    0

 CCORT, number vectors added is zero , NBADD :    0

 CCORT, number vectors added is zero , NBADD :    0

 CCORT, number vectors added is zero , NBADD :    0

 CCORT, number vectors added is zero , NBADD :    0

 *** MICROITERATIONS STOPPED DUE TO LINEAR DEPENDENCE BETWEEN ALL NEW TRIAL VECTORS
                     0  trial vectors converged
  LINEAR DEPENDENCE BETWEEN                     1  NON CONVERGED TRIAL VECTORS
      4       1         1.46     0.72E-03

 ***  CCEQ_SOL -MICROITERATIONS STOPPED  
     LINEAR DEPENDENCE BETWEEN ALL NEW TRIAL VECTORS
    --------------------------------------
    converged in  4 iterations
    threshold:    0.10E-08


         Routine          Time (min)
         ---------------------------
         CC_TRDRV            5.87
         CCRED               0.03
         CCNEX               0.05
         ---------------------------
         Total time          5.95


  Total CPU  time used in CCEQ_SOLV:  5 minutes 57 seconds
  Total wall time used in CCEQ_SOLV:  7 minutes 22 seconds


 xxxxxxxxxxxxxxxxxxxxxxxxxxxxxxxxxxxxx

 
 Solution of CC response equations completed.
 

 *******************************************************************
 *                                                                 *
 *--------  OUTPUT FROM COUPLED CLUSTER LINEAR RESPONSE   ---------*
 *                                                                 *
 *--------      CALCULATION OF SECOND ORDER RESIDUES      ---------*
 *                                                                 *
 *******************************************************************



                  +---------------------------------------------+
                  ! CC_SOPR: Calculation of CCSD       Residues !
                  +---------------------------------------------+

 Doing the Mf*CsiA
 Doing the Mf*CsiA
 Doing the Mf*CsiA


 CCSD  Right transition moments in atomic units:
 -----------------------------------------------

  1      14.909842  <XDIPLEN |f> =      -0.00000000
  1      14.909842  <YDIPLEN |f> =       0.00000000
  1      14.909842  <ZDIPLEN |f> =      -0.00000000


 CCSD  Left  transition moments in atomic units:
 -----------------------------------------------

  1      14.909842  <f|XDIPLEN > =      -0.00000000
  1      14.909842  <f|YDIPLEN > =       0.00000000
  1      14.909842  <f|ZDIPLEN > =      -0.00000000


 CCSD  linear response residue property in atomic units:
 -------------------------------------------------------

 RES{<<XDIPLEN ,XDIPLEN >>(14.909842)} =     0.00000000 (   0.00000000)
 RES{<<XDIPLEN ,YDIPLEN >>(14.909842)} =    -0.00000000 (  -0.00000000)
 RES{<<XDIPLEN ,ZDIPLEN >>(14.909842)} =     0.00000000 (   0.00000000)
 RES{<<YDIPLEN ,XDIPLEN >>(14.909842)} =    -0.00000000 (  -0.00000000)
 RES{<<YDIPLEN ,YDIPLEN >>(14.909842)} =     0.00000000 (   0.00000000)
 RES{<<YDIPLEN ,ZDIPLEN >>(14.909842)} =    -0.00000000 (  -0.00000000)
 RES{<<ZDIPLEN ,XDIPLEN >>(14.909842)} =     0.00000000 (   0.00000000)
 RES{<<ZDIPLEN ,YDIPLEN >>(14.909842)} =    -0.00000000 (  -0.00000000)
 RES{<<ZDIPLEN ,ZDIPLEN >>(14.909842)} =     0.00000000 (   0.00000000)


 CCSD  Transition strength matrix for state nr.  1 of symmetry 1
 CCSD  excitation energy:14.90984198

 Gauge: length

               Column   1     Column   2     Column   3
       1     1.102117D-18  -1.118028D-18   1.444311D-18
       2    -1.118028D-18   1.129223D-18  -1.466121D-18
       3     1.444311D-18  -1.466121D-18   1.892567D-18
    ==== End of matrix output ====

 Principal values of diagonalized transition strength matrix:

             a.u.               
 1       0.00000000
 2       0.00000000
 3       0.00000000

 Principal axis of diagonalized transition strength matrix:


               Column   1     Column   2     Column   3
       1       1.00000000     0.00000000     0.00000000
       2       0.00000000     1.00000000     0.00000000
       3       0.00000000     0.00000000     1.00000000
    ==== End of matrix output ====


 CCSD   oscillator strength matrix for state nr.  1 of symmetry 1
 CCSD  excitation energy:14.90984198


               Column   1     Column   2     Column   3
       1     1.095493D-17  -1.111308D-17   1.435630D-17
       2    -1.111308D-17   1.122436D-17  -1.457309D-17
       3     1.435630D-17  -1.457309D-17   1.881191D-17
    ==== End of matrix output ====

 Principal values of diagonalized oscillator strength matrix:

             a.u.               
 1       0.00000000
 2       0.00000000
 3       0.00000000

 Principal axis of diagonalized oscillator strength matrix:


               Column   1     Column   2     Column   3
       1       1.00000000     0.00000000     0.00000000
       2       0.00000000     1.00000000     0.00000000
       3       0.00000000     0.00000000     1.00000000
    ==== End of matrix output ====

  Total time for      9 linear response residues:       2.99 seconds.
  

 *******************************************************************************
 *******************************************************************************
 *                                                                             *
 *                                                                             *
 *                   SUMMARY OF COUPLED CLUSTER CALCULATION                    *
 *                                                                             *
 *                                                                             *
 *******************************************************************************
 *******************************************************************************

                                                                                
                                                                                
            Total SCF   energy:                  -360.7818048824                
            Total MP2   energy:                  -361.8871225305                
            Total CCSD  energy:                  -361.9263786964                
                                                                                
                                                                                
            Total SCF   energy:                  -360.7818048824                
            Total RSTAR energy:                  -361.9263786964                
            Total CCSD  energy:                  -361.9265337623                
                                                                                
                                                                                
            Total SCF   energy:                  -360.7818048824                
            Total RSTAR energy:                  -361.9265337623                
            Total CCSD  energy:                  -361.9265358992                
                                                                                
                                                                                
            Total SCF   energy:                  -360.7818048824                
            Total RSTAR energy:                  -361.9265358992                
            Total CCSD  energy:                  -361.9265360749                
                                                                                
                                                                                
            Total SCF   energy:                  -360.7818048824                
            Total RSTAR energy:                  -361.9265360749                
            Total CCSD  energy:                  -361.9265360849                
                                                                                
                                                                                
            Total SCF   energy:                  -360.7818048824                
            Total RSTAR energy:                  -361.9265360849                
            Total CCSD  energy:                  -361.9265360855                
                                                                                
                                                                                
            Total SCF   energy:                  -360.7818048824                
            Total RSTAR energy:                  -361.9265360855                
            Total CCSD  energy:                  -361.9265360855                
            CCSD Total  energy:                  -362.3455436639                
            CCSD E(QM/MM)     :                    -0.4134001194                
                                                                                
                                                                                
                                                                                
 +=============================================================================+
 |  sym. | Exci.  |        CCSD       Excitation energies            | ||T1||  |
 |(spin, |        +------------------------------------------------------------+
 | spat) |        |     Hartree    |       eV.      |     cm-1       |    %    |
 +=============================================================================+
 | ^1A   |    1   |    14.9098420  |     405.71744  |   3272332.043  |  88.14  |
 +=============================================================================+
                                                                                
                                                                                
     Total energies in Hartree:                                                 
             1 ^1A       -347.0223015617                                        
                                                                                
                                                                                
 +=============================================================================+
 |  sym. | Exci.  |        CCSD       Length   Gauge Oscillator Strength       |
 |(spin, |        +------------------------------------------------------------+
 | spat) |        | Dipole Strength(a.u.) | Oscillator strength  | Direction   |
 +=============================================================================+
 | ^1A   |    1   |        0.0000000      |      0.0000000       |    -        |
 +=============================================================================+

  1 a.u. =        27.21138 eV.  
  1 a.u. =    219474.62934 cm-1.
  

 *******************************************************************************
 *******************************************************************************
 *                                                                             *
 *                                                                             *
 *                      END OF COUPLED CLUSTER CALCULATION                     *
 *                                                                             *
 *                                                                             *
 *******************************************************************************
 *******************************************************************************


 CPU and wall time for CC :    7279.614   14537.358

 
     Date and time (Linux)  : Tue Dec  4 13:27:45 2018
     Host name              : n-62-23-29                              


                      .-------------------------------------.
                      | End of Coupled Cluster Section (CC) |
                      `-------------------------------------'

  Total CPU  time used in DALTON:   2 hours  3 minutes 29 seconds
  Total wall time used in DALTON:   4 hours  8 minutes 14 seconds

 
     Date and time (Linux)  : Tue Dec  4 13:27:45 2018
     Host name              : n-62-23-29                              
  

 +---------------------------------------------------------+ 
 | List of selected calculated molecular properties (a.u.) | 
 +---------------------------------------------------------+ 

  Properties are read from unit number                      4

 CCSD       properties :
 #  1 1 CCSD/MM  Ground state Energy =    -362.3455436639
 #  2 1 E_QM/MM  Ground state Energy =      -0.4134001194
 #  3 1 Sy: 1 Sp: 1 Exc:  1 E_tot:   -347.0223015617 w:     14.9098419829 E_grs:   -361.9321435446
 #  4 1 Exctot   Excited state Energy =    -347.0223015617
 #  5 1 |<O|XDIPLEN |i(14.909842)>| =     0.00000000
 #  7 1 |<O|YDIPLEN |i(14.909842)>| =     0.00000000
 #  9 1 |<O|ZDIPLEN |i(14.909842)>| =     0.00000000

 THE_END   
