

     ************************************************************************
     *************** Dalton - An Electronic Structure Program ***************
     ************************************************************************

    This is output from DALTON release Dalton2017.alpha (2016)
         ( Web site: http://daltonprogram.org )

   ----------------------------------------------------------------------------

    NOTE:
     
    Dalton is an experimental code for the evaluation of molecular
    properties using (MC)SCF, DFT, CI, and CC wave functions.
    The authors accept no responsibility for the performance of
    the code or for the correctness of the results.
     
    The code (in whole or part) is provided under a licence and
    is not to be reproduced for further distribution without
    the written permission of the authors or their representatives.
     
    See the home page "http://daltonprogram.org" for further information.
     
    If results obtained with this code are published,
    the appropriate citations would be both of:
     
       K. Aidas, C. Angeli, K. L. Bak, V. Bakken, R. Bast,
       L. Boman, O. Christiansen, R. Cimiraglia, S. Coriani,
       P. Dahle, E. K. Dalskov, U. Ekstroem,
       T. Enevoldsen, J. J. Eriksen, P. Ettenhuber, B. Fernandez,
       L. Ferrighi, H. Fliegl, L. Frediani, K. Hald, A. Halkier,
       C. Haettig, H. Heiberg, T. Helgaker, A. C. Hennum,
       H. Hettema, E. Hjertenaes, S. Hoest, I.-M. Hoeyvik,
       M. F. Iozzi, B. Jansik, H. J. Aa. Jensen, D. Jonsson,
       P. Joergensen, J. Kauczor, S. Kirpekar,
       T. Kjaergaard, W. Klopper, S. Knecht, R. Kobayashi, H. Koch,
       J. Kongsted, A. Krapp, K. Kristensen, A. Ligabue,
       O. B. Lutnaes, J. I. Melo, K. V. Mikkelsen, R. H. Myhre,
       C. Neiss, C. B. Nielsen, P. Norman, J. Olsen,
       J. M. H. Olsen, A. Osted, M. J. Packer, F. Pawlowski,
       T. B. Pedersen, P. F. Provasi, S. Reine, Z. Rinkevicius,
       T. A. Ruden, K. Ruud, V. Rybkin, P. Salek, C. C. M. Samson,
       A. Sanchez de Meras, T. Saue, S. P. A. Sauer,
       B. Schimmelpfennig, K. Sneskov, A. H. Steindal,
       K. O. Sylvester-Hvid, P. R. Taylor, A. M. Teale,
       E. I. Tellgren, D. P. Tew, A. J. Thorvaldsen, L. Thoegersen,
       O. Vahtras, M. A. Watson, D. J. D. Wilson, M. Ziolkowski
       and H. Agren,
       "The Dalton quantum chemistry program system",
       WIREs Comput. Mol. Sci. 2014, 4:269–284 (doi: 10.1002/wcms.1172)
     
    and
     
       Dalton, a Molecular Electronic Structure Program,
       Release Dalton2017.alpha (2016), see http://daltonprogram.org
   ----------------------------------------------------------------------------

    Authors in alphabetical order (major contribution(s) in parenthesis):

  Kestutis Aidas,           Vilnius University,           Lithuania   (QM/MM)
  Celestino Angeli,         University of Ferrara,        Italy       (NEVPT2)
  Keld L. Bak,              UNI-C,                        Denmark     (AOSOPPA, non-adiabatic coupling, magnetic properties)
  Vebjoern Bakken,          University of Oslo,           Norway      (DALTON; geometry optimizer, symmetry detection)
  Radovan Bast,             UiT The Arctic U. of Norway,  Norway      (DALTON installation and execution frameworks)
  Pablo Baudin,             University of Valencia,       Spain       (Cholesky excitation energies)
  Linus Boman,              NTNU,                         Norway      (Cholesky decomposition and subsystems)
  Ove Christiansen,         Aarhus University,            Denmark     (CC module)
  Renzo Cimiraglia,         University of Ferrara,        Italy       (NEVPT2)
  Sonia Coriani,            University of Trieste,        Italy       (CC module, MCD in RESPONS)
  Janusz Cukras,            University of Trieste,        Italy       (MChD in RESPONS)
  Paal Dahle,               University of Oslo,           Norway      (Parallelization)
  Erik K. Dalskov,          UNI-C,                        Denmark     (SOPPA)
  Thomas Enevoldsen,        Univ. of Southern Denmark,    Denmark     (SOPPA)
  Janus J. Eriksen,         Aarhus University,            Denmark     (Polarizable embedding model, TDA)
  Rasmus Faber,             University of Copenhagen,     Denmark     (Vib.avg. NMR with SOPPA, parallel AO-SOPPA)
  Berta Fernandez,          U. of Santiago de Compostela, Spain       (doublet spin, ESR in RESPONS)
  Lara Ferrighi,            Aarhus University,            Denmark     (PCM Cubic response)
  Heike Fliegl,             University of Oslo,           Norway      (CCSD(R12))
  Luca Frediani,            UiT The Arctic U. of Norway,  Norway      (PCM)
  Bin Gao,                  UiT The Arctic U. of Norway,  Norway      (Gen1Int library)
  Christof Haettig,         Ruhr-University Bochum,       Germany     (CC module)
  Kasper Hald,              Aarhus University,            Denmark     (CC module)
  Asger Halkier,            Aarhus University,            Denmark     (CC module)
  Frederik Beyer Hansen,    University of Copenhagen,     Denmark     (Parallel AO-SOPPA)
  Erik D. Hedegaard,        Univ. of Southern Denmark,    Denmark     (Polarizable embedding model, QM/MM)
  Hanne Heiberg,            University of Oslo,           Norway      (geometry analysis, selected one-electron integrals)
  Trygve Helgaker,          University of Oslo,           Norway      (DALTON; ABACUS, ERI, DFT modules, London, and much more)
  Alf Christian Hennum,     University of Oslo,           Norway      (Parity violation)
  Hinne Hettema,            University of Auckland,       New Zealand (quadratic response in RESPONS; SIRIUS supersymmetry)
  Eirik Hjertenaes,         NTNU,                         Norway      (Cholesky decomposition)
  Pi A. B. Haase,           University of Copenhagen,     Denmark     (Triplet AO-SOPPA)
  Maria Francesca Iozzi,    University of Oslo,           Norway      (RPA)
  Brano Jansik              Technical Univ. of Ostrava    Czech Rep.  (DFT cubic response)
  Hans Joergen Aa. Jensen,  Univ. of Southern Denmark,    Denmark     (DALTON; SIRIUS, RESPONS, ABACUS modules, London, and much more)
  Dan Jonsson,              UiT The Arctic U. of Norway,  Norway      (cubic response in RESPONS module)
  Poul Joergensen,          Aarhus University,            Denmark     (RESPONS, ABACUS, and CC modules)
  Maciej Kaminski,          University of Warsaw,         Poland      (CPPh in RESPONS)
  Joanna Kauczor,           Linkoeping University,        Sweden      (Complex polarization propagator (CPP) module)
  Sheela Kirpekar,          Univ. of Southern Denmark,    Denmark     (Mass-velocity & Darwin integrals)
  Wim Klopper,              KIT Karlsruhe,                Germany     (R12 code in CC, SIRIUS, and ABACUS modules)
  Stefan Knecht,            ETH Zurich,                   Switzerland (Parallel CI and MCSCF)
  Rika Kobayashi,           Australian National Univ.,    Australia   (DIIS in CC, London in MCSCF)
  Henrik Koch,              NTNU,                         Norway      (CC module, Cholesky decomposition)
  Jacob Kongsted,           Univ. of Southern Denmark,    Denmark     (Polarizable embedding model, QM/MM)
  Andrea Ligabue,           University of Modena,         Italy       (CTOCD, AOSOPPA)
  Nanna H. List             Univ. of Southern Denmark,    Denmark     (Polarizable embedding model)
  Ola B. Lutnaes,           University of Oslo,           Norway      (DFT Hessian)
  Juan I. Melo,             University of Buenos Aires,   Argentina   (LRESC, Relativistic Effects on NMR Shieldings)
  Kurt V. Mikkelsen,        University of Copenhagen,     Denmark     (MC-SCRF and QM/MM)
  Rolf H. Myhre,            NTNU,                         Norway      (Cholesky, subsystems and ECC2)
  Christian Neiss,          Univ. Erlangen-Nuernberg,     Germany     (CCSD(R12))
  Christian B. Nielsen,     University of Copenhagen,     Denmark     (QM/MM)
  Patrick Norman,           Linkoeping University,        Sweden      (Cubic response and complex frequency response in RESPONS)
  Jeppe Olsen,              Aarhus University,            Denmark     (SIRIUS CI/density modules)
  Jogvan Magnus H. Olsen,   Univ. of Southern Denmark,    Denmark     (Polarizable embedding model, QM/MM)
  Anders Osted,             Copenhagen University,        Denmark     (QM/MM)
  Martin J. Packer,         University of Sheffield,      UK          (SOPPA)
  Filip Pawlowski,          Kazimierz Wielki University,  Poland      (CC3)
  Morten N. Pedersen,       Univ. of Southern Denmark,    Denmark     (Polarizable embedding model)
  Thomas B. Pedersen,       University of Oslo,           Norway      (Cholesky decomposition)
  Patricio F. Provasi,      University of Northeastern,   Argentina   (Analysis of coupling constants in localized orbitals)
  Zilvinas Rinkevicius,     KTH Stockholm,                Sweden      (open-shell DFT, ESR)
  Elias Rudberg,            KTH Stockholm,                Sweden      (DFT grid and basis info)
  Torgeir A. Ruden,         University of Oslo,           Norway      (Numerical derivatives in ABACUS)
  Kenneth Ruud,             UiT The Arctic U. of Norway,  Norway      (DALTON; ABACUS magnetic properties and much more)
  Pawel Salek,              KTH Stockholm,                Sweden      (DALTON; DFT code)
  Claire C. M. Samson       University of Karlsruhe       Germany     (Boys localization, r12 integrals in ERI)
  Alfredo Sanchez de Meras, University of Valencia,       Spain       (CC module, Cholesky decomposition)
  Trond Saue,               Paul Sabatier University,     France      (direct Fock matrix construction)
  Stephan P. A. Sauer,      University of Copenhagen,     Denmark     (SOPPA(CCSD), SOPPA prop., AOSOPPA, vibrational g-factors)
  Bernd Schimmelpfennig,    Forschungszentrum Karlsruhe,  Germany     (AMFI module)
  Kristian Sneskov,         Aarhus University,            Denmark     (Polarizable embedding model, QM/MM)
  Arnfinn H. Steindal,      UiT The Arctic U. of Norway,  Norway      (parallel QM/MM, Polarizable embedding model)
  Casper Steinmann,         Univ. of Southern Denmark,    Denmark     (QFIT, Polarizable embedding model)
  K. O. Sylvester-Hvid,     University of Copenhagen,     Denmark     (MC-SCRF)
  Peter R. Taylor,          VLSCI/Univ. of Melbourne,     Australia   (Symmetry handling ABACUS, integral transformation)
  Andrew M. Teale,          University of Nottingham,     England     (DFT-AC, DFT-D)
  David P. Tew,             University of Bristol,        England     (CCSD(R12))
  Olav Vahtras,             KTH Stockholm,                Sweden      (triplet response, spin-orbit, ESR, TDDFT, open-shell DFT)
  David J. Wilson,          La Trobe University,          Australia   (DFT Hessian and DFT magnetizabilities)
  Hans Agren,               KTH Stockholm,                Sweden      (SIRIUS module, RESPONS, MC-SCRF solvation model)
 --------------------------------------------------------------------------------

     Date and time (Linux)  : Mon Dec  3 17:54:14 2018
     Host name              : n-62-23-25                              

 * Work memory size             :  1280000000 =  9.537 gigabytes.

 * Directories for basis set searches:
   1) /zhome/d7/7/119775/My_Codes/dalton-private/build2016/basis/diffs
   2) /zhome/37/3/129401/NH3NH4/CCSD/AIMD_SAMPLING/nh3_4h2o_nd
   3) /zhome/9a/4/124800/source/dalton/build-mlcc/basis


Compilation information
-----------------------

 Who compiled             | rfaber
 Host                     | hpclogin1
 System                   | Linux-2.6.32-696.1.1.el6.x86_64
 CMake generator          | Unix Makefiles
 Processor                | x86_64
 64-bit integers          | ON
 MPI                      | OFF
 Fortran compiler         | /opt/intel/2016update2/compilers_and_libraries_201
                          | 6.2.181/linux/bin/intel64/ifort
 Fortran compiler version | ifort (IFORT) 16.0.2 20160204
 C compiler               | /opt/intel/2016update2/compilers_and_libraries_201
                          | 6.2.181/linux/bin/intel64/icc
 C compiler version       | icc (ICC) 16.0.2 20160204
 C++ compiler             | /opt/intel/2016update2/compilers_and_libraries_201
                          | 6.2.181/linux/bin/intel64/icpc
 C++ compiler version     | icpc (ICC) 16.0.2 20160204
 Static linking           | OFF
 Last Git revision        | bb4d1599ca5680a9f3980451fc8bbefdba436d59
 Git branch               | mlcc
 Configuration time       | 2017-06-13 16:11:03.928841


   Content of the .dal input file
 ----------------------------------

**DALTON
.RUN WAVE FUNCTIONS
*QMMM
.QMMM
**INTEGRALS
.DIPLEN
**WAVE FUNCTIONS
.CC
*PRINT
!To check the origin of excit
.PRINTL
   0 11
*SCF INP
.THRESH
1.0D-7
*CC INP
.CCSD
.THRLEQ
 1.0D-9
.THRENR
 1.0D-10
.FROIMP
4
0
.PRINT
 1
.MAX IT
 1200
.MAXRED
 1200
.MXLRV
1199
*CCSLV
.CCMM
.MXSLIT
200
.MXINIT
4 5
*CCEXCI
.NCCEXC
 1
.IONISATION
1
1
.CVSEPARA
1
1
*CCLRSD
.DIPOLE
**END OF DALTON INPUT


   Content of the .mol file
 ----------------------------

ATOMBASIS


Atomtypes=5 Charge=0 Nosymm Angstrom
   7.00000    1    Basis=6-311G**
N          0.000000        0.000000        0.000000
   1.00000    3    Basis=6-311G**
H          0.480653       -0.817267        0.422430
H          0.380950        0.831824        0.470143
H         -0.976777       -0.252958        0.136146
   8.00000    4    Basis=6-311G**
O         -0.458509       -1.682183        2.841978
O          0.947669        0.878029       -2.368559
O          1.518869        2.458747        1.308663
O         -2.942803       -0.875062        0.803456
   1.00000    8    Basis=6-311G**
H          0.571839       -1.763590        2.553960
H         -0.733252       -2.537751        3.220490
H          1.606570        1.526546       -2.134464
H          0.500772        0.585245       -1.469833
H          2.363175        2.946800        1.160455
H          1.247689        2.783734        2.174567
H         -3.548880       -0.073822        0.746632
H         -2.377701       -0.847041        1.618146
   0.00000    1    Basis=diffs
X          0.000000        0.000000        0.000000


       *******************************************************************
       *********** Output from DALTON general input processing ***********
       *******************************************************************

 --------------------------------------------------------------------------------
   Overall default print level:    0
   Print level for DALTON.STAT:    1

    HERMIT 1- and 2-electron integral sections will be executed
    "Old" integral transformation used (limited to max 255 basis functions)
    Wave function sections will be executed (SIRIUS module)
 --------------------------------------------------------------------------------


 Changes of defaults for *QMMM  :
 --------------------------------

 +------------------+
 |  WORD: | CHANGE: |
 +------------------+
 |   QMMM |       T |
 +------------------+
 


   ****************************************************************************
   *************** Output of molecule and basis set information ***************
   ****************************************************************************


    The two title cards from your ".mol" input:
    ------------------------------------------------------------------------
 1:                                                                         
 2:                                                                         
    ------------------------------------------------------------------------

  Coordinates are entered in Angstrom and converted to atomic units.
          - Conversion factor : 1 bohr = 0.52917721 A

  Atomic type no.    1
  --------------------
  Nuclear charge:   7.00000
  Number of symmetry independent centers:    1
  Number of basis sets to read;    2
  The basis set is "6-311G**" from the basis set library.
  Basis set file used for this atomic type with Z =   7 :
     "/zhome/9a/4/124800/source/dalton/build-mlcc/basis/6-311G**"

  Info about the basis set file: your basis has no documentation.
  Basis set: 6-311G**                                                                        

  Atomic type no.    2
  --------------------
  Nuclear charge:   1.00000
  Number of symmetry independent centers:    3
  Number of basis sets to read;    2
  The basis set is "6-311G**" from the basis set library.
  Basis set file used for this atomic type with Z =   1 :
     "/zhome/9a/4/124800/source/dalton/build-mlcc/basis/6-311G**"

  Info about the basis set file: your basis has no documentation.
  Basis set: 6-311G**                                                                        

  Atomic type no.    3
  --------------------
  Nuclear charge:   8.00000
  Number of symmetry independent centers:    4
  Number of basis sets to read;    2
  The basis set is "6-311G**" from the basis set library.
  Basis set file used for this atomic type with Z =   8 :
     "/zhome/9a/4/124800/source/dalton/build-mlcc/basis/6-311G**"

  Info about the basis set file: your basis has no documentation.
  Basis set: 6-311G**                                                                        

  Atomic type no.    4
  --------------------
  Nuclear charge:   1.00000
  Number of symmetry independent centers:    8
  Number of basis sets to read;    2
  The basis set is "6-311G**" from the basis set library.
  Basis set file used for this atomic type with Z =   1 :
     "/zhome/9a/4/124800/source/dalton/build-mlcc/basis/6-311G**"

  Info about the basis set file: your basis has no documentation.
  Basis set: 6-311G**                                                                        

  Atomic type no.    5
  --------------------
  Nuclear charge:   0.00000
  Number of symmetry independent centers:    1
  Number of basis sets to read;    2
  The basis set is "diffs" from the basis set library.
  Basis set file used for this atomic type with Z =   0 :
     "/zhome/9a/4/124800/source/dalton/build-mlcc/basis/diffs"

  Info about the basis set file: your basis has no documentation.
  Basis set: diffs                                                                           


                         SYMGRP: Point group information
                         -------------------------------

@    Point group: C1 


                                 Isotopic Masses
                                 ---------------

                           N          14.003074
                           H           1.007825
                           H           1.007825
                           H           1.007825
                           O          15.994915
                           O          15.994915
                           O          15.994915
                           O          15.994915
                           H           1.007825
                           H           1.007825
                           H           1.007825
                           H           1.007825
                           H           1.007825
                           H           1.007825
                           H           1.007825
                           H           1.007825

                       Total mass:    89.068809 amu
                       Natural abundance:  98.514 %

 Center-of-mass coordinates (a.u.):   -0.327591    0.315465    1.067693


  Atoms and basis sets
  --------------------

  Number of atom types :    5
  Total number of atoms:   17

  label    atoms   charge   prim   cont     basis
  ----------------------------------------------------------------------
  N           1    7.0000    31    18      [11s5p1d|4s3p1d]                                   
  H           3    1.0000     8     6      [5s1p|3s1p]                                        
  O           4    8.0000    31    18      [11s5p1d|4s3p1d]                                   
  H           8    1.0000     8     6      [5s1p|3s1p]                                        
  X           1    0.0000     1     1      [1s|1s]                                            
  ----------------------------------------------------------------------
  total:     17   50.0000   244   157
  ----------------------------------------------------------------------
  Spherical harmonic basis used.

  Threshold for neglecting AO integrals:  1.00D-12


  Cartesian Coordinates (a.u.)
  ----------------------------

  Total number of coordinates:   51
  N       :     1  x   0.0000000000    2  y   0.0000000000    3  z   0.0000000000
  H       :     4  x   0.9083025312    5  y  -1.5444108010    6  z   0.7982770070
  H       :     7  x   0.7198911673    8  y   1.5719195442    9  z   0.8884415096
  H       :    10  x  -1.8458410152   11  y  -0.4780213411   12  z   0.2572786530
  O       :    13  x  -0.8664564358   14  y  -3.1788651621   15  z   5.3705600733
  O       :    16  x   1.7908348671   17  y   1.6592343398   18  z  -4.4759278209
  O       :    19  x   2.8702464297   20  y   4.6463584406   21  z   2.4730146599
  O       :    22  x  -5.5610917098   23  y  -1.6536275224   24  z   1.5183117935
  H       :    25  x   1.0806190976   26  y  -3.3327020968   27  z   4.8262849342
  H       :    28  x  -1.3856454606   29  y  -4.7956543634   30  z   6.0858440883
  H       :    31  x   3.0359773006   32  y   2.8847538572   33  z  -4.0335523837
  H       :    34  x   0.9463219311   35  y   1.1059527660   36  z  -2.7775818195
  H       :    37  x   4.4657535354   38  y   5.5686449451   39  z   2.1929421304
  H       :    40  x   2.3577904992   41  y   5.2604948648   42  z   4.1093360704
  H       :    43  x  -6.7064112505   44  y  -0.1395033620   45  z   1.4109299962
  H       :    46  x  -4.4932036971   47  y  -1.6006755066   48  z   3.0578527703
  X       :    49  x   0.0000000000   50  y   0.0000000000   51  z   0.0000000000

  Max    interatomic separation is    7.1182 Angstrom (   13.4515 Bohr)
  between atoms   11 and   10, "H     " and "H     ".

  Min HX interatomic separation is    0.9537 Angstrom (    1.8022 Bohr)

  Min YX interatomic separation is    2.6980 Angstrom (    5.0984 Bohr)


  Bond distances (Angstrom):
  --------------------------

                  atom 1     atom 2       distance
                  ------     ------       --------
  bond distance:  H          N            1.037979
  bond distance:  H          N            1.028634
  bond distance:  H          N            1.018144
  bond distance:  H          O            1.072939
  bond distance:  H          O            0.975065
  bond distance:  H          O            0.953690
  bond distance:  H          O            1.045537
  bond distance:  H          O            0.986415
  bond distance:  H          O            0.963818
  bond distance:  H          O            1.006252
  bond distance:  H          O            0.991890


  Bond angles (degrees):
  ----------------------

                  atom 1     atom 2     atom 3         angle
                  ------     ------     ------         -----
  bond angle:     H          N          H            106.213
  bond angle:     H          N          H            101.199
  bond angle:     H          N          H            119.676
  bond angle:     H          O          H            107.952
  bond angle:     H          O          H            105.947
  bond angle:     H          O          H            102.063
  bond angle:     H          O          H            111.533




 Principal moments of inertia (u*A**2) and principal axes
 --------------------------------------------------------

   IA     256.680909          0.594094    0.591738   -0.544884
   IB     479.757935          0.497569    0.261911    0.826939
   IC     619.494656         -0.632042    0.762397    0.138831


 Rotational constants
 --------------------

               A                   B                   C

           1968.8999           1053.4042            815.7924 MHz
            0.065675            0.035138            0.027212 cm-1


@  Nuclear repulsion energy :  183.861181334387 Hartree

  Number of floating/multiple basis set orbitals :    1


                     .---------------------------------------.
                     | Starting in Integral Section (HERMIT) |
                     `---------------------------------------'



 ***************************************************************************************
 ****************** Output from **INTEGRALS input processing (HERMIT) ******************
 ***************************************************************************************



    *************************************************************************
    ****************** Output from HERMIT input processing ******************
    *************************************************************************


 Default print level:        1

 * Nuclear model: Point charge

 Calculation of one- and two-electron Hamiltonian integrals.

 The following one-electron property integrals are calculated as requested:
          - overlap integrals
          - dipole length integrals

 Center of mass  (bohr):     -0.327590589454      0.315465406929      1.067692875098
 Operator center (bohr):      0.000000000000      0.000000000000      0.000000000000
 Gauge origin    (bohr):      0.000000000000      0.000000000000      0.000000000000
 Dipole origin   (bohr):      0.000000000000      0.000000000000      0.000000000000
 
  *********************************** 
  QMMM electrostatic potential: 
  Multipole order                                    0
  Isotropic polarization  
  *********************************** 
 
  ---------------- 
  QMMM information 
  ---------------- 
 
  MM coordinates in au 
  -------------------- 
     1     11.447088      2.114057      8.362989
     2     10.734242      3.671982      9.036644
     3     11.453751      1.000279      9.955113
     4     -9.690015     11.733020      3.114594
     5     -8.317391     10.707557      3.767645
     6     -9.286449     13.554550      3.059979
     7     -9.037712      7.445530      6.370357
     8     -8.057732      7.137103      7.844395
     9    -10.732059      7.612051      7.103675
    10     -3.192653     -5.757340     -1.169019
    11     -3.881588     -4.117479     -0.521296
    12     -2.997085     -5.546720     -2.958342
    13      5.871723     -2.906578     -3.805421
    14      4.472729     -2.064736     -4.748844
    15      5.512564     -4.794653     -3.687717
    16     -6.737909      2.303680     10.879140
    17     -7.897447      2.964449      9.555837
    18     -5.208081      3.346019     10.690610
    19      5.067533    -11.205598     11.688321
    20      3.729569    -12.356872     11.784716
    21      5.195753    -10.955808      9.870380
    22      9.480471     -7.837649    -10.433117
    23     10.543493     -6.721933    -11.514162
    24      8.492363     -8.840607    -11.660306
    25     -5.508149     -0.688809     -7.212916
    26     -4.767520      0.160502     -8.746533
    27     -5.065519     -2.517213     -7.455372
    28     -3.335777     -6.079699     -6.436324
    29     -1.595227     -6.691477     -6.684139
    30     -4.485960     -7.463762     -6.896540
    31      5.019583     -7.764412     -2.762500
    32      6.625882     -8.542377     -3.303317
    33      3.513626     -8.367700     -3.712957
    34     -2.606977      4.657117     10.171328
    35     -2.126335      6.426617     10.058668
    36     -1.562203      4.255168     11.621674
    37     -9.921519     -1.401676     -3.771701
    38     -8.498176     -1.117274     -4.924670
    39     -9.472241     -0.365704     -2.278843
    40    -10.169875      5.298248     -3.737011
    41    -10.702500      7.066485     -3.533397
    42     -8.977932      5.477186     -5.103521
    43     10.463096      1.179263      3.557126
    44     10.754743      1.350746      5.518051
    45      8.852148      0.414254      3.232762
    46      3.782383     -4.845383     -9.194903
    47      5.340680     -5.382821     -9.937406
    48      2.811801     -4.279975    -10.646335
    49     -3.528170     10.677049      7.853670
    50     -4.154895     10.408373      6.024409
    51     -4.829000     10.374232      9.155096
    52     -8.944363      1.594237      0.363313
    53     -9.378735      3.206712     -0.678716
    54    -10.358273      1.412096      1.609557
    55     -3.345511     -7.594751      7.682288
    56     -4.112080     -6.758900      9.129155
    57     -3.595470     -9.453431      7.821174
    58      5.535509    -11.369401      6.274856
    59      5.536459    -13.186118      5.706701
    60      5.030719    -10.389321      4.731627
    61     10.509207    -10.416909      6.794002
    62     11.616577    -11.206097      5.475319
    63      8.897551    -10.576712      6.167953
    64      4.101968      6.203531      7.537260
    65      3.290890      7.099113      8.866956
    66      4.755443      4.552879      8.143278
    67    -10.376038    -11.409089     -9.291865
    68    -11.429324     -9.861657     -9.494260
    69    -11.667762    -12.516775     -8.530736
    70      8.583038      6.589696      1.390100
    71      9.693505      7.887220      0.486330
    72      9.794488      5.420313      2.083417
    73      4.131962     -3.476866      4.439184
    74      5.068595     -3.346862      6.013961
    75      5.241159     -2.229949      3.410512
    76     -0.672047      9.697957     -7.970381
    77     -2.337295     10.701534     -7.969017
    78     -0.830582      8.329790     -6.750363
    79      0.546915      2.145155     -9.873562
    80      0.129658      0.478908    -10.817837
    81      0.941422      1.453203     -8.089594
    82    -10.352420     -6.236028     -4.801505
    83     -9.065959     -7.204443     -3.972350
    84    -10.328674     -4.513813     -4.026833
    85      9.453245      7.349676      7.860955
    86      7.699290      6.916828      7.564222
    87      9.356295      9.160493      8.219645
    88      6.298588     -0.215812      0.405862
    89      5.009263      1.105677      0.715889
    90      6.023914     -1.014110     -1.358490
    91      5.789645      2.403768     10.708311
    92      6.790255      3.499142     11.962785
    93      4.249792      2.186787     11.749155
    94      1.344342     -8.975317     -6.281418
    95      2.177267     -8.030038     -7.717555
    96      1.042131    -10.745374     -6.813069
    97      9.812286      4.767607     -9.660522
    98     10.277478      3.731236     -8.152819
    99      9.732428      6.477516     -9.024304
   100      9.560011      0.061246     -6.491026
   101      8.113972     -0.884541     -5.825693
   102     11.086740     -0.816222     -5.452996
   103      8.502305      9.834711     -8.780665
   104      7.484058     10.714071    -10.162820
   105      7.270614      9.440732     -7.527030
   106     -0.873679     -9.604359      1.046188
   107      0.786173     -8.970808      1.686913
   108     -1.772297     -8.164169      0.344127
   109      0.267942     -2.592517     10.895212
   110      0.194946     -2.570598      9.025871
   111     -1.303114     -3.587622     11.412030
   112      9.321747     -9.781975     -4.402578
   113     10.790030     -8.541791     -4.632144
   114      8.765279    -10.225374     -6.053552
   115     -2.516490      5.187739      0.601322
   116     -3.089139      3.740267      1.759847
   117     -0.725927      5.509659      1.165171
   118      0.534570      9.102529     10.800762
   119      0.094513      9.575528     12.653882
   120     -0.595594     10.073484      9.657285
   121     -2.299613      5.505902     -4.734063
   122     -1.049905      4.145594     -4.556532
   123     -2.924701      5.687138     -2.970107
   124     -5.419893    -10.776078     -7.549511
   125     -7.127357    -10.856660     -8.331254
   126     -5.826559    -10.782295     -5.650183
   127      5.224896      8.683898     -4.986267
   128      5.564455      7.072355     -4.132113
   129      3.397472      8.571337     -4.992127
   130     -6.545095      5.582330     -7.673719
   131     -5.009358      5.141848     -6.590386
   132     -6.936727      4.088574     -8.670398
   133      1.372342      9.715369     -2.021153
   134      0.397753     11.233067     -1.465949
   135      3.078587     10.204920     -1.519096
   136      6.984401     -2.244152      8.884302
   137      8.674223     -2.754964      8.329756
   138      7.062358     -0.447971      9.472757
   139     11.343049     10.339858     -1.126955
   140     11.941346     11.482535      0.285020
   141     10.120657     11.306073     -2.217932
   142    -11.016213     -0.784070    -10.958520
   143    -12.184298     -0.139802     -9.655576
   144     -9.471056      0.270637    -11.092726
   145      6.792838      3.908154     -3.303595
   146      7.640928      4.438778     -1.710374
   147      7.874366      2.968548     -4.427309
   148     -7.130963      9.215559     11.628900
   149     -6.787974      8.211533     13.059757
   150     -8.576339     10.322884     11.974851
   151     -6.770027     -9.659552     -2.403771
   152     -5.747311     -8.478423     -1.310729
   153     -7.191857    -11.175449     -1.458355
   154     -4.695678     -4.286919     11.262019
   155     -5.416968     -3.362783      9.813917
   156     -6.475037     -4.941808     12.034579
   157     11.665778     -5.192229      8.052321
   158     13.303751     -4.571569      7.496438
   159     11.430783     -6.831581      7.222237
   160      4.064107     -8.489400      2.601278
   161      4.603307     -6.807672      3.158887
   162      4.793598     -8.598324      0.888572
   163     -4.189876      9.570930      2.569975
   164     -3.963457      7.874064      1.766378
   165     -2.578896     10.568734      2.244447
   166     -3.385136      1.992909      5.103532
   167     -2.532082      0.451856      5.564300
   168     -3.026151      3.331793      6.518270
   169     -7.571277     -6.628386      3.879426
   170     -7.060744     -5.374415      2.644736
   171     -6.154466     -6.841918      5.042063
   172     -6.810824     -1.945991      7.011863
   173     -6.478146     -0.159124      7.454259
   174     -7.708159     -1.922861      5.453417
   175     -9.039514     -5.261693    -10.073941
   176     -9.168688     -5.697212     -8.201810
   177     -9.797644     -3.687143    -10.057999
 
  MM charges 
  ---------- 
     1     -0.674440
     2      0.337220
     3      0.337220
     4     -0.674440
     5      0.337220
     6      0.337220
     7     -0.674440
     8      0.337220
     9      0.337220
    10     -0.674440
    11      0.337220
    12      0.337220
    13     -0.674440
    14      0.337220
    15      0.337220
    16     -0.674440
    17      0.337220
    18      0.337220
    19     -0.674440
    20      0.337220
    21      0.337220
    22     -0.674440
    23      0.337220
    24      0.337220
    25     -0.674440
    26      0.337220
    27      0.337220
    28     -0.674440
    29      0.337220
    30      0.337220
    31     -0.674440
    32      0.337220
    33      0.337220
    34     -0.674440
    35      0.337220
    36      0.337220
    37     -0.674440
    38      0.337220
    39      0.337220
    40     -0.674440
    41      0.337220
    42      0.337220
    43     -0.674440
    44      0.337220
    45      0.337220
    46     -0.674440
    47      0.337220
    48      0.337220
    49     -0.674440
    50      0.337220
    51      0.337220
    52     -0.674440
    53      0.337220
    54      0.337220
    55     -0.674440
    56      0.337220
    57      0.337220
    58     -0.674440
    59      0.337220
    60      0.337220
    61     -0.674440
    62      0.337220
    63      0.337220
    64     -0.674440
    65      0.337220
    66      0.337220
    67     -0.674440
    68      0.337220
    69      0.337220
    70     -0.674440
    71      0.337220
    72      0.337220
    73     -0.674440
    74      0.337220
    75      0.337220
    76     -0.674440
    77      0.337220
    78      0.337220
    79     -0.674440
    80      0.337220
    81      0.337220
    82     -0.674440
    83      0.337220
    84      0.337220
    85     -0.674440
    86      0.337220
    87      0.337220
    88     -0.674440
    89      0.337220
    90      0.337220
    91     -0.674440
    92      0.337220
    93      0.337220
    94     -0.674440
    95      0.337220
    96      0.337220
    97     -0.674440
    98      0.337220
    99      0.337220
   100     -0.674440
   101      0.337220
   102      0.337220
   103     -0.674440
   104      0.337220
   105      0.337220
   106     -0.674440
   107      0.337220
   108      0.337220
   109     -0.674440
   110      0.337220
   111      0.337220
   112     -0.674440
   113      0.337220
   114      0.337220
   115     -0.674440
   116      0.337220
   117      0.337220
   118     -0.674440
   119      0.337220
   120      0.337220
   121     -0.674440
   122      0.337220
   123      0.337220
   124     -0.674440
   125      0.337220
   126      0.337220
   127     -0.674440
   128      0.337220
   129      0.337220
   130     -0.674440
   131      0.337220
   132      0.337220
   133     -0.674440
   134      0.337220
   135      0.337220
   136     -0.674440
   137      0.337220
   138      0.337220
   139     -0.674440
   140      0.337220
   141      0.337220
   142     -0.674440
   143      0.337220
   144      0.337220
   145     -0.674440
   146      0.337220
   147      0.337220
   148     -0.674440
   149      0.337220
   150      0.337220
   151     -0.674440
   152      0.337220
   153      0.337220
   154     -0.674440
   155      0.337220
   156      0.337220
   157     -0.674440
   158      0.337220
   159      0.337220
   160     -0.674440
   161      0.337220
   162      0.337220
   163     -0.674440
   164      0.337220
   165      0.337220
   166     -0.674440
   167      0.337220
   168      0.337220
   169     -0.674440
   170      0.337220
   171      0.337220
   172     -0.674440
   173      0.337220
   174      0.337220
   175     -0.674440
   176      0.337220
   177      0.337220
 
  MM isotropic polarizabilities in au 
  ----------------------------------- 
     1      5.739350
     2      2.308390
     3      2.308390
     4      5.739350
     5      2.308390
     6      2.308390
     7      5.739350
     8      2.308390
     9      2.308390
    10      5.739350
    11      2.308390
    12      2.308390
    13      5.739350
    14      2.308390
    15      2.308390
    16      5.739350
    17      2.308390
    18      2.308390
    19      5.739350
    20      2.308390
    21      2.308390
    22      5.739350
    23      2.308390
    24      2.308390
    25      5.739350
    26      2.308390
    27      2.308390
    28      5.739350
    29      2.308390
    30      2.308390
    31      5.739350
    32      2.308390
    33      2.308390
    34      5.739350
    35      2.308390
    36      2.308390
    37      5.739350
    38      2.308390
    39      2.308390
    40      5.739350
    41      2.308390
    42      2.308390
    43      5.739350
    44      2.308390
    45      2.308390
    46      5.739350
    47      2.308390
    48      2.308390
    49      5.739350
    50      2.308390
    51      2.308390
    52      5.739350
    53      2.308390
    54      2.308390
    55      5.739350
    56      2.308390
    57      2.308390
    58      5.739350
    59      2.308390
    60      2.308390
    61      5.739350
    62      2.308390
    63      2.308390
    64      5.739350
    65      2.308390
    66      2.308390
    67      5.739350
    68      2.308390
    69      2.308390
    70      5.739350
    71      2.308390
    72      2.308390
    73      5.739350
    74      2.308390
    75      2.308390
    76      5.739350
    77      2.308390
    78      2.308390
    79      5.739350
    80      2.308390
    81      2.308390
    82      5.739350
    83      2.308390
    84      2.308390
    85      5.739350
    86      2.308390
    87      2.308390
    88      5.739350
    89      2.308390
    90      2.308390
    91      5.739350
    92      2.308390
    93      2.308390
    94      5.739350
    95      2.308390
    96      2.308390
    97      5.739350
    98      2.308390
    99      2.308390
   100      5.739350
   101      2.308390
   102      2.308390
   103      5.739350
   104      2.308390
   105      2.308390
   106      5.739350
   107      2.308390
   108      2.308390
   109      5.739350
   110      2.308390
   111      2.308390
   112      5.739350
   113      2.308390
   114      2.308390
   115      5.739350
   116      2.308390
   117      2.308390
   118      5.739350
   119      2.308390
   120      2.308390
   121      5.739350
   122      2.308390
   123      2.308390
   124      5.739350
   125      2.308390
   126      2.308390
   127      5.739350
   128      2.308390
   129      2.308390
   130      5.739350
   131      2.308390
   132      2.308390
   133      5.739350
   134      2.308390
   135      2.308390
   136      5.739350
   137      2.308390
   138      2.308390
   139      5.739350
   140      2.308390
   141      2.308390
   142      5.739350
   143      2.308390
   144      2.308390
   145      5.739350
   146      2.308390
   147      2.308390
   148      5.739350
   149      2.308390
   150      2.308390
   151      5.739350
   152      2.308390
   153      2.308390
   154      5.739350
   155      2.308390
   156      2.308390
   157      5.739350
   158      2.308390
   159      2.308390
   160      5.739350
   161      2.308390
   162      2.308390
   163      5.739350
   164      2.308390
   165      2.308390
   166      5.739350
   167      2.308390
   168      2.308390
   169      5.739350
   170      2.308390
   171      2.308390
   172      5.739350
   173      2.308390
   174      2.308390
   175      5.739350
   176      2.308390
   177      2.308390


     ************************************************************************
     ************************** Output from HERINT **************************
     ************************************************************************



                      Nuclear contribution to dipole moments
                      --------------------------------------

                 au               Debye          C m (/(10**-30)

      x    -15.04818015       -38.24865634      -127.58378444
      y     16.28559927        41.39386182       138.07506066
      z     55.90372260       142.09308051       473.97149835



 Threshold for neglecting two-electron integrals:  1.00D-12
 HERMIT - Number of two-electron integrals written:    30012775 ( 39.0% )
 HERMIT - Megabytes written:                            343.665

  Time used in TWOINT     is       5.93 seconds
  Total CPU  time used in HERMIT:   6.10 seconds
  Total wall time used in HERMIT:  13.12 seconds


                        .----------------------------------.
                        | End of Integral Section (HERMIT) |
                        `----------------------------------'



                   .--------------------------------------------.
                   | Starting in Wave Function Section (SIRIUS) |
                   `--------------------------------------------'

NCCEXCI for singlet:    1
 CCSD_INPUT: core-val requested
 Requested number of virtual orbs per sym
                     1
 Indices of requested virtual orbs
                     1
 CCSD_INPUT: core-val requested
 Requested number of core orbs per sym
                     1
 Indices of requested core orbs
                     1

 *** Output from Huckel module :

     Using EWMO model:          T
     Using EHT  model:          F
     Number of Huckel orbitals each symmetry:   36

 EWMO - Energy Weighted Maximum Overlap - is a Huckel type method,
        which normally is better than Extended Huckel Theory.
 Reference: Linderberg and Ohrn, Propagators in Quantum Chemistry (Wiley, 1973)

 Huckel EWMO eigenvalues for symmetry :  1
          -20.684731     -20.684510     -20.684401     -20.683952     -15.673762
           -1.725830      -1.614124      -1.596829      -1.552050      -1.443845
           -0.827515      -0.808335      -0.781533      -0.773957      -0.764736
           -0.708501      -0.692392      -0.689261      -0.666706      -0.645667
           -0.616809      -0.614264      -0.608313      -0.591365      -0.504524
           -0.270578      -0.242444      -0.238386      -0.220477      -0.186118
           -0.180205      -0.175925      -0.174027      -0.158516      -0.153418
           -0.137794

 **********************************************************************
 *SIRIUS* a direct, restricted step, second order MCSCF program       *
 **********************************************************************

 
     Date and time (Linux)  : Mon Dec  3 17:54:29 2018
     Host name              : n-62-23-25                              

 Title lines from ".mol" input file:
                                                                             
                                                                             

 Print level on unit LUPRI =   2 is   0
 Print level on unit LUW4  =   2 is  11

@    (Integral direct) CC calculation.

@    This is a combination run starting with
@              a restricted, closed shell Hartree-Fock calculation


 Initial molecular orbitals are obtained according to
 ".MOSTART EWMO  " input option

@    QM part is embedded in an environment :

@         Model: QMMM

     Wave function specification
     ============================

     For the specification of the Coupled Cluster: see later.

@    Wave function type        --- CC ---
@    Number of closed shell electrons          50
@    Number of electrons in active shells       0
@    Total charge of the molecule               0

@    Spin multiplicity and 2 M_S                1         0
@    Total number of symmetries                 1 (point group: C1 )
@    Reference state symmetry                   1 (irrep name : A  )

     Orbital specifications
     ======================
@    Abelian symmetry species          All |    1
@                                          |  A  
                                       --- |  ---
@    Occupied SCF orbitals              25 |   25
@    Secondary orbitals                132 |  132
@    Total number of orbitals          157 |  157
@    Number of basis functions         157 |  157

     Optimization information
     ========================
@    Number of configurations                 1
@    Number of orbital rotations           3300
     ------------------------------------------
@    Total number of variables             3301

     Maximum number of Fock   iterations      0
     Maximum number of DIIS   iterations     60
     Maximum number of QC-SCF iterations     60
     Threshold for SCF convergence     1.00D-07


 Changes of defaults for CC:
 ---------------------------


 -Implicit frozen core calculation
 -Excitation energies calculated
 -One-photon absorption strengths will be calculated
 -Oscillator strengths calculated
  
* Read MO coefficients from SIRIUS.RST with label "NEWORB  " and header info:  3Dec18  REORTHO 


 ***********************************************
 ***** DIIS acceleration of SCF iterations *****
 ***********************************************

 C1-DIIS algorithm; max error vectors =    8
 -----------------------------------------------------------------------------

 *** DIIS iteration number    1
 RDSUPM called. NFMAT, ISYMDM(1:NFMAT)                     1
                     1

Calculating AOSUPINT
     (Precalculated two-electron integrals are transformed to P-supermatrix elements.
      Threshold for discarding integrals :  1.00D-12 )
  CPU  time used in FORMSUP    is   2.76 seconds
  WALL time used in FORMSUP    is  30.42 seconds

 ITDIIS, energy, error norm, change in energy, scr.thr., difden:
@ DIIS iter.   1    -359.874175304        3.79633D+00   -3.60D+02  -20    F

 (DIIS_RED) Control Parameters C2DIIS =         F NEVC =    1


 (DIIS_RED) B matrix:

               Column   1
       1      14.41210354
    ==== End of matrix output ====

 DIIS C vector; C2DIIS = F, LAMBDA = -1.44D+01
    1.000000
* Read MO coefficients from SIRIUS.RST with label "NEWORB  " and header info:  3Dec18  DIIS   1
      Virial theorem: -V/T =      1.997869
@      MULPOP N      -0.32; H       0.17; H       0.15; H       0.16; O      -0.61; O      -0.88; O      -0.59; O      -0.65; H       0.32; H       0.32; 
@             H       0.32; H       0.33; H       0.31; H       0.32; H       0.33; H       0.33; 
   1  Level shift: doubly occupied orbital energies shifted by -2.00D-01

 DIIS Fock eigenvalues in symmetry 1
      -20.75787      -20.70392      -20.70187      -20.49375      -16.02187
       -1.58511       -1.53316       -1.51319       -1.46901       -1.44161
       -0.99460       -0.96089       -0.94902       -0.92269       -0.89564
       -0.87790       -0.82586       -0.78358       -0.78205       -0.76759
       -0.76009       -0.74175       -0.73262       -0.67632       -0.64082
        0.00000        0.08970        0.13218        0.17432        0.18396
        0.20804        0.23738        0.25073        0.27485        0.28795
        0.31349        0.34353        0.38549        0.42142        0.48331
        0.52383        0.53423        0.54542        0.56065        0.56450
        0.57664        0.61693        0.63389        0.80449        0.85213
        0.89018        0.92854        0.95749        0.97052        1.01801
        1.02255        1.04253        1.05332        1.08061        1.09410
        1.09934        1.11957        1.17397        1.20765        1.23815
        1.28572        1.32290        1.38317        1.39743        1.43770
        1.44761        1.45030        1.48456        1.49220        1.53021
        1.56447        1.58019        1.61219        1.66056        1.66876
        1.70115        1.70613        1.71704        1.77972        1.81305
        1.84400        1.85463        1.87338        1.96844        1.99072
        2.06181        2.14402        2.15645        2.17878        2.22186
        2.28600        2.30137        2.30266        2.32868        2.35399
        2.42317        2.51366        2.54085        2.59554        2.63437
        2.64573        2.67321        2.73505        2.74816        2.76506
        2.81044        2.83559        2.90311        2.92114        3.04031
        3.22584        3.32563        3.37651        3.39908        3.41181
        3.45345        3.49102        3.49606        3.51397        3.59289
        3.59863        3.61501        3.63634        3.73399        3.93927
        3.96549        4.01086        4.03857        4.15182        4.17344
        4.18996        4.24455        4.47988        4.89878        5.09072
        5.26992        5.34404        5.43772        5.46371        5.68413
        5.71138        5.81648        5.86123        6.03881        6.05289
        6.10617        6.29864       36.74548       51.52793       51.53925
       51.56671       51.81045
 Time used in FCKEIG, thr_jaco:   4.10D-02  4.60D-02  1.65D-04
 CPU and wall times used in FCKEIG, THR_FCKEIG:   4.10D-02  4.60D-02  3.80D-02
 -----------------------------------------------------------------------------

 *** DIIS iteration number    2
 RDSUPM called. NFMAT, ISYMDM(1:NFMAT)                     1
                     1

 ITDIIS, energy, error norm, change in energy, scr.thr., difden:
@ DIIS iter.   2    -360.659894465        9.64603D-01   -7.86D-01  -20    F

 (DIIS_RED) Control Parameters C2DIIS =         F NEVC =    2


 (DIIS_RED) B matrix:

               Column   1     Column   2
       1      14.41210354
       2       0.80775175     0.93045973
    ==== End of matrix output ====

 DIIS C vector; C2DIIS = F, LAMBDA = -9.29D-01
    0.008939    0.991061
* Read MO coefficients from SIRIUS.RST with label "NEWORB  " and header info:  3Dec18  DIIS   2
      Virial theorem: -V/T =      2.004590
@      MULPOP N      -0.67; H       0.24; H       0.22; H       0.23; O      -0.63; O      -0.65; O      -0.53; O      -0.60; H       0.35; H       0.31; 
@             H       0.24; H       0.31; H       0.30; H       0.27; H       0.35; H       0.27; 
   2  Level shift: doubly occupied orbital energies shifted by -1.00D-01

 DIIS Fock eigenvalues in symmetry 1
      -20.72670      -20.69435      -20.68877      -20.66497      -15.54198
       -1.46615       -1.43646       -1.43377       -1.40610       -1.21950
       -0.82533       -0.81072       -0.80062       -0.77163       -0.76027
       -0.71217       -0.69965       -0.68803       -0.68440       -0.66128
       -0.65033       -0.62784       -0.62475       -0.61038       -0.51898
        0.00000        0.13439        0.16891        0.20350        0.21079
        0.23587        0.25659        0.29260        0.30254        0.31386
        0.34608        0.36973        0.45474        0.48499        0.52965
        0.56675        0.56790        0.57817        0.59934        0.60566
        0.61580        0.64331        0.68139        0.89679        0.94413
        0.94873        0.95458        0.98287        0.98829        1.01135
        1.04602        1.05790        1.07755        1.11049        1.11943
        1.12748        1.15130        1.16169        1.25502        1.30689
        1.33244        1.38867        1.41586        1.44541        1.47038
        1.49633        1.50600        1.53335        1.54262        1.56691
        1.61046        1.62712        1.65297        1.67784        1.72267
        1.75074        1.75370        1.78225        1.85168        1.87001
        1.90830        1.91078        1.95793        2.04340        2.05459
        2.17592        2.20141        2.21021        2.25775        2.28204
        2.34678        2.35055        2.35990        2.37877        2.45346
        2.50224        2.58153        2.60863        2.65428        2.68770
        2.70994        2.75064        2.79608        2.81159        2.84894
        2.87494        2.95321        3.02145        3.06325        3.19635
        3.38961        3.39821        3.41620        3.43834        3.44344
        3.48496        3.50638        3.51397        3.51780        3.53129
        3.61411        3.62447        3.65286        3.67346        3.96791
        3.97293        3.98638        4.04948        4.16303        4.18734
        4.20481        4.22096        4.62545        5.12945        5.28000
        5.29228        5.29981        5.33986        5.43687        5.67259
        5.69622        5.71429        5.83767        6.04944        6.08208
        6.10427        6.16523       37.11844       51.47317       51.48415
       51.48919       51.49524
 Time used in FCKEIG, thr_jaco:   2.80D-02  3.80D-02  4.20D-05
 CPU and wall times used in FCKEIG, THR_FCKEIG:   2.80D-02  3.80D-02  9.65D-03
 -----------------------------------------------------------------------------

 *** DIIS iteration number    3
 RDSUPM called. NFMAT, ISYMDM(1:NFMAT)                     1
                     1

 ITDIIS, energy, error norm, change in energy, scr.thr., difden:
@ DIIS iter.   3    -360.721028163        3.65476D-01   -6.11D-02  -20    F

 (DIIS_RED) Control Parameters C2DIIS =         F NEVC =    3


 (DIIS_RED) B matrix:

               Column   1     Column   2     Column   3
       1      14.41210354
       2       0.80775175     0.93045973
       3       0.71479384     0.03603138     0.13357266
    ==== End of matrix output ====

 DIIS C vector; C2DIIS = F, LAMBDA = -9.65D-02
   -0.045870    0.107140    0.938730
* Read MO coefficients from SIRIUS.RST with label "NEWORB  " and header info:  3Dec18  DIIS   3
      Virial theorem: -V/T =      2.002023
@      MULPOP N      -0.60; H       0.21; H       0.20; H       0.21; O      -0.69; O      -0.74; O      -0.58; O      -0.66; H       0.38; H       0.33; 
@             H       0.29; H       0.36; H       0.32; H       0.29; H       0.38; H       0.30; 
   3  Level shift: doubly occupied orbital energies shifted by -5.00D-02

 DIIS Fock eigenvalues in symmetry 1
      -20.61695      -20.59102      -20.57741      -20.52395      -15.62385
       -1.40526       -1.36723       -1.34075       -1.33389       -1.20347
       -0.76238       -0.74438       -0.73003       -0.70835       -0.70479
       -0.67226       -0.64587       -0.61545       -0.59712       -0.59310
       -0.58025       -0.55261       -0.53643       -0.51692       -0.48447
        0.00000        0.13844        0.17465        0.20889        0.21519
        0.23811        0.26098        0.29460        0.30807        0.31713
        0.34908        0.37513        0.45413        0.48850        0.53939
        0.57452        0.57813        0.59081        0.60742        0.61432
        0.62442        0.65826        0.68519        0.89680        0.93975
        0.95785        0.96852        1.00166        1.01157        1.01980
        1.05235        1.06970        1.08972        1.12496        1.13339
        1.13804        1.16286        1.18313        1.25684        1.31559
        1.33694        1.38994        1.43206        1.45648        1.48384
        1.50959        1.51609        1.54235        1.55400        1.58177
        1.62162        1.63967        1.67254        1.68846        1.73524
        1.76280        1.76638        1.78736        1.85767        1.87954
        1.91748        1.92127        1.96125        2.04791        2.06174
        2.16795        2.21239        2.22222        2.27062        2.28098
        2.36129        2.37410        2.37464        2.39199        2.45588
        2.50974        2.59119        2.61941        2.66591        2.69890
        2.72117        2.75907        2.80475        2.82016        2.85436
        2.88531        2.93741        3.02152        3.04339        3.17335
        3.37798        3.42035        3.43023        3.46141        3.48460
        3.49483        3.50314        3.53311        3.53883        3.58657
        3.63773        3.64706        3.69149        3.71216        3.98900
        4.00770        4.01737        4.07524        4.19100        4.21826
        4.24039        4.25009        4.58717        5.07825        5.26155
        5.30230        5.36788        5.38461        5.45963        5.70402
        5.73012        5.78875        5.85806        6.07698        6.10367
        6.13784        6.24832       36.99068       51.51462       51.52127
       51.53477       51.63528
 Time used in FCKEIG, thr_jaco:   2.30D-02  3.00D-02  1.59D-05
 CPU and wall times used in FCKEIG, THR_FCKEIG:   2.30D-02  3.00D-02  3.65D-03
 -----------------------------------------------------------------------------

 *** DIIS iteration number    4
 RDSUPM called. NFMAT, ISYMDM(1:NFMAT)                     1
                     1

 ITDIIS, energy, error norm, change in energy, scr.thr., difden:
@ DIIS iter.   4    -360.730268341        1.11265D-01   -9.24D-03  -20    F

 (DIIS_RED) Control Parameters C2DIIS =         F NEVC =    4


 (DIIS_RED) B matrix:

               Column   1     Column   2     Column   3     Column   4
       1      14.41210354
       2       0.80775175     0.93045973
       3       0.71479384     0.03603138     0.13357266
       4       0.01358550     0.08561804    -0.00521212     0.01238000
    ==== End of matrix output ====

 DIIS C vector; C2DIIS = F, LAMBDA = -4.06D-03
   -0.000303   -0.090681    0.095337    0.995647
* Read MO coefficients from SIRIUS.RST with label "NEWORB  " and header info:  3Dec18  DIIS   4
      Virial theorem: -V/T =      2.002992
@      MULPOP N      -0.67; H       0.23; H       0.21; H       0.23; O      -0.71; O      -0.72; O      -0.59; O      -0.68; H       0.39; H       0.34; 
@             H       0.29; H       0.36; H       0.33; H       0.29; H       0.39; H       0.30; 
   4  Level shift: doubly occupied orbital energies shifted by -2.50D-02

 DIIS Fock eigenvalues in symmetry 1
      -20.59855      -20.57574      -20.56013      -20.53693      -15.57037
       -1.38375       -1.34564       -1.32083       -1.31909       -1.16868
       -0.73997       -0.72065       -0.70338       -0.68460       -0.68318
       -0.63959       -0.61997       -0.59127       -0.57811       -0.56958
       -0.55476       -0.52655       -0.51078       -0.50032       -0.45139
        0.00000        0.13850        0.17421        0.20802        0.21499
        0.23847        0.26002        0.29633        0.30883        0.31810
        0.35041        0.37705        0.45906        0.49206        0.54008
        0.57452        0.57839        0.59052        0.60619        0.61344
        0.62404        0.65596        0.68727        0.90162        0.94540
        0.96066        0.96941        1.00147        1.01279        1.01812
        1.05341        1.06917        1.08977        1.12493        1.13181
        1.13795        1.16301        1.17868        1.25918        1.31645
        1.33946        1.39377        1.43188        1.45537        1.48322
        1.50897        1.51336        1.54319        1.55231        1.58060
        1.62019        1.63943        1.67029        1.68640        1.73512
        1.76150        1.76554        1.79120        1.85935        1.87899
        1.91600        1.92045        1.96534        2.05124        2.06427
        2.17472        2.20964        2.22018        2.27104        2.28448
        2.35988        2.36981        2.37193        2.38861        2.46034
        2.51319        2.58856        2.62147        2.66447        2.69950
        2.72108        2.76119        2.80390        2.81808        2.85525
        2.88645        2.94548        3.02735        3.05291        3.18303
        3.38854        3.41873        3.43078        3.45972        3.47683
        3.50127        3.50344        3.53118        3.53698        3.57525
        3.63628        3.64536        3.68975        3.70145        3.98692
        4.00532        4.00970        4.07316        4.18916        4.21570
        4.23874        4.24184        4.59831        5.09338        5.27445
        5.29921        5.36394        5.36478        5.45731        5.70038
        5.72622        5.77205        5.85521        6.07286        6.09976
        6.13314        6.23015       37.01876       51.50662       51.51480
       51.52597       51.59800
 Time used in FCKEIG, thr_jaco:   2.30D-02  3.20D-02  4.84D-06
 CPU and wall times used in FCKEIG, THR_FCKEIG:   2.30D-02  3.20D-02  1.11D-03
 -----------------------------------------------------------------------------

 *** DIIS iteration number    5
 RDSUPM called. NFMAT, ISYMDM(1:NFMAT)                     1
                     1

 ITDIIS, energy, error norm, change in energy, scr.thr., difden:
@ DIIS iter.   5    -360.731428355        2.44350D-02   -1.16D-03  -20    F

 (DIIS_RED) Control Parameters C2DIIS =         F NEVC =    5


 (DIIS_RED) B matrix:

               Column   1     Column   2     Column   3     Column   4     Column   5
       1      14.41210354
       2       0.80775175     0.93045973
       3       0.71479384     0.03603138     0.13357266
       4       0.01358550     0.08561804    -0.00521212     0.01238000
       5       0.01371976     0.00685168     0.00491372     0.00111277     0.00059707
    ==== End of matrix output ====

 DIIS C vector; C2DIIS = F, LAMBDA = -3.31D-04
    0.001514    0.006198   -0.057248   -0.149643    1.199179
* Read MO coefficients from SIRIUS.RST with label "NEWORB  " and header info:  3Dec18  DIIS   5
      Virial theorem: -V/T =      2.002634
@      MULPOP N      -0.67; H       0.23; H       0.21; H       0.23; O      -0.72; O      -0.74; O      -0.60; O      -0.69; H       0.40; H       0.35; 
@             H       0.30; H       0.37; H       0.33; H       0.30; H       0.40; H       0.30; 

 DIIS Fock eigenvalues in symmetry 1
      -20.57263      -20.54875      -20.53411      -20.50590      -15.54054
       -1.35848       -1.31984       -1.29378       -1.29355       -1.14225
       -0.71509       -0.69551       -0.67750       -0.65879       -0.65819
       -0.61361       -0.59477       -0.56578       -0.55123       -0.54466
       -0.52870       -0.49975       -0.48448       -0.47239       -0.42447
        0.00000        0.13844        0.17409        0.20804        0.21489
        0.23843        0.25995        0.29656        0.30891        0.31822
        0.35054        0.37755        0.45957        0.49246        0.54022
        0.57440        0.57849        0.59077        0.60592        0.61323
        0.62413        0.65630        0.68759        0.90279        0.94645
        0.96143        0.97014        1.00243        1.01371        1.01952
        1.05453        1.06939        1.09017        1.12532        1.13189
        1.13820        1.16355        1.17942        1.25973        1.31682
        1.33995        1.39428        1.43273        1.45542        1.48357
        1.50899        1.51285        1.54348        1.55191        1.58097
        1.61981        1.63951        1.67095        1.68627        1.73531
        1.76107        1.76558        1.79158        1.85944        1.87867
        1.91556        1.92011        1.96586        2.05173        2.06469
        2.17546        2.20907        2.21961        2.27093        2.28496
        2.35970        2.37032        2.37163        2.38830        2.46121
        2.51386        2.58796        2.62167        2.66404        2.69959
        2.72083        2.76130        2.80336        2.81739        2.85486
        2.88629        2.94662        3.02795        3.05422        3.18432
        3.39003        3.41910        3.43178        3.45991        3.47913
        3.50135        3.50502        3.53181        3.53726        3.57749
        3.63694        3.64568        3.68982        3.70363        3.98703
        4.00566        4.01179        4.07380        4.18993        4.21627
        4.23886        4.24393        4.60080        5.09567        5.27659
        5.29984        5.36507        5.36818        5.45877        5.70132
        5.72701        5.77521        5.85565        6.07312        6.09991
        6.13401        6.23321       37.02348       51.50789       51.51573
       51.52763       51.60394
 Time used in FCKEIG, thr_jaco:   2.20D-02  4.10D-02  1.06D-06
 CPU and wall times used in FCKEIG, THR_FCKEIG:   2.20D-02  4.10D-02  2.44D-04
 -----------------------------------------------------------------------------

 *** DIIS iteration number    6
 RDSUPM called. NFMAT, ISYMDM(1:NFMAT)                     1
                     1

 ITDIIS, energy, error norm, change in energy, scr.thr., difden:
@ DIIS iter.   6    -360.731523065        7.99244D-03   -9.47D-05  -20    F

 (DIIS_RED) Control Parameters C2DIIS =         F NEVC =    6


 (DIIS_RED) B matrix:

               Column   1     Column   2     Column   3     Column   4     Column   5     Column   6
       1      14.41210354
       2       0.80775175     0.93045973
       3       0.71479384     0.03603138     0.13357266
       4       0.01358550     0.08561804    -0.00521212     0.01238000
       5       0.01371976     0.00685168     0.00491372     0.00111277     0.00059707
       6      -0.00224394    -0.00039245     0.00056816     0.00022524     0.00007613     0.00006388
    ==== End of matrix output ====

 DIIS C vector; C2DIIS = F, LAMBDA = -3.71D-05
    0.000542    0.007902   -0.018142   -0.091259    0.158156    0.942801
* Read MO coefficients from SIRIUS.RST with label "NEWORB  " and header info:  3Dec18  DIIS   6
      Virial theorem: -V/T =      2.002764
@      MULPOP N      -0.67; H       0.23; H       0.21; H       0.23; O      -0.72; O      -0.74; O      -0.60; O      -0.69; H       0.40; H       0.35; 
@             H       0.30; H       0.37; H       0.33; H       0.30; H       0.40; H       0.31; 

 DIIS Fock eigenvalues in symmetry 1
      -20.57299      -20.54947      -20.53447      -20.50792      -15.54412
       -1.35854       -1.32000       -1.29409       -1.29380       -1.14336
       -0.71525       -0.69590       -0.67822       -0.65941       -0.65852
       -0.61441       -0.59527       -0.56609       -0.55184       -0.54496
       -0.52863       -0.49973       -0.48438       -0.47274       -0.42540
        0.00000        0.13833        0.17398        0.20795        0.21476
        0.23830        0.25985        0.29640        0.30881        0.31808
        0.35038        0.37739        0.45922        0.49214        0.54000
        0.57424        0.57837        0.59058        0.60577        0.61306
        0.62390        0.65612        0.68731        0.90222        0.94584
        0.96118        0.97012        1.00219        1.01345        1.01914
        1.05412        1.06923        1.09004        1.12514        1.13170
        1.13798        1.16333        1.17910        1.25936        1.31660
        1.33965        1.39390        1.43239        1.45520        1.48340
        1.50877        1.51264        1.54317        1.55167        1.58075
        1.61959        1.63928        1.67068        1.68606        1.73507
        1.76085        1.76537        1.79125        1.85913        1.87843
        1.91535        1.91991        1.96544        2.05134        2.06441
        2.17481        2.20884        2.21934        2.27061        2.28438
        2.35943        2.36997        2.37138        2.38807        2.46067
        2.51339        2.58774        2.62143        2.66378        2.69937
        2.72058        2.76101        2.80308        2.81714        2.85447
        2.88609        2.94570        3.02743        3.05316        3.18329
        3.38889        3.41895        3.43132        3.45978        3.47849
        3.50119        3.50382        3.53156        3.53708        3.57688
        3.63670        3.64551        3.68966        3.70305        3.98686
        4.00545        4.01107        4.07352        4.18967        4.21602
        4.23872        4.24323        4.59909        5.09389        5.27501
        5.29967        5.36488        5.36716        5.45827        5.70097
        5.72671        5.77420        5.85539        6.07287        6.09967
        6.13360        6.23219       37.01998       51.50744       51.51537
       51.52703       51.60195
 Time used in FCKEIG, thr_jaco:   2.10D-02  3.90D-02  3.48D-07
 CPU and wall times used in FCKEIG, THR_FCKEIG:   2.10D-02  3.90D-02  7.99D-05
 -----------------------------------------------------------------------------

 *** DIIS iteration number    7
 RDSUPM called. NFMAT, ISYMDM(1:NFMAT)                     1
                     1

 ITDIIS, energy, error norm, change in energy, scr.thr., difden:
@ DIIS iter.   7    -360.731529978        2.52326D-03   -6.91D-06  -20    F

 (DIIS_RED) Control Parameters C2DIIS =         F NEVC =    7


 (DIIS_RED) B matrix:

               Column   1     Column   2     Column   3     Column   4     Column   5     Column   6
       1      14.41210354
       2       0.80775175     0.93045973
       3       0.71479384     0.03603138     0.13357266
       4       0.01358550     0.08561804    -0.00521212     0.01238000
       5       0.01371976     0.00685168     0.00491372     0.00111277     0.00059707
       6      -0.00224394    -0.00039245     0.00056816     0.00022524     0.00007613     0.00006388
       7       0.00082178     0.00000127     0.00008203     0.00000291     0.00003703     0.00000021

               Column   7
       7       0.00000637
    ==== End of matrix output ====

 DIIS C vector; C2DIIS = F, LAMBDA = -1.40D-06
   -0.000251   -0.001423    0.008160    0.027875   -0.166785    0.028674    1.103750
* Read MO coefficients from SIRIUS.RST with label "NEWORB  " and header info:  3Dec18  DIIS   7
      Virial theorem: -V/T =      2.002732
@      MULPOP N      -0.67; H       0.23; H       0.21; H       0.23; O      -0.72; O      -0.74; O      -0.60; O      -0.69; H       0.40; H       0.35; 
@             H       0.30; H       0.37; H       0.33; H       0.30; H       0.40; H       0.31; 

 DIIS Fock eigenvalues in symmetry 1
      -20.57297      -20.54930      -20.53443      -20.50725      -15.54339
       -1.35850       -1.31992       -1.29384       -1.29369       -1.14312
       -0.71524       -0.69588       -0.67805       -0.65927       -0.65849
       -0.61427       -0.59525       -0.56610       -0.55161       -0.54502
       -0.52857       -0.49957       -0.48429       -0.47240       -0.42513
        0.00000        0.13836        0.17399        0.20800        0.21476
        0.23833        0.25988        0.29644        0.30882        0.31810
        0.35040        0.37748        0.45932        0.49223        0.54006
        0.57425        0.57841        0.59065        0.60576        0.61306
        0.62396        0.65621        0.68738        0.90237        0.94600
        0.96125        0.97016        1.00228        1.01355        1.01932
        1.05427        1.06927        1.09010        1.12520        1.13173
        1.13802        1.16340        1.17923        1.25946        1.31666
        1.33974        1.39398        1.43254        1.45524        1.48346
        1.50879        1.51262        1.54325        1.55165        1.58087
        1.61957        1.63930        1.67082        1.68610        1.73514
        1.76083        1.76543        1.79131        1.85919        1.87843
        1.91536        1.91990        1.96554        2.05145        2.06451
        2.17494        2.20883        2.21929        2.27063        2.28448
        2.35943        2.37009        2.37138        2.38807        2.46080
        2.51352        2.58772        2.62152        2.66377        2.69942
        2.72057        2.76103        2.80306        2.81712        2.85447
        2.88620        2.94590        3.02752        3.05342        3.18350
        3.38913        3.41897        3.43144        3.45980        3.47880
        3.50122        3.50408        3.53163        3.53711        3.57719
        3.63677        3.64555        3.68970        3.70336        3.98689
        4.00549        4.01137        4.07359        4.18976        4.21610
        4.23876        4.24353        4.59950        5.09424        5.27534
        5.29970        5.36494        5.36759        5.45840        5.70105
        5.72677        5.77460        5.85543        6.07289        6.09969
        6.13369        6.23260       37.02069       51.50751       51.51539
       51.52715       51.60261
 Time used in FCKEIG, thr_jaco:   2.20D-02  4.30D-02  1.10D-07
 CPU and wall times used in FCKEIG, THR_FCKEIG:   2.20D-02  4.30D-02  2.52D-05
 -----------------------------------------------------------------------------

 *** DIIS iteration number    8
 RDSUPM called. NFMAT, ISYMDM(1:NFMAT)                     1
                     1

 ITDIIS, energy, error norm, change in energy, scr.thr., difden:
@ DIIS iter.   8    -360.731530662        3.85712D-04   -6.84D-07  -20    F

 (DIIS_RED) Control Parameters C2DIIS =         F NEVC =    8


 (DIIS_RED) B matrix:

               Column   1     Column   2     Column   3     Column   4     Column   5     Column   6
       1      14.41210354
       2       0.80775175     0.93045973
       3       0.71479384     0.03603138     0.13357266
       4       0.01358550     0.08561804    -0.00521212     0.01238000
       5       0.01371976     0.00685168     0.00491372     0.00111277     0.00059707
       6      -0.00224394    -0.00039245     0.00056816     0.00022524     0.00007613     0.00006388
       7       0.00082178     0.00000127     0.00008203     0.00000291     0.00003703     0.00000021
       8       0.00001716    -0.00000286    -0.00000240     0.00000363     0.00000101     0.00000157

               Column   7     Column   8
       7       0.00000637
       8       0.00000031     0.00000015
    ==== End of matrix output ====

 DIIS C vector; C2DIIS = F, LAMBDA = -7.55D-08
    0.000023    0.000075   -0.000933   -0.002925    0.026876   -0.040090   -0.192294    1.209269
* Read MO coefficients from SIRIUS.RST with label "NEWORB  " and header info:  3Dec18  DIIS   8
      Virial theorem: -V/T =      2.002749
@      MULPOP N      -0.67; H       0.23; H       0.21; H       0.23; O      -0.72; O      -0.74; O      -0.60; O      -0.69; H       0.40; H       0.35; 
@             H       0.30; H       0.37; H       0.33; H       0.30; H       0.40; H       0.31; 

 DIIS Fock eigenvalues in symmetry 1
      -20.57294      -20.54933      -20.53443      -20.50728      -15.54344
       -1.35848       -1.31993       -1.29384       -1.29370       -1.14313
       -0.71522       -0.69589       -0.67806       -0.65928       -0.65848
       -0.61429       -0.59526       -0.56614       -0.55163       -0.54505
       -0.52856       -0.49956       -0.48428       -0.47241       -0.42515
        0.00000        0.13835        0.17398        0.20800        0.21475
        0.23833        0.25988        0.29643        0.30881        0.31810
        0.35040        0.37748        0.45931        0.49222        0.54005
        0.57425        0.57840        0.59064        0.60576        0.61305
        0.62395        0.65621        0.68737        0.90236        0.94598
        0.96124        0.97016        1.00227        1.01354        1.01931
        1.05426        1.06927        1.09010        1.12519        1.13173
        1.13802        1.16340        1.17923        1.25944        1.31665
        1.33973        1.39397        1.43253        1.45524        1.48345
        1.50878        1.51262        1.54323        1.55164        1.58086
        1.61956        1.63929        1.67081        1.68610        1.73513
        1.76082        1.76542        1.79130        1.85918        1.87842
        1.91536        1.91989        1.96552        2.05144        2.06450
        2.17492        2.20883        2.21928        2.27061        2.28446
        2.35942        2.37009        2.37136        2.38808        2.46078
        2.51350        2.58772        2.62150        2.66376        2.69942
        2.72056        2.76102        2.80305        2.81712        2.85446
        2.88618        2.94588        3.02751        3.05339        3.18348
        3.38911        3.41897        3.43142        3.45981        3.47878
        3.50123        3.50405        3.53161        3.53710        3.57718
        3.63675        3.64554        3.68971        3.70334        3.98689
        4.00548        4.01135        4.07358        4.18974        4.21610
        4.23877        4.24351        4.59947        5.09422        5.27532
        5.29972        5.36493        5.36757        5.45838        5.70103
        5.72676        5.77457        5.85544        6.07289        6.09970
        6.13367        6.23258       37.02065       51.50750       51.51542
       51.52713       51.60258
 Time used in FCKEIG, thr_jaco:   2.20D-02  4.10D-02  1.68D-08
 CPU and wall times used in FCKEIG, THR_FCKEIG:   2.20D-02  4.10D-02  3.86D-06
 -----------------------------------------------------------------------------

 *** DIIS iteration number    9
 RDSUPM called. NFMAT, ISYMDM(1:NFMAT)                     1
                     1

 ITDIIS, energy, error norm, change in energy, scr.thr., difden:
@ DIIS iter.   9    -360.731530684        9.38729D-05   -2.16D-08  -20    F

 (DIIS_RED) Control Parameters C2DIIS =         F NEVC =    8


 (DIIS_RED) B matrix:

               Column   1     Column   2     Column   3     Column   4     Column   5     Column   6
       1       0.00000001
       2       0.00000279     0.93045973
       3      -0.00000013     0.03603138     0.13357266
       4       0.00000013     0.08561804    -0.00521212     0.01238000
       5       0.00000019     0.00685168     0.00491372     0.00111277     0.00059707
[...]
 | 1 1 1 1 |  25   1  12   1 |     1477        1 |      1090027 |   -0.164171  |
 | 1 1 1 1 |  31   1  12   1 |     1483        1 |      1098904 |    0.081607  |
 | 1 1 1 1 |   8   1  13   1 |     1592        1 |      1266437 |   -0.072337  |
 | 1 1 1 1 |  25   1  13   1 |     1609        1 |      1293637 |   -0.086365  |
 | 1 1 1 1 |  12   1  21   1 |     2652        1 |      3515227 |   -0.107517  |
 | 1 1 1 1 |  18   1  21   1 |     2658        1 |      3531154 |   -0.071153  |
 | 1 1 1 1 |  21   1  21   1 |     2661        1 |      3539131 |   -0.068979  |
 | 1 1 1 1 |  24   1  21   1 |     2664        1 |      3547117 |    0.185669  |
 | 1 1 1 1 | 113   1  21   1 |     2753        1 |      3788129 |    0.091703  |
 | 1 1 1 1 |   1  24  21   1 |     2641       24 |      3486144 |   -0.073306  |
 +=============================================================================+


          Norm of Printed Amplitude Vector :             0.8503

          Printed all single excitations greater than 0.378456

          Printed all double excitations greater than 0.065352



+======================================================================+
| contributions of excitation levels to right eigenvectors as computed |
| from the (RE|RE) self overlap                                        |
+----------------------------------------------------------------------+
| sym | multi | state |    E / eV  | % singles | % doubles | % triples |
+======================================================================+
|    1|   1   |   1   |  406.74456 |  88.1300  |  11.8700  |   0.0000  |
+======================================================================+





+======================================================================+
| contributions of excitation levels to excited states as computed     |
| from the (LE|RE) overlap                                             |
+----------------------------------------------------------------------+
| sym | multi | state |    E / eV  | % singles | % doubles | % triples |
+======================================================================+
|    1|   1   |   1   |  406.74456 |  78.7831  |  21.2169  |   0.0000  |
+======================================================================+



 --------------------------
 Symmetry class Nr.:     1
 Multiplicity      :     3
 --------------------------

 Length of Excitation vectors in this class is:   7689528
 No Excitation Energies calculated in this symmetry class
     

   *******************************************************************
   *                                                                 *
   *--------   OUTPUT FROM PROPERTY AND SYMMETRY ANALYSIS   ---------*
   *                                                                 *
   *******************************************************************



                         +-------------------------------+
                         ! REQUESTED PROPERTY OPERATORS: !
                         +-------------------------------+

             Index   Oper. Label  Symmetry  Transp.  PDBS  Atom
             --------------------------------------------------
                1     HAM0            1        1      T      0
                2     XDIPLEN         1        1      F      0
                3     YDIPLEN         1        1      F      0
                4     ZDIPLEN         1        1      F      0
             --------------------------------------------------




                         +-------------------------------+
                         ! REQUESTED EXPECTATION VALUES: !
                         +-------------------------------+

                       Index   Oper. Label  Symmetry
                       -----------------------------
                       -----------------------------




                       +------------------------------------+
                       ! REQUESTED EFFECTIVE FOCK MATRICES: !
                       +------------------------------------+

                       Index   Oper. Label  Symmetry
                       -----------------------------
                       -----------------------------




                        +----------------------------------+
                        ! REQUESTED FIRST ORDER M-VECTORS: !
                        +----------------------------------+

               Index   State Symmetry  Frequency
               --------------------------------------------------
                  1             1    1     1.494759D+01
               --------------------------------------------------


      

    *******************************************************************
    *          SOLVING COUPLED CLUSTER RESPONSE EQUATIONS             *
    *******************************************************************



 
 +======================================================================+
 !                     RHS & ETA VECTORS TO COMPUTE:                    !
 +======================================================================+
 | TYPE | # VEC. |  NEEDED FOR:                                         |
 +----------------------------------------------------------------------+
 +======================================================================+



 +======================================================================+
 !                       LINEAR EQUATIONS TO SOLVE:                     !
 +======================================================================+
 | TYPE | # VEC. |  EQUATION:                                           |
 +----------------------------------------------------------------------+
 |  M1  |    1   |  first-order ground - excited state multipliers      |
 +======================================================================+



 +======================================================================+
 !                F MATRIX TRANSFORMATIONS TO COMPUTE:                  !
 +======================================================================+
 | TYPE | # VEC. |  TRANSFORMED:                                        |
 +----------------------------------------------------------------------+
 |  FR  |    1   |  right eigenvectors (RE)                             |
 +======================================================================+





 Testing R1 list: 

 List nr.  Label     Symmetry      Frequency      T1-norm        T2-norm


 Testing L1 list: 

 List nr.  Label     Symmetry      Frequency      T1-norm        T2-norm
  Solvent 1-order response equations converged in                     0 
  solvent iterations
 SONIAPRI                     0
 CCEQ_STR: CVSEPARATION =  T
 CCEQ_STR: IONIZATION =  T
 CCEQ_STR: REMOVE_CORE =  F
 could not find required file CCM1_1___1
 IOPTSV is    33 ... program continues nevertheless.
 Vector nr.  1 of type M1  and symmetry  1 was not found on file.
     M1  start vector nr.  1 of symmetry  1 generated from gradient
 CCEQ_STR: freeze VALENCE OR VIRT
 CCEQ_SOL: CVSEPARA=     T
 CCEQ_SOL: LIONISAT=     T
 CCEQ_SOL: REMOVE_CORE =  F



 ----- COUPLED CLUSTER RESPONSE SOLVER -----

    Iter  #Vectors  time (min)   residual
    --------------------------------------
 CCRED CVS/IONIS sigma_                     1 
 project out valence occupied or virtual
      1       1         1.38     0.31E+00
 CCRED CVS/IONIS sigma_                     2 
 project out valence occupied or virtual
      2       1         1.38     0.69E-01
 CCRED CVS/IONIS sigma_                     3 
 project out valence occupied or virtual
                    -1  vectors with norm le:  1.000000000000000E-035  REMOVED

 CCORT,**WARNING**  number vectors added is zero after check for vector norm , NBADD :    0

 CCORT, number vectors added is zero , NBADD :    0

 CCORT, number vectors added is zero , NBADD :    0

 CCORT, number vectors added is zero , NBADD :    0

 *** MICROITERATIONS STOPPED DUE TO LINEAR DEPENDENCE BETWEEN ALL NEW TRIAL VECTORS
                     0  trial vectors converged
  LINEAR DEPENDENCE BETWEEN                     1  NON CONVERGED TRIAL VECTORS
      3       1         1.38     0.71E-02

 ***  CCEQ_SOL -MICROITERATIONS STOPPED  
     LINEAR DEPENDENCE BETWEEN ALL NEW TRIAL VECTORS
    --------------------------------------
    converged in  3 iterations
    threshold:    0.10E-08


         Routine          Time (min)
         ---------------------------
         CC_TRDRV            4.14
         CCRED               0.02
         CCNEX               0.03
         ---------------------------
         Total time          4.19


  Total CPU  time used in CCEQ_SOLV:  4 minutes 12 seconds
  Total wall time used in CCEQ_SOLV:  4 minutes 45 seconds


 xxxxxxxxxxxxxxxxxxxxxxxxxxxxxxxxxxxxx

 
 Solution of CC response equations completed.
 

 *******************************************************************
 *                                                                 *
 *--------  OUTPUT FROM COUPLED CLUSTER LINEAR RESPONSE   ---------*
 *                                                                 *
 *--------      CALCULATION OF SECOND ORDER RESIDUES      ---------*
 *                                                                 *
 *******************************************************************



                  +---------------------------------------------+
                  ! CC_SOPR: Calculation of CCSD       Residues !
                  +---------------------------------------------+

 Doing the Mf*CsiA
 Doing the Mf*CsiA
 Doing the Mf*CsiA


 CCSD  Right transition moments in atomic units:
 -----------------------------------------------

  1      14.947588  <XDIPLEN |f> =      -0.00000000
  1      14.947588  <YDIPLEN |f> =      -0.00000000
  1      14.947588  <ZDIPLEN |f> =      -0.00000001


 CCSD  Left  transition moments in atomic units:
 -----------------------------------------------

  1      14.947588  <f|XDIPLEN > =      -0.00000000
  1      14.947588  <f|YDIPLEN > =      -0.00000000
  1      14.947588  <f|ZDIPLEN > =      -0.00000000


 CCSD  linear response residue property in atomic units:
 -------------------------------------------------------

 RES{<<XDIPLEN ,XDIPLEN >>(14.947588)} =     0.00000000 (   0.00000000)
 RES{<<XDIPLEN ,YDIPLEN >>(14.947588)} =     0.00000000 (   0.00000000)
 RES{<<XDIPLEN ,ZDIPLEN >>(14.947588)} =     0.00000000 (   0.00000000)
 RES{<<YDIPLEN ,XDIPLEN >>(14.947588)} =     0.00000000 (   0.00000000)
 RES{<<YDIPLEN ,YDIPLEN >>(14.947588)} =     0.00000000 (   0.00000000)
 RES{<<YDIPLEN ,ZDIPLEN >>(14.947588)} =     0.00000000 (   0.00000000)
 RES{<<ZDIPLEN ,XDIPLEN >>(14.947588)} =     0.00000000 (   0.00000000)
 RES{<<ZDIPLEN ,YDIPLEN >>(14.947588)} =     0.00000000 (   0.00000000)
 RES{<<ZDIPLEN ,ZDIPLEN >>(14.947588)} =     0.00000000 (   0.00000000)


 CCSD  Transition strength matrix for state nr.  1 of symmetry 1
 CCSD  excitation energy:14.94758816

 Gauge: length

               Column   1     Column   2     Column   3
       1     1.014802D-17   6.208262D-18   1.441490D-17
       2     6.208262D-18   3.797826D-18   8.820236D-18
       3     1.441490D-17   8.820236D-18   2.046331D-17
    ==== End of matrix output ====

 Principal values of diagonalized transition strength matrix:

             a.u.               
 1       0.00000000
 2       0.00000000
 3       0.00000000

 Principal axis of diagonalized transition strength matrix:


               Column   1     Column   2     Column   3
       1       1.00000000     0.00000000     0.00000000
       2       0.00000000     1.00000000     0.00000000
       3       0.00000000     0.00000000     1.00000000
    ==== End of matrix output ====


 CCSD   oscillator strength matrix for state nr.  1 of symmetry 1
 CCSD  excitation energy:14.94758816


               Column   1     Column   2     Column   3
       1     1.011256D-16   6.186569D-17   1.436454D-16
       2     6.186569D-17   3.784556D-17   8.789417D-17
       3     1.436454D-16   8.789417D-17   2.039180D-16
    ==== End of matrix output ====

 Principal values of diagonalized oscillator strength matrix:

             a.u.               
 1       0.00000000
 2       0.00000000
 3       0.00000000

 Principal axis of diagonalized oscillator strength matrix:


               Column   1     Column   2     Column   3
       1       1.00000000     0.00000000     0.00000000
       2       0.00000000     1.00000000     0.00000000
       3       0.00000000     0.00000000     1.00000000
    ==== End of matrix output ====

  Total time for      9 linear response residues:       2.88 seconds.
  

 *******************************************************************************
 *******************************************************************************
 *                                                                             *
 *                                                                             *
 *                   SUMMARY OF COUPLED CLUSTER CALCULATION                    *
 *                                                                             *
 *                                                                             *
 *******************************************************************************
 *******************************************************************************

                                                                                
                                                                                
            Total SCF   energy:                  -360.7315306850                
            Total MP2   energy:                  -361.8381848995                
            Total CCSD  energy:                  -361.8768569912                
                                                                                
                                                                                
            Total SCF   energy:                  -360.7315306850                
            Total RSTAR energy:                  -361.8768569912                
            Total CCSD  energy:                  -361.8769818793                
                                                                                
                                                                                
            Total SCF   energy:                  -360.7315306850                
            Total RSTAR energy:                  -361.8769818793                
            Total CCSD  energy:                  -361.8769825363                
                                                                                
                                                                                
            Total SCF   energy:                  -360.7315306850                
            Total RSTAR energy:                  -361.8769825363                
            Total CCSD  energy:                  -361.8769826119                
                                                                                
                                                                                
            Total SCF   energy:                  -360.7315306850                
            Total RSTAR energy:                  -361.8769826119                
            Total CCSD  energy:                  -361.8769826151                
                                                                                
                                                                                
            Total SCF   energy:                  -360.7315306850                
            Total RSTAR energy:                  -361.8769826151                
            Total CCSD  energy:                  -361.8769826152                
            CCSD Total  energy:                  -362.2479888568                
            CCSD E(QM/MM)     :                    -0.3666757013                
                                                                                
                                                                                
                                                                                
 +=============================================================================+
 |  sym. | Exci.  |        CCSD       Excitation energies            | ||T1||  |
 |(spin, |        +------------------------------------------------------------+
 | spat) |        |     Hartree    |       eV.      |     cm-1       |    %    |
 +=============================================================================+
 | ^1A   |    1   |    14.9475882  |     406.74456  |   3280616.371  |  88.13  |
 +=============================================================================+
                                                                                
                                                                                
     Total energies in Hartree:                                                 
             1 ^1A       -346.9337249953                                        
                                                                                
                                                                                
 +=============================================================================+
 |  sym. | Exci.  |        CCSD       Length   Gauge Oscillator Strength       |
 |(spin, |        +------------------------------------------------------------+
 | spat) |        | Dipole Strength(a.u.) | Oscillator strength  | Direction   |
 +=============================================================================+
 | ^1A   |    1   |        0.0000000      |      0.0000000       |    -        |
 +=============================================================================+

  1 a.u. =        27.21138 eV.  
  1 a.u. =    219474.62934 cm-1.
  

 *******************************************************************************
 *******************************************************************************
 *                                                                             *
 *                                                                             *
 *                      END OF COUPLED CLUSTER CALCULATION                     *
 *                                                                             *
 *                                                                             *
 *******************************************************************************
 *******************************************************************************


 CPU and wall time for CC :    6270.611    8036.866

 
     Date and time (Linux)  : Mon Dec  3 20:13:49 2018
     Host name              : n-62-23-25                              


                      .-------------------------------------.
                      | End of Coupled Cluster Section (CC) |
                      `-------------------------------------'

  Total CPU  time used in DALTON:   1 hour  46 minutes 36 seconds
  Total wall time used in DALTON:   2 hours 19 minutes 34 seconds

 
     Date and time (Linux)  : Mon Dec  3 20:13:49 2018
     Host name              : n-62-23-25                              
  

 +---------------------------------------------------------+ 
 | List of selected calculated molecular properties (a.u.) | 
 +---------------------------------------------------------+ 

  Properties are read from unit number                      4

 CCSD       properties :
 #  1 1 CCSD/MM  Ground state Energy =    -362.2479888568
 #  2 1 E_QM/MM  Ground state Energy =      -0.3666757013
 #  3 1 Sy: 1 Sp: 1 Exc:  1 E_tot:   -346.9337249953 w:     14.9475881602 E_grs:   -361.8813131556
 #  4 1 Exctot   Excited state Energy =    -346.9337249953
 #  5 1 |<O|XDIPLEN |i(14.947588)>| =     0.00000000
 #  7 1 |<O|YDIPLEN |i(14.947588)>| =     0.00000000
 #  9 1 |<O|ZDIPLEN |i(14.947588)>| =     0.00000000

 THE_END   
