

     ************************************************************************
     *************** Dalton - An Electronic Structure Program ***************
     ************************************************************************

    This is output from DALTON release Dalton2017.alpha (2016)
         ( Web site: http://daltonprogram.org )

   ----------------------------------------------------------------------------

    NOTE:
     
    Dalton is an experimental code for the evaluation of molecular
    properties using (MC)SCF, DFT, CI, and CC wave functions.
    The authors accept no responsibility for the performance of
    the code or for the correctness of the results.
     
    The code (in whole or part) is provided under a licence and
    is not to be reproduced for further distribution without
    the written permission of the authors or their representatives.
     
    See the home page "http://daltonprogram.org" for further information.
     
    If results obtained with this code are published,
    the appropriate citations would be both of:
     
       K. Aidas, C. Angeli, K. L. Bak, V. Bakken, R. Bast,
       L. Boman, O. Christiansen, R. Cimiraglia, S. Coriani,
       P. Dahle, E. K. Dalskov, U. Ekstroem,
       T. Enevoldsen, J. J. Eriksen, P. Ettenhuber, B. Fernandez,
       L. Ferrighi, H. Fliegl, L. Frediani, K. Hald, A. Halkier,
       C. Haettig, H. Heiberg, T. Helgaker, A. C. Hennum,
       H. Hettema, E. Hjertenaes, S. Hoest, I.-M. Hoeyvik,
       M. F. Iozzi, B. Jansik, H. J. Aa. Jensen, D. Jonsson,
       P. Joergensen, J. Kauczor, S. Kirpekar,
       T. Kjaergaard, W. Klopper, S. Knecht, R. Kobayashi, H. Koch,
       J. Kongsted, A. Krapp, K. Kristensen, A. Ligabue,
       O. B. Lutnaes, J. I. Melo, K. V. Mikkelsen, R. H. Myhre,
       C. Neiss, C. B. Nielsen, P. Norman, J. Olsen,
       J. M. H. Olsen, A. Osted, M. J. Packer, F. Pawlowski,
       T. B. Pedersen, P. F. Provasi, S. Reine, Z. Rinkevicius,
       T. A. Ruden, K. Ruud, V. Rybkin, P. Salek, C. C. M. Samson,
       A. Sanchez de Meras, T. Saue, S. P. A. Sauer,
       B. Schimmelpfennig, K. Sneskov, A. H. Steindal,
       K. O. Sylvester-Hvid, P. R. Taylor, A. M. Teale,
       E. I. Tellgren, D. P. Tew, A. J. Thorvaldsen, L. Thoegersen,
       O. Vahtras, M. A. Watson, D. J. D. Wilson, M. Ziolkowski
       and H. Agren,
       "The Dalton quantum chemistry program system",
       WIREs Comput. Mol. Sci. 2014, 4:269–284 (doi: 10.1002/wcms.1172)
     
    and
     
       Dalton, a Molecular Electronic Structure Program,
       Release Dalton2017.alpha (2016), see http://daltonprogram.org
   ----------------------------------------------------------------------------

    Authors in alphabetical order (major contribution(s) in parenthesis):

  Kestutis Aidas,           Vilnius University,           Lithuania   (QM/MM)
  Celestino Angeli,         University of Ferrara,        Italy       (NEVPT2)
  Keld L. Bak,              UNI-C,                        Denmark     (AOSOPPA, non-adiabatic coupling, magnetic properties)
  Vebjoern Bakken,          University of Oslo,           Norway      (DALTON; geometry optimizer, symmetry detection)
  Radovan Bast,             UiT The Arctic U. of Norway,  Norway      (DALTON installation and execution frameworks)
  Pablo Baudin,             University of Valencia,       Spain       (Cholesky excitation energies)
  Linus Boman,              NTNU,                         Norway      (Cholesky decomposition and subsystems)
  Ove Christiansen,         Aarhus University,            Denmark     (CC module)
  Renzo Cimiraglia,         University of Ferrara,        Italy       (NEVPT2)
  Sonia Coriani,            University of Trieste,        Italy       (CC module, MCD in RESPONS)
  Janusz Cukras,            University of Trieste,        Italy       (MChD in RESPONS)
  Paal Dahle,               University of Oslo,           Norway      (Parallelization)
  Erik K. Dalskov,          UNI-C,                        Denmark     (SOPPA)
  Thomas Enevoldsen,        Univ. of Southern Denmark,    Denmark     (SOPPA)
  Janus J. Eriksen,         Aarhus University,            Denmark     (Polarizable embedding model, TDA)
  Rasmus Faber,             University of Copenhagen,     Denmark     (Vib.avg. NMR with SOPPA, parallel AO-SOPPA)
  Berta Fernandez,          U. of Santiago de Compostela, Spain       (doublet spin, ESR in RESPONS)
  Lara Ferrighi,            Aarhus University,            Denmark     (PCM Cubic response)
  Heike Fliegl,             University of Oslo,           Norway      (CCSD(R12))
  Luca Frediani,            UiT The Arctic U. of Norway,  Norway      (PCM)
  Bin Gao,                  UiT The Arctic U. of Norway,  Norway      (Gen1Int library)
  Christof Haettig,         Ruhr-University Bochum,       Germany     (CC module)
  Kasper Hald,              Aarhus University,            Denmark     (CC module)
  Asger Halkier,            Aarhus University,            Denmark     (CC module)
  Frederik Beyer Hansen,    University of Copenhagen,     Denmark     (Parallel AO-SOPPA)
  Erik D. Hedegaard,        Univ. of Southern Denmark,    Denmark     (Polarizable embedding model, QM/MM)
  Hanne Heiberg,            University of Oslo,           Norway      (geometry analysis, selected one-electron integrals)
  Trygve Helgaker,          University of Oslo,           Norway      (DALTON; ABACUS, ERI, DFT modules, London, and much more)
  Alf Christian Hennum,     University of Oslo,           Norway      (Parity violation)
  Hinne Hettema,            University of Auckland,       New Zealand (quadratic response in RESPONS; SIRIUS supersymmetry)
  Eirik Hjertenaes,         NTNU,                         Norway      (Cholesky decomposition)
  Pi A. B. Haase,           University of Copenhagen,     Denmark     (Triplet AO-SOPPA)
  Maria Francesca Iozzi,    University of Oslo,           Norway      (RPA)
  Brano Jansik              Technical Univ. of Ostrava    Czech Rep.  (DFT cubic response)
  Hans Joergen Aa. Jensen,  Univ. of Southern Denmark,    Denmark     (DALTON; SIRIUS, RESPONS, ABACUS modules, London, and much more)
  Dan Jonsson,              UiT The Arctic U. of Norway,  Norway      (cubic response in RESPONS module)
  Poul Joergensen,          Aarhus University,            Denmark     (RESPONS, ABACUS, and CC modules)
  Maciej Kaminski,          University of Warsaw,         Poland      (CPPh in RESPONS)
  Joanna Kauczor,           Linkoeping University,        Sweden      (Complex polarization propagator (CPP) module)
  Sheela Kirpekar,          Univ. of Southern Denmark,    Denmark     (Mass-velocity & Darwin integrals)
  Wim Klopper,              KIT Karlsruhe,                Germany     (R12 code in CC, SIRIUS, and ABACUS modules)
  Stefan Knecht,            ETH Zurich,                   Switzerland (Parallel CI and MCSCF)
  Rika Kobayashi,           Australian National Univ.,    Australia   (DIIS in CC, London in MCSCF)
  Henrik Koch,              NTNU,                         Norway      (CC module, Cholesky decomposition)
  Jacob Kongsted,           Univ. of Southern Denmark,    Denmark     (Polarizable embedding model, QM/MM)
  Andrea Ligabue,           University of Modena,         Italy       (CTOCD, AOSOPPA)
  Nanna H. List             Univ. of Southern Denmark,    Denmark     (Polarizable embedding model)
  Ola B. Lutnaes,           University of Oslo,           Norway      (DFT Hessian)
  Juan I. Melo,             University of Buenos Aires,   Argentina   (LRESC, Relativistic Effects on NMR Shieldings)
  Kurt V. Mikkelsen,        University of Copenhagen,     Denmark     (MC-SCRF and QM/MM)
  Rolf H. Myhre,            NTNU,                         Norway      (Cholesky, subsystems and ECC2)
  Christian Neiss,          Univ. Erlangen-Nuernberg,     Germany     (CCSD(R12))
  Christian B. Nielsen,     University of Copenhagen,     Denmark     (QM/MM)
  Patrick Norman,           Linkoeping University,        Sweden      (Cubic response and complex frequency response in RESPONS)
  Jeppe Olsen,              Aarhus University,            Denmark     (SIRIUS CI/density modules)
  Jogvan Magnus H. Olsen,   Univ. of Southern Denmark,    Denmark     (Polarizable embedding model, QM/MM)
  Anders Osted,             Copenhagen University,        Denmark     (QM/MM)
  Martin J. Packer,         University of Sheffield,      UK          (SOPPA)
  Filip Pawlowski,          Kazimierz Wielki University,  Poland      (CC3)
  Morten N. Pedersen,       Univ. of Southern Denmark,    Denmark     (Polarizable embedding model)
  Thomas B. Pedersen,       University of Oslo,           Norway      (Cholesky decomposition)
  Patricio F. Provasi,      University of Northeastern,   Argentina   (Analysis of coupling constants in localized orbitals)
  Zilvinas Rinkevicius,     KTH Stockholm,                Sweden      (open-shell DFT, ESR)
  Elias Rudberg,            KTH Stockholm,                Sweden      (DFT grid and basis info)
  Torgeir A. Ruden,         University of Oslo,           Norway      (Numerical derivatives in ABACUS)
  Kenneth Ruud,             UiT The Arctic U. of Norway,  Norway      (DALTON; ABACUS magnetic properties and much more)
  Pawel Salek,              KTH Stockholm,                Sweden      (DALTON; DFT code)
  Claire C. M. Samson       University of Karlsruhe       Germany     (Boys localization, r12 integrals in ERI)
  Alfredo Sanchez de Meras, University of Valencia,       Spain       (CC module, Cholesky decomposition)
  Trond Saue,               Paul Sabatier University,     France      (direct Fock matrix construction)
  Stephan P. A. Sauer,      University of Copenhagen,     Denmark     (SOPPA(CCSD), SOPPA prop., AOSOPPA, vibrational g-factors)
  Bernd Schimmelpfennig,    Forschungszentrum Karlsruhe,  Germany     (AMFI module)
  Kristian Sneskov,         Aarhus University,            Denmark     (Polarizable embedding model, QM/MM)
  Arnfinn H. Steindal,      UiT The Arctic U. of Norway,  Norway      (parallel QM/MM, Polarizable embedding model)
  Casper Steinmann,         Univ. of Southern Denmark,    Denmark     (QFIT, Polarizable embedding model)
  K. O. Sylvester-Hvid,     University of Copenhagen,     Denmark     (MC-SCRF)
  Peter R. Taylor,          VLSCI/Univ. of Melbourne,     Australia   (Symmetry handling ABACUS, integral transformation)
  Andrew M. Teale,          University of Nottingham,     England     (DFT-AC, DFT-D)
  David P. Tew,             University of Bristol,        England     (CCSD(R12))
  Olav Vahtras,             KTH Stockholm,                Sweden      (triplet response, spin-orbit, ESR, TDDFT, open-shell DFT)
  David J. Wilson,          La Trobe University,          Australia   (DFT Hessian and DFT magnetizabilities)
  Hans Agren,               KTH Stockholm,                Sweden      (SIRIUS module, RESPONS, MC-SCRF solvation model)
 --------------------------------------------------------------------------------

     Date and time (Linux)  : Thu Nov 29 08:58:16 2018
     Host name              : n-62-29-8                               

 * Work memory size             :  1280000000 =  9.537 gigabytes.

 * Directories for basis set searches:
   1) /zhome/d7/7/119775/My_Codes/dalton-private/build2016/basis/diffs
   2) /zhome/37/3/129401/NH3NH4/CCSD/AIMD_SAMPLING/nh3_4h2o_nd
   3) /zhome/9a/4/124800/source/dalton/build-mlcc/basis


Compilation information
-----------------------

 Who compiled             | rfaber
 Host                     | hpclogin1
 System                   | Linux-2.6.32-696.1.1.el6.x86_64
 CMake generator          | Unix Makefiles
 Processor                | x86_64
 64-bit integers          | ON
 MPI                      | OFF
 Fortran compiler         | /opt/intel/2016update2/compilers_and_libraries_201
                          | 6.2.181/linux/bin/intel64/ifort
 Fortran compiler version | ifort (IFORT) 16.0.2 20160204
 C compiler               | /opt/intel/2016update2/compilers_and_libraries_201
                          | 6.2.181/linux/bin/intel64/icc
 C compiler version       | icc (ICC) 16.0.2 20160204
 C++ compiler             | /opt/intel/2016update2/compilers_and_libraries_201
                          | 6.2.181/linux/bin/intel64/icpc
 C++ compiler version     | icpc (ICC) 16.0.2 20160204
 Static linking           | OFF
 Last Git revision        | bb4d1599ca5680a9f3980451fc8bbefdba436d59
 Git branch               | mlcc
 Configuration time       | 2017-06-13 16:11:03.928841


   Content of the .dal input file
 ----------------------------------

**DALTON
.RUN WAVE FUNCTIONS
*QMMM
.QMMM
**INTEGRALS
.DIPLEN
**WAVE FUNCTIONS
.CC
*PRINT
!To check the origin of excit
.PRINTL
   0 11
*SCF INP
.THRESH
1.0D-7
*CC INP
.CCSD
.THRLEQ
 1.0D-9
.THRENR
 1.0D-10
.FROIMP
4
0
.PRINT
 1
.MAX IT
 1200
.MAXRED
 1200
.MXLRV
1199
*CCSLV
.CCMM
.MXSLIT
200
.MXINIT
4 5
*CCEXCI
.NCCEXC
 1
.IONISATION
1
1
.CVSEPARA
1
1
*CCLRSD
.DIPOLE
**END OF DALTON INPUT


   Content of the .mol file
 ----------------------------

ATOMBASIS


Atomtypes=5 Charge=0 Nosymm Angstrom
   7.00000    1    Basis=6-311G**
N          0.000000        0.000000        0.000000
   1.00000    3    Basis=6-311G**
H          0.726676       -0.698265        0.266065
H          0.211894        0.850610        0.474667
H         -0.901091       -0.389439        0.240623
   8.00000    4    Basis=6-311G**
O          1.954675        1.216971        2.178417
O         -1.516950       -3.028056        0.487297
O         -0.152772        1.465649       -2.367907
O          1.183075       -2.528160        1.854916
   1.00000    8    Basis=6-311G**
H          1.359694        1.985113        2.509607
H          2.837358        1.316777        2.626294
H         -1.910489       -2.783983        1.395735
H         -2.100425       -2.585037       -0.178556
H          0.455077        1.248835       -3.188782
H          0.072846        0.908996       -1.557399
H          0.823079       -1.946266        2.609438
H          0.384740       -2.742738        1.327178
   0.00000    1    Basis=diffs
X          0.000000        0.000000        0.000000


       *******************************************************************
       *********** Output from DALTON general input processing ***********
       *******************************************************************

 --------------------------------------------------------------------------------
   Overall default print level:    0
   Print level for DALTON.STAT:    1

    HERMIT 1- and 2-electron integral sections will be executed
    "Old" integral transformation used (limited to max 255 basis functions)
    Wave function sections will be executed (SIRIUS module)
 --------------------------------------------------------------------------------


 Changes of defaults for *QMMM  :
 --------------------------------

 +------------------+
 |  WORD: | CHANGE: |
 +------------------+
 |   QMMM |       T |
 +------------------+
 


   ****************************************************************************
   *************** Output of molecule and basis set information ***************
   ****************************************************************************


    The two title cards from your ".mol" input:
    ------------------------------------------------------------------------
 1:                                                                         
 2:                                                                         
    ------------------------------------------------------------------------

  Coordinates are entered in Angstrom and converted to atomic units.
          - Conversion factor : 1 bohr = 0.52917721 A

  Atomic type no.    1
  --------------------
  Nuclear charge:   7.00000
  Number of symmetry independent centers:    1
  Number of basis sets to read;    2
  The basis set is "6-311G**" from the basis set library.
  Basis set file used for this atomic type with Z =   7 :
     "/zhome/9a/4/124800/source/dalton/build-mlcc/basis/6-311G**"

  Info about the basis set file: your basis has no documentation.
  Basis set: 6-311G**                                                                        

  Atomic type no.    2
  --------------------
  Nuclear charge:   1.00000
  Number of symmetry independent centers:    3
  Number of basis sets to read;    2
  The basis set is "6-311G**" from the basis set library.
  Basis set file used for this atomic type with Z =   1 :
     "/zhome/9a/4/124800/source/dalton/build-mlcc/basis/6-311G**"

  Info about the basis set file: your basis has no documentation.
  Basis set: 6-311G**                                                                        

  Atomic type no.    3
  --------------------
  Nuclear charge:   8.00000
  Number of symmetry independent centers:    4
  Number of basis sets to read;    2
  The basis set is "6-311G**" from the basis set library.
  Basis set file used for this atomic type with Z =   8 :
     "/zhome/9a/4/124800/source/dalton/build-mlcc/basis/6-311G**"

  Info about the basis set file: your basis has no documentation.
  Basis set: 6-311G**                                                                        

  Atomic type no.    4
  --------------------
  Nuclear charge:   1.00000
  Number of symmetry independent centers:    8
  Number of basis sets to read;    2
  The basis set is "6-311G**" from the basis set library.
  Basis set file used for this atomic type with Z =   1 :
     "/zhome/9a/4/124800/source/dalton/build-mlcc/basis/6-311G**"

  Info about the basis set file: your basis has no documentation.
  Basis set: 6-311G**                                                                        

  Atomic type no.    5
  --------------------
  Nuclear charge:   0.00000
  Number of symmetry independent centers:    1
  Number of basis sets to read;    2
  The basis set is "diffs" from the basis set library.
  Basis set file used for this atomic type with Z =   0 :
     "/zhome/9a/4/124800/source/dalton/build-mlcc/basis/diffs"

  Info about the basis set file: your basis has no documentation.
  Basis set: diffs                                                                           


                         SYMGRP: Point group information
                         -------------------------------

@    Point group: C1 


                                 Isotopic Masses
                                 ---------------

                           N          14.003074
                           H           1.007825
                           H           1.007825
                           H           1.007825
                           O          15.994915
                           O          15.994915
                           O          15.994915
                           O          15.994915
                           H           1.007825
                           H           1.007825
                           H           1.007825
                           H           1.007825
                           H           1.007825
                           H           1.007825
                           H           1.007825
                           H           1.007825

                       Total mass:    89.068809 amu
                       Natural abundance:  98.514 %

 Center-of-mass coordinates (a.u.):    0.540080   -1.078564    0.870057


  Atoms and basis sets
  --------------------

  Number of atom types :    5
  Total number of atoms:   17

  label    atoms   charge   prim   cont     basis
  ----------------------------------------------------------------------
  N           1    7.0000    31    18      [11s5p1d|4s3p1d]                                   
  H           3    1.0000     8     6      [5s1p|3s1p]                                        
  O           4    8.0000    31    18      [11s5p1d|4s3p1d]                                   
  H           8    1.0000     8     6      [5s1p|3s1p]                                        
  X           1    0.0000     1     1      [1s|1s]                                            
  ----------------------------------------------------------------------
  total:     17   50.0000   244   157
  ----------------------------------------------------------------------
  Spherical harmonic basis used.

  Threshold for neglecting AO integrals:  1.00D-12


  Cartesian Coordinates (a.u.)
  ----------------------------

  Total number of coordinates:   51
  N       :     1  x   0.0000000000    2  y   0.0000000000    3  z   0.0000000000
  H       :     4  x   1.3732186216    5  y  -1.3195296127    6  z   0.5027899814
  H       :     7  x   0.4004216275    8  y   1.6074199392    9  z   0.8969906306
  H       :    10  x  -1.7028152037   11  y  -0.7359330524   12  z   0.4547115694
  O       :    13  x   3.6938004134   14  y   2.2997418921   15  z   4.1166115160
  O       :    16  x  -2.8666200453   17  y  -5.7221965311   18  z   0.9208578715
  O       :    19  x  -0.2886972396   20  y   2.7696752054   21  z  -4.4746957195
  O       :    22  x   2.2356877353   23  y  -4.7775300002   24  z   3.5052832249
  H       :    25  x   2.5694492738   26  y   3.7513198972   27  z   4.7424699114
  H       :    28  x   5.3618295386   29  y   2.4883478977   30  z   4.9629763837
  H       :    31  x  -3.6103009748   32  y  -5.2609654066   33  z   2.6375568931
  H       :    34  x  -3.9692279961   35  y  -4.8850119530   36  z  -0.3374219380
  H       :    37  x   0.8599708958   38  y   2.3599561253   39  z  -6.0259246523
  H       :    40  x   0.1376589893   41  y   1.7177534887   42  z  -2.9430575773
  H       :    43  x   1.5553938892   44  y  -3.6779097064   45  z   4.9311231602
  H       :    46  x   0.7270532293   47  y  -5.1830236526   48  z   2.5080029391
  X       :    49  x   0.0000000000   50  y   0.0000000000   51  z   0.0000000000

  Max    interatomic separation is    6.8901 Angstrom (   13.0203 Bohr)
  between atoms   12 and   10, "H     " and "H     ".

  Min HX interatomic separation is    0.9808 Angstrom (    1.8534 Bohr)

  Min YX interatomic separation is    2.7890 Angstrom (    5.2704 Bohr)


  Bond distances (Angstrom):
  --------------------------

                  atom 1     atom 2       distance
                  ------     ------       --------
  bond distance:  H          N            1.042316
  bond distance:  H          N            0.996868
  bond distance:  H          N            1.010706
  bond distance:  H          O            1.026514
  bond distance:  H          O            0.994829
  bond distance:  H          O            1.019659
  bond distance:  H          O            0.989984
  bond distance:  H          O            1.044186
  bond distance:  H          O            1.008806
  bond distance:  H          O            1.018578
  bond distance:  H          O            0.980760


  Bond angles (degrees):
  ----------------------

                  atom 1     atom 2     atom 3         angle
                  ------     ------     ------         -----
  bond angle:     H          N          H            107.571
  bond angle:     H          N          H            107.618
  bond angle:     H          N          H            113.887
  bond angle:     H          O          H            107.095
  bond angle:     H          O          H            105.345
  bond angle:     H          O          H            112.758
  bond angle:     H          O          H            103.644




 Principal moments of inertia (u*A**2) and principal axes
 --------------------------------------------------------

   IA     306.155685          0.111237    0.851591   -0.512268
   IB     406.053956          0.640092    0.332912    0.692424
   IC     667.460009          0.760203   -0.404922   -0.508065


 Rotational constants
 --------------------

               A                   B                   C

           1650.7255           1244.6105            757.1675 MHz
            0.055062            0.041516            0.025256 cm-1


@  Nuclear repulsion energy :  183.060452863421 Hartree

  Number of floating/multiple basis set orbitals :    1


                     .---------------------------------------.
                     | Starting in Integral Section (HERMIT) |
                     `---------------------------------------'



 ***************************************************************************************
 ****************** Output from **INTEGRALS input processing (HERMIT) ******************
 ***************************************************************************************



    *************************************************************************
    ****************** Output from HERMIT input processing ******************
    *************************************************************************


 Default print level:        1

 * Nuclear model: Point charge

 Calculation of one- and two-electron Hamiltonian integrals.

 The following one-electron property integrals are calculated as requested:
          - overlap integrals
          - dipole length integrals

 Center of mass  (bohr):      0.540079662499     -1.078564050258      0.870056828422
 Operator center (bohr):      0.000000000000      0.000000000000      0.000000000000
 Gauge origin    (bohr):      0.000000000000      0.000000000000      0.000000000000
 Dipole origin   (bohr):      0.000000000000      0.000000000000      0.000000000000
 
  *********************************** 
  QMMM electrostatic potential: 
  Multipole order                                    0
  Isotropic polarization  
  *********************************** 
 
  ---------------- 
  QMMM information 
  ---------------- 
 
  MM coordinates in au 
  -------------------- 
     1      9.998316      4.577829     10.335524
     2     11.806710      5.056070     10.228496
     3      9.196135      6.200857     10.825311
     4     -9.013757    -10.334519      2.870439
     5     -7.254411    -10.966098      2.454473
     6     -9.131684     -8.464956      3.332744
     7     -3.923264     -4.143650      5.573320
     8     -2.586054     -4.692974      6.803381
     9     -5.690211     -4.839126      6.036295
    10     -8.385898      6.171725      9.855795
    11     -7.850202      6.501778     11.572203
    12     -8.471317      7.800706      8.940035
    13     -5.881311     -2.991195     -2.242120
    14     -6.428223     -1.711200     -1.039501
    15     -5.438326     -2.084083     -3.807724
    16     -0.781997     -3.886337     -8.334994
    17     -1.957356     -2.541965     -7.791199
    18      0.520880     -3.860059     -7.073063
    19      9.805007      2.905155     -8.082769
    20      9.848141      4.122606     -6.642574
    21     10.267587      3.801110     -9.658090
    22      3.566280     -7.602374     10.589396
    23      1.988810     -6.936312     11.379575
    24      2.989146     -8.018418      8.885033
    25      5.139535     -2.824148     10.414222
    26      5.428376     -2.280166     12.155739
    27      5.120007     -4.745265     10.563004
    28     -7.818870      2.013199     -8.583962
    29     -9.515368      2.160390     -7.779522
    30     -8.275466      1.416539    -10.371745
    31     -5.861505     -4.118815     11.652546
    32     -4.643796     -2.640887     11.990843
    33     -5.982695     -4.937692     13.322998
    34      1.357097     -5.613796     -2.740621
    35      2.033364     -7.088589     -2.001573
    36     -0.269851     -5.200621     -1.976903
    37     -3.173973      4.653812      8.257833
    38     -4.654898      5.518960      8.928695
    39     -3.779758      3.164006      7.167104
    40     10.552542     -0.601753     -2.048599
    41     11.710073      0.519272     -3.012004
    42      9.044845      0.477354     -1.915498
    43     11.088166      8.182977     -4.635810
    44     10.750355      9.757669     -3.750137
    45     12.153241      8.473766     -6.167648
    46    -10.589033     10.684717      7.178327
    47     -9.616257     11.514674      5.730834
    48    -11.985926      9.949291      6.199067
    49     -1.924329     -0.014940     11.216598
    50     -1.346326     -0.422684      9.445027
    51     -2.787469      1.519098     10.948302
    52     -3.651539    -11.512104      8.310636
    53     -2.773035    -12.178943      9.887550
    54     -5.357725    -11.636191      8.830794
    55     -9.477114      4.074025     -2.695721
    56    -10.112074      5.834648     -2.945495
    57     -7.806593      4.290710     -3.224899
    58     -9.174637     -5.807263      5.168635
    59    -10.096410     -4.330266      4.742974
    60    -10.456064     -6.639454      6.203920
    61      1.679985     -9.078753      6.255838
    62      2.431176    -10.733960      5.715021
    63      1.692539     -7.811812      4.867438
    64     10.383034     -8.030351      7.439198
    65     10.873505     -9.823826      7.301975
    66     10.016614     -7.973363      9.281210
    67      2.581326      6.421325     10.775315
    68      4.243189      7.166363     10.712549
    69      2.498012      5.423270     12.198277
    70     10.697282     -7.832049    -10.844624
    71     10.958992     -6.163810    -10.179864
    72      9.834481     -8.876826     -9.439169
    73      9.119038      8.653957      4.365834
    74      9.528644      9.463161      2.750101
    75      9.566642      6.912694      4.505991
    76      1.147835     -1.414965      7.080469
    77      2.534544     -1.633368      8.362276
    78      2.091290     -0.042330      6.090723
    79     -0.945124      9.922332    -11.196399
    80     -1.556728      8.912124     -9.827322
    81      0.244389      8.864495    -12.106614
    82     -4.581957     -0.240095     -6.138371
    83     -6.087989      0.539766     -7.046535
    84     -3.273790      1.161378     -5.705187
    85      8.950552     -6.329224     -1.429275
    86      8.989106     -5.749055      0.319857
    87      8.092438     -4.882799     -2.184293
    88      7.963096      9.720498     11.107374
    89      7.169052     10.549993     12.657121
    90      9.594438     10.567388     10.896716
    91      2.042786      2.172106     -9.124635
    92      0.748940      1.078648    -10.081759
    93      3.498367      1.043751     -8.750957
    94     -1.239594     -9.203520     -7.779218
    95     -1.392367     -7.452105     -8.163158
    96     -1.097545    -10.148007     -9.341942
    97      5.682809      6.293381     -4.906508
    98      4.613061      7.593787     -4.212218
    99      7.354276      6.974252     -4.612290
   100      5.099093     -2.378627     -3.669523
   101      3.683987     -3.401084     -3.205998
   102      4.933824     -0.881536     -2.490402
   103      6.003730    -10.929488     -9.135021
   104      5.122653     -9.929643    -10.379895
   105      4.901069    -11.480899     -7.681466
   106     -9.439195     -0.659934     10.548064
   107     -8.783553     -0.003978      8.966633
   108     -8.375548     -2.126343     10.782399
   109      4.447470     -9.451363     -1.025360
   110      6.053133     -8.664005     -1.520863
   111      3.969198    -10.343123     -2.605337
   112      0.996292      6.570168      5.059107
   113     -0.393974      6.133940      6.308998
   114      2.119810      7.835275      5.835635
   115     -1.545856     -6.704678      9.578054
   116     -2.964073     -6.312439     10.670832
   117     -1.895792     -8.286553      8.593802
   118     -4.533207      6.775753     -7.782472
   119     -5.190250      5.074920     -7.721587
   120     -3.341193      7.283403     -6.377280
   121     -6.442445     -7.718535     -8.090755
   122     -4.995572     -7.855977     -6.963909
   123     -7.917932     -7.061956     -6.934819
   124      2.408467     11.698259     -5.242348
   125      1.436283      9.955682     -5.319776
   126      1.229524     12.968004     -6.143297
   127     -9.049175      9.260357     -8.417141
   128     -8.970740     10.479737     -9.859502
   129     -7.294791      8.758351     -8.029616
   130     -0.434329      7.644360     -4.214303
   131     -0.098304      5.740149     -4.167676
   132     -0.704012      8.182199     -2.400238
   133      4.684735     10.122463      6.802536
   134      5.757024     10.282433      8.355269
   135      5.896660     10.117868      5.361646
   136      9.995245     11.431473     -0.082239
   137     11.588214     12.186893      0.240791
   138      8.956867     12.849448     -0.404543
   139     -1.625522      8.511183      0.401098
   140     -0.402840      8.514352      1.831472
   141     -2.584403     10.020012      0.856216
   142      6.420505     -0.787489     -8.313083
   143      6.056200     -1.415299     -6.619295
   144      7.582902      0.685243     -8.280247
   145     -8.225783      0.401584      1.440550
   146     -9.117700      1.741420      0.496629
   147     -9.769476     -0.327004      2.301800
   148      5.665450      2.073918     -1.456675
   149      5.744406      3.481391     -2.734575
   150      4.943936      2.799110      0.191614
   151     -8.170187    -10.577338     11.422489
   152     -7.031469     -9.779775     12.611293
   153     -9.685931     -9.529129     11.383238
   154     -9.762824     -5.408625     -4.466670
   155     -8.663421     -4.390055     -3.147093
   156    -11.222654     -6.100807     -3.484460
   157      9.412473     -1.294678      8.612744
   158     10.686260     -1.357634      9.967056
   159      7.708036     -1.775184      9.422299
   160      9.569762      3.569492      4.756342
   161     10.243922      2.013577      4.016501
   162      9.437629      3.316900      6.581691
   163     -3.798149    -10.839571      2.685633
   164     -2.715759    -10.846950      4.297904
   165     -3.510573     -9.107684      1.914155
   166     -6.356455      0.377849      6.138361
   167     -7.066068      0.741513      4.442293
   168     -5.331828     -1.076499      5.859532
   169      7.841137     -5.169624      3.561612
   170      5.994557     -4.936280      3.731676
   171      8.321715     -6.235917      5.038048
   172     11.426053     -1.386496      4.184921
   173     10.655661     -1.400782      5.982153
   174     10.114005     -2.592591      3.435208
   175     11.453906     -2.948617     -8.745794
   176     11.978010     -3.592205     -7.075195
   177      9.704280     -2.558001     -8.461927
 
  MM charges 
  ---------- 
     1     -0.674440
     2      0.337220
     3      0.337220
     4     -0.674440
     5      0.337220
     6      0.337220
     7     -0.674440
     8      0.337220
     9      0.337220
    10     -0.674440
    11      0.337220
    12      0.337220
    13     -0.674440
    14      0.337220
    15      0.337220
    16     -0.674440
    17      0.337220
    18      0.337220
    19     -0.674440
    20      0.337220
    21      0.337220
    22     -0.674440
    23      0.337220
    24      0.337220
    25     -0.674440
    26      0.337220
    27      0.337220
    28     -0.674440
    29      0.337220
    30      0.337220
    31     -0.674440
    32      0.337220
    33      0.337220
    34     -0.674440
    35      0.337220
    36      0.337220
    37     -0.674440
    38      0.337220
    39      0.337220
    40     -0.674440
    41      0.337220
    42      0.337220
    43     -0.674440
    44      0.337220
    45      0.337220
    46     -0.674440
    47      0.337220
    48      0.337220
    49     -0.674440
    50      0.337220
    51      0.337220
    52     -0.674440
    53      0.337220
    54      0.337220
    55     -0.674440
    56      0.337220
    57      0.337220
    58     -0.674440
    59      0.337220
    60      0.337220
    61     -0.674440
    62      0.337220
    63      0.337220
    64     -0.674440
    65      0.337220
    66      0.337220
    67     -0.674440
    68      0.337220
    69      0.337220
    70     -0.674440
    71      0.337220
    72      0.337220
    73     -0.674440
    74      0.337220
    75      0.337220
    76     -0.674440
    77      0.337220
    78      0.337220
    79     -0.674440
    80      0.337220
    81      0.337220
    82     -0.674440
    83      0.337220
    84      0.337220
    85     -0.674440
    86      0.337220
    87      0.337220
    88     -0.674440
    89      0.337220
    90      0.337220
    91     -0.674440
    92      0.337220
    93      0.337220
    94     -0.674440
    95      0.337220
    96      0.337220
    97     -0.674440
    98      0.337220
    99      0.337220
   100     -0.674440
   101      0.337220
   102      0.337220
   103     -0.674440
   104      0.337220
   105      0.337220
   106     -0.674440
   107      0.337220
   108      0.337220
   109     -0.674440
   110      0.337220
   111      0.337220
   112     -0.674440
   113      0.337220
   114      0.337220
   115     -0.674440
   116      0.337220
   117      0.337220
   118     -0.674440
   119      0.337220
   120      0.337220
   121     -0.674440
   122      0.337220
   123      0.337220
   124     -0.674440
   125      0.337220
   126      0.337220
   127     -0.674440
   128      0.337220
   129      0.337220
   130     -0.674440
   131      0.337220
   132      0.337220
   133     -0.674440
   134      0.337220
   135      0.337220
   136     -0.674440
   137      0.337220
   138      0.337220
   139     -0.674440
   140      0.337220
   141      0.337220
   142     -0.674440
   143      0.337220
   144      0.337220
   145     -0.674440
   146      0.337220
   147      0.337220
   148     -0.674440
   149      0.337220
   150      0.337220
   151     -0.674440
   152      0.337220
   153      0.337220
   154     -0.674440
   155      0.337220
   156      0.337220
   157     -0.674440
   158      0.337220
   159      0.337220
   160     -0.674440
   161      0.337220
   162      0.337220
   163     -0.674440
   164      0.337220
   165      0.337220
   166     -0.674440
   167      0.337220
   168      0.337220
   169     -0.674440
   170      0.337220
   171      0.337220
   172     -0.674440
   173      0.337220
   174      0.337220
   175     -0.674440
   176      0.337220
   177      0.337220
 
  MM isotropic polarizabilities in au 
  ----------------------------------- 
     1      5.739350
     2      2.308390
     3      2.308390
     4      5.739350
     5      2.308390
     6      2.308390
     7      5.739350
     8      2.308390
     9      2.308390
    10      5.739350
    11      2.308390
    12      2.308390
    13      5.739350
    14      2.308390
    15      2.308390
    16      5.739350
    17      2.308390
    18      2.308390
    19      5.739350
    20      2.308390
    21      2.308390
    22      5.739350
    23      2.308390
    24      2.308390
    25      5.739350
    26      2.308390
    27      2.308390
    28      5.739350
    29      2.308390
    30      2.308390
    31      5.739350
    32      2.308390
    33      2.308390
    34      5.739350
    35      2.308390
    36      2.308390
    37      5.739350
    38      2.308390
    39      2.308390
    40      5.739350
    41      2.308390
    42      2.308390
    43      5.739350
    44      2.308390
    45      2.308390
    46      5.739350
    47      2.308390
    48      2.308390
    49      5.739350
    50      2.308390
    51      2.308390
    52      5.739350
    53      2.308390
    54      2.308390
    55      5.739350
    56      2.308390
    57      2.308390
    58      5.739350
    59      2.308390
    60      2.308390
    61      5.739350
    62      2.308390
    63      2.308390
    64      5.739350
    65      2.308390
    66      2.308390
    67      5.739350
    68      2.308390
    69      2.308390
    70      5.739350
    71      2.308390
    72      2.308390
    73      5.739350
    74      2.308390
    75      2.308390
    76      5.739350
    77      2.308390
    78      2.308390
    79      5.739350
    80      2.308390
    81      2.308390
    82      5.739350
    83      2.308390
    84      2.308390
    85      5.739350
    86      2.308390
    87      2.308390
    88      5.739350
    89      2.308390
    90      2.308390
    91      5.739350
    92      2.308390
    93      2.308390
    94      5.739350
    95      2.308390
    96      2.308390
    97      5.739350
    98      2.308390
    99      2.308390
   100      5.739350
   101      2.308390
   102      2.308390
   103      5.739350
   104      2.308390
   105      2.308390
   106      5.739350
   107      2.308390
   108      2.308390
   109      5.739350
   110      2.308390
   111      2.308390
   112      5.739350
   113      2.308390
   114      2.308390
   115      5.739350
   116      2.308390
   117      2.308390
   118      5.739350
   119      2.308390
   120      2.308390
   121      5.739350
   122      2.308390
   123      2.308390
   124      5.739350
   125      2.308390
   126      2.308390
   127      5.739350
   128      2.308390
   129      2.308390
   130      5.739350
   131      2.308390
   132      2.308390
   133      5.739350
   134      2.308390
   135      2.308390
   136      5.739350
   137      2.308390
   138      2.308390
   139      5.739350
   140      2.308390
   141      2.308390
   142      5.739350
   143      2.308390
   144      2.308390
   145      5.739350
   146      2.308390
   147      2.308390
   148      5.739350
   149      2.308390
   150      2.308390
   151      5.739350
   152      2.308390
   153      2.308390
   154      5.739350
   155      2.308390
   156      2.308390
   157      5.739350
   158      2.308390
   159      2.308390
   160      5.739350
   161      2.308390
   162      2.308390
   163      5.739350
   164      2.308390
   165      2.308390
   166      5.739350
   167      2.308390
   168      2.308390
   169      5.739350
   170      2.308390
   171      2.308390
   172      5.739350
   173      2.308390
   174      2.308390
   175      5.739350
   176      2.308390
   177      2.308390


     ************************************************************************
     ************************** Output from HERINT **************************
     ************************************************************************



                      Nuclear contribution to dipole moments
                      --------------------------------------

                 au               Debye          C m (/(10**-30)

      x     25.89601880        65.82111017       219.55559060
      y    -52.58005151      -133.64515178      -445.79224130
      z     44.87467244       114.06003300       380.46331705



 Threshold for neglecting two-electron integrals:  1.00D-12
 HERMIT - Number of two-electron integrals written:    30051486 ( 39.1% )
 HERMIT - Megabytes written:                            344.104

  Time used in TWOINT     is       5.73 seconds
  Total CPU  time used in HERMIT:   5.92 seconds
  Total wall time used in HERMIT:   9.88 seconds


                        .----------------------------------.
                        | End of Integral Section (HERMIT) |
                        `----------------------------------'



                   .--------------------------------------------.
                   | Starting in Wave Function Section (SIRIUS) |
                   `--------------------------------------------'

NCCEXCI for singlet:    1
 CCSD_INPUT: core-val requested
 Requested number of virtual orbs per sym
                     1
 Indices of requested virtual orbs
                     1
 CCSD_INPUT: core-val requested
 Requested number of core orbs per sym
                     1
 Indices of requested core orbs
                     1

 *** Output from Huckel module :

     Using EWMO model:          T
     Using EHT  model:          F
     Number of Huckel orbitals each symmetry:   36

 EWMO - Energy Weighted Maximum Overlap - is a Huckel type method,
        which normally is better than Extended Huckel Theory.
 Reference: Linderberg and Ohrn, Propagators in Quantum Chemistry (Wiley, 1973)

 Huckel EWMO eigenvalues for symmetry :  1
          -20.684788     -20.684209     -20.684008     -20.683878     -15.674012
           -1.712194      -1.617741      -1.576186      -1.535967      -1.453698
           -0.823242      -0.805495      -0.793463      -0.770507      -0.743748
           -0.709808      -0.690679      -0.688992      -0.674169      -0.656222
           -0.616036      -0.613626      -0.605517      -0.597559      -0.509399
           -0.267930      -0.250863      -0.244801      -0.227111      -0.189130
           -0.184271      -0.182311      -0.173010      -0.160155      -0.150660
           -0.140415

 **********************************************************************
 *SIRIUS* a direct, restricted step, second order MCSCF program       *
 **********************************************************************

 
     Date and time (Linux)  : Thu Nov 29 08:58:29 2018
     Host name              : n-62-29-8                               

 Title lines from ".mol" input file:
                                                                             
                                                                             

 Print level on unit LUPRI =   2 is   0
 Print level on unit LUW4  =   2 is  11

@    (Integral direct) CC calculation.

@    This is a combination run starting with
@              a restricted, closed shell Hartree-Fock calculation


 Initial molecular orbitals are obtained according to
 ".MOSTART EWMO  " input option

@    QM part is embedded in an environment :

@         Model: QMMM

     Wave function specification
     ============================

     For the specification of the Coupled Cluster: see later.

@    Wave function type        --- CC ---
@    Number of closed shell electrons          50
@    Number of electrons in active shells       0
@    Total charge of the molecule               0

@    Spin multiplicity and 2 M_S                1         0
@    Total number of symmetries                 1 (point group: C1 )
@    Reference state symmetry                   1 (irrep name : A  )

     Orbital specifications
     ======================
@    Abelian symmetry species          All |    1
@                                          |  A  
                                       --- |  ---
@    Occupied SCF orbitals              25 |   25
@    Secondary orbitals                132 |  132
@    Total number of orbitals          157 |  157
@    Number of basis functions         157 |  157

     Optimization information
     ========================
@    Number of configurations                 1
@    Number of orbital rotations           3300
     ------------------------------------------
@    Total number of variables             3301

     Maximum number of Fock   iterations      0
     Maximum number of DIIS   iterations     60
     Maximum number of QC-SCF iterations     60
     Threshold for SCF convergence     1.00D-07


 Changes of defaults for CC:
 ---------------------------


 -Implicit frozen core calculation
 -Excitation energies calculated
 -One-photon absorption strengths will be calculated
 -Oscillator strengths calculated
  
* Read MO coefficients from SIRIUS.RST with label "NEWORB  " and header info: 29Nov18  REORTHO 


 ***********************************************
 ***** DIIS acceleration of SCF iterations *****
 ***********************************************

 C1-DIIS algorithm; max error vectors =    8
 -----------------------------------------------------------------------------

 *** DIIS iteration number    1
 RDSUPM called. NFMAT, ISYMDM(1:NFMAT)                     1
                     1

Calculating AOSUPINT
     (Precalculated two-electron integrals are transformed to P-supermatrix elements.
      Threshold for discarding integrals :  1.00D-12 )
  CPU  time used in FORMSUP    is   4.54 seconds
  WALL time used in FORMSUP    is  16.11 seconds

 ITDIIS, energy, error norm, change in energy, scr.thr., difden:
@ DIIS iter.   1    -359.947083557        3.72464D+00   -3.60D+02  -20    F

 (DIIS_RED) Control Parameters C2DIIS =         F NEVC =    1


 (DIIS_RED) B matrix:

               Column   1
       1      13.87295090
    ==== End of matrix output ====

 DIIS C vector; C2DIIS = F, LAMBDA = -1.39D+01
    1.000000
* Read MO coefficients from SIRIUS.RST with label "NEWORB  " and header info: 29Nov18  DIIS   1
      Virial theorem: -V/T =      1.998522
@      MULPOP N      -0.36; H       0.15; H       0.17; H       0.17; O      -0.61; O      -0.59; O      -0.82; O      -0.69; H       0.32; H       0.31; 
@             H       0.33; H       0.32; H       0.32; H       0.32; H       0.32; H       0.34; 
   1  Level shift: doubly occupied orbital energies shifted by -2.00D-01

 DIIS Fock eigenvalues in symmetry 1
      -20.74857      -20.71950      -20.68700      -20.55972      -15.99973
       -1.55657       -1.53803       -1.53752       -1.46215       -1.44663
       -0.97465       -0.94561       -0.93793       -0.91939       -0.91418
       -0.87371       -0.80987       -0.79069       -0.78468       -0.76314
       -0.75763       -0.75689       -0.74116       -0.70907       -0.68200
        0.00000        0.09291        0.13917        0.17161        0.19368
        0.22375        0.22987        0.23963        0.26811        0.27709
        0.30423        0.35998        0.40262        0.45132        0.48007
        0.51829        0.53522        0.55133        0.55807        0.57730
        0.58224        0.59634        0.61118        0.81566        0.84931
        0.86480        0.94142        0.95373        0.97316        0.99352
        1.00812        1.01439        1.03412        1.04700        1.07818
        1.11746        1.13529        1.14172        1.23168        1.26651
        1.27586        1.31335        1.34640        1.38903        1.43747
        1.44807        1.46017        1.48816        1.49334        1.52043
        1.52793        1.55504        1.63704        1.64327        1.66563
        1.68935        1.70378        1.71871        1.79111        1.82583
        1.83054        1.84291        1.84967        1.85374        1.92654
        2.10115        2.12289        2.15912        2.16103        2.21330
        2.24821        2.26960        2.29461        2.35339        2.39549
        2.47203        2.54169        2.57242        2.58097        2.60158
        2.66018        2.67839        2.75119        2.75807        2.76119
        2.78118        2.81873        2.86981        2.89856        3.06393
        3.28441        3.31768        3.38718        3.38970        3.42811
        3.42889        3.45164        3.46244        3.47847        3.55239
        3.59800        3.59982        3.61825        3.63800        3.93721
        3.95300        3.97258        4.06536        4.15942        4.16860
        4.18699        4.21583        4.39214        4.97110        5.10260
        5.30221        5.35911        5.39617        5.40743        5.69925
        5.70607        5.71073        5.71939        6.01489        6.03010
        6.10472        6.16929       36.78076       51.50452       51.52740
       51.59673       51.71479
 Time used in FCKEIG, thr_jaco:   4.30D-02  9.80D-02  1.62D-04
 CPU and wall times used in FCKEIG, THR_FCKEIG:   4.30D-02  9.80D-02  3.72D-02
 -----------------------------------------------------------------------------

 *** DIIS iteration number    2
 RDSUPM called. NFMAT, ISYMDM(1:NFMAT)                     1
                     1

 ITDIIS, energy, error norm, change in energy, scr.thr., difden:
@ DIIS iter.   2    -360.712367317        9.28674D-01   -7.65D-01  -20    F

 (DIIS_RED) Control Parameters C2DIIS =         F NEVC =    2


 (DIIS_RED) B matrix:

               Column   1     Column   2
       1      13.87295090
       2       0.88705734     0.86243609
    ==== End of matrix output ====

 DIIS C vector; C2DIIS = F, LAMBDA = -8.62D-01
   -0.001900    1.001900
* Read MO coefficients from SIRIUS.RST with label "NEWORB  " and header info: 29Nov18  DIIS   2
      Virial theorem: -V/T =      2.005043
@      MULPOP N      -0.65; H       0.23; H       0.24; H       0.21; O      -0.59; O      -0.61; O      -0.72; O      -0.59; H       0.33; H       0.28; 
@             H       0.32; H       0.33; H       0.32; H       0.33; H       0.30; H       0.27; 
   2  Level shift: doubly occupied orbital energies shifted by -5.00D-02

 DIIS Fock eigenvalues in symmetry 1
      -20.67569      -20.65955      -20.63967      -20.62882      -15.48432
       -1.40097       -1.38460       -1.38407       -1.37629       -1.16173
       -0.76344       -0.74954       -0.74839       -0.74351       -0.68187
       -0.66006       -0.65192       -0.63837       -0.63687       -0.63138
       -0.59277       -0.58910       -0.58876       -0.58036       -0.46194
        0.00000        0.14148        0.17320        0.20280        0.22589
        0.24577        0.26211        0.27072        0.29570        0.30743
        0.32833        0.38106        0.47130        0.50161        0.52563
        0.55633        0.57295        0.58768        0.59122        0.60164
        0.61998        0.63928        0.68201        0.89454        0.92696
        0.94359        0.96412        0.98153        0.98532        1.00526
        1.02016        1.04223        1.06032        1.06780        1.09386
        1.12480        1.14126        1.17579        1.29287        1.30093
        1.32852        1.37893        1.39941        1.42679        1.49417
        1.50485        1.52064        1.52556        1.54076        1.54917
        1.56831        1.59308        1.66070        1.69223        1.71892
        1.74458        1.75553        1.79309        1.85678        1.88843
        1.89809        1.90674        1.90926        1.93923        1.99621
        2.20495        2.20777        2.21818        2.23860        2.25582
        2.26366        2.32667        2.36086        2.44627        2.47984
        2.52822        2.60868        2.64029        2.65013        2.66847
        2.71758        2.73810        2.81054        2.82588        2.83091
        2.84059        2.91730        3.02425        3.05000        3.21523
        3.36358        3.40414        3.41928        3.42515        3.46617
        3.47655        3.47983        3.48825        3.50018        3.51677
        3.56599        3.62322        3.63589        3.64538        3.95852
        3.96925        3.98528        4.02562        4.12910        4.18736
        4.19282        4.22613        4.58114        5.19581        5.27567
        5.29325        5.32993        5.36024        5.37909        5.58329
        5.67695        5.69501        5.72516        6.03647        6.04176
        6.06669        6.09038       37.13961       51.45205       51.45550
       51.46208       51.49911
 Time used in FCKEIG, thr_jaco:   3.70D-02  5.40D-02  4.04D-05
 CPU and wall times used in FCKEIG, THR_FCKEIG:   3.70D-02  5.40D-02  9.29D-03
 -----------------------------------------------------------------------------

 *** DIIS iteration number    3
 RDSUPM called. NFMAT, ISYMDM(1:NFMAT)                     1
                     1

 ITDIIS, energy, error norm, change in energy, scr.thr., difden:
@ DIIS iter.   3    -360.773382713        3.53931D-01   -6.10D-02  -20    F

 (DIIS_RED) Control Parameters C2DIIS =         F NEVC =    3


 (DIIS_RED) B matrix:

               Column   1     Column   2     Column   3
       1      13.87295090
       2       0.88705734     0.86243609
       3       0.65806230     0.04468732     0.12526700
    ==== End of matrix output ====

 DIIS C vector; C2DIIS = F, LAMBDA = -9.31D-02
   -0.044576    0.105061    0.939515
* Read MO coefficients from SIRIUS.RST with label "NEWORB  " and header info: 29Nov18  DIIS   3
      Virial theorem: -V/T =      2.002539
@      MULPOP N      -0.58; H       0.21; H       0.21; H       0.19; O      -0.65; O      -0.67; O      -0.82; O      -0.66; H       0.36; H       0.31; 
@             H       0.35; H       0.36; H       0.38; H       0.36; H       0.35; H       0.30; 
   3  Level shift: doubly occupied orbital energies shifted by -2.50D-02

 DIIS Fock eigenvalues in symmetry 1
      -20.57829      -20.57464      -20.56591      -20.52185      -15.59178
       -1.35377       -1.34590       -1.34444       -1.30868       -1.17289
       -0.71871       -0.70986       -0.70315       -0.69672       -0.67555
       -0.64985       -0.60942       -0.59565       -0.59117       -0.57057
       -0.54065       -0.53731       -0.53423       -0.51311       -0.46082
        0.00000        0.14522        0.17716        0.20738        0.23152
        0.24903        0.26479        0.27353        0.29895        0.31024
        0.33260        0.38612        0.47037        0.50945        0.53106
        0.56753        0.58153        0.59536        0.60210        0.60891
        0.63054        0.64629        0.68086        0.89783        0.92790
        0.95152        0.97581        0.99040        1.00393        1.02017
        1.02237        1.05416        1.07226        1.08137        1.10679
        1.14207        1.15448        1.18670        1.29333        1.31177
        1.33347        1.38722        1.39980        1.43841        1.50560
        1.51491        1.53311        1.53759        1.55080        1.55906
        1.57861        1.60430        1.67714        1.70531        1.72780
        1.75478        1.76411        1.79620        1.86207        1.89698
        1.90457        1.90932        1.91912        1.94040        1.99892
        2.20536        2.21723        2.22108        2.23486        2.27121
        2.27484        2.33938        2.37184        2.46285        2.47967
        2.54221        2.61729        2.65111        2.65700        2.67772
        2.72657        2.74457        2.81982        2.83246        2.83810
        2.84756        2.91618        2.99983        3.02680        3.19084
        3.41067        3.42523        3.43187        3.44749        3.45706
        3.47629        3.50259        3.50596        3.51142        3.54957
        3.61517        3.64468        3.65629        3.67530        3.98434
        3.99060        4.00834        4.07151        4.17608        4.21273
        4.21987        4.25289        4.52658        5.14387        5.27863
        5.32078        5.35550        5.39623        5.40389        5.65676
        5.71716        5.72661        5.74661        6.06410        6.06531
        6.13010        6.13917       37.01124       51.49707       51.50012
       51.55130       51.58205
 Time used in FCKEIG, thr_jaco:   3.00D-02  4.70D-02  1.54D-05
 CPU and wall times used in FCKEIG, THR_FCKEIG:   3.00D-02  4.70D-02  3.54D-03
 -----------------------------------------------------------------------------

 *** DIIS iteration number    4
 RDSUPM called. NFMAT, ISYMDM(1:NFMAT)                     1
                     1

 ITDIIS, energy, error norm, change in energy, scr.thr., difden:
@ DIIS iter.   4    -360.781943472        1.15944D-01   -8.56D-03  -20    F

 (DIIS_RED) Control Parameters C2DIIS =         F NEVC =    4


 (DIIS_RED) B matrix:

               Column   1     Column   2     Column   3     Column   4
       1      13.87295090
       2       0.88705734     0.86243609
       3       0.65806230     0.04468732     0.12526700
       4      -0.00406191     0.08149013    -0.00869621     0.01344300
    ==== End of matrix output ====

 DIIS C vector; C2DIIS = F, LAMBDA = -4.19D-03
    0.000279   -0.093061    0.131861    0.960921
* Read MO coefficients from SIRIUS.RST with label "NEWORB  " and header info: 29Nov18  DIIS   4
      Virial theorem: -V/T =      2.003629
@      MULPOP N      -0.65; H       0.23; H       0.22; H       0.21; O      -0.66; O      -0.69; O      -0.81; O      -0.67; H       0.37; H       0.31; 
@             H       0.36; H       0.37; H       0.39; H       0.37; H       0.35; H       0.30; 
   4  Level shift: doubly occupied orbital energies shifted by -1.25D-02

 DIIS Fock eigenvalues in symmetry 1
      -20.57357      -20.57220      -20.57076      -20.54674      -15.54976
       -1.34609       -1.33803       -1.33708       -1.30835       -1.15130
       -0.70975       -0.70083       -0.69435       -0.69002       -0.65805
       -0.62975       -0.59966       -0.58545       -0.58160       -0.56670
       -0.52928       -0.52558       -0.52241       -0.50925       -0.43836
        0.00000        0.14477        0.17577        0.20705        0.23057
        0.24800        0.26513        0.27402        0.29891        0.31131
        0.33254        0.38651        0.47370        0.51032        0.53229
        0.56693        0.58031        0.59304        0.59944        0.60817
        0.62905        0.64491        0.68350        0.90082        0.93177
        0.95452        0.97547        0.99005        1.00113        1.01928
        1.02351        1.05384        1.07114        1.08002        1.10461
        1.13917        1.15219        1.18507        1.29502        1.30953
        1.33363        1.38793        1.40312        1.43769        1.50364
        1.51201        1.53105        1.53573        1.54890        1.55732
        1.57637        1.60251        1.67464        1.70342        1.72535
        1.75343        1.76274        1.79838        1.86187        1.89518
        1.90372        1.91126        1.91725        1.94361        2.00107
        2.20901        2.21385        2.22111        2.23861        2.26764
        2.27077        2.33567        2.36890        2.46178        2.48260
        2.54170        2.61594        2.64983        2.65653        2.67654
        2.72497        2.74606        2.81854        2.83071        2.83695
        2.84725        2.91961        3.00919        3.03571        3.19953
        3.40192        3.42197        3.43184        3.45061        3.45716
        3.48489        3.49905        3.50328        3.50747        3.53953
        3.60412        3.64123        3.65443        3.67084        3.98101
        3.98664        4.00473        4.06126        4.16630        4.20906
        4.21614        4.24931        4.54116        5.15881        5.29266
        5.31460        5.33636        5.39033        5.39824        5.63773
        5.70996        5.71952        5.74339        6.05773        6.06088
        6.12033        6.12200       37.04027       51.48794       51.48938
       51.53672       51.54549
 Time used in FCKEIG, thr_jaco:   2.80D-02  3.70D-02  5.05D-06
 CPU and wall times used in FCKEIG, THR_FCKEIG:   2.80D-02  3.70D-02  1.16D-03
 -----------------------------------------------------------------------------

 *** DIIS iteration number    5
 RDSUPM called. NFMAT, ISYMDM(1:NFMAT)                     1
                     1

 ITDIIS, energy, error norm, change in energy, scr.thr., difden:
@ DIIS iter.   5    -360.783104322        2.52625D-02   -1.16D-03  -20    F

 (DIIS_RED) Control Parameters C2DIIS =         F NEVC =    5


 (DIIS_RED) B matrix:

               Column   1     Column   2     Column   3     Column   4     Column   5
       1      13.87295090
       2       0.88705734     0.86243609
       3       0.65806230     0.04468732     0.12526700
       4      -0.00406191     0.08149013    -0.00869621     0.01344300
       5       0.01468452     0.00647795     0.00521678     0.00089914     0.00063819
    ==== End of matrix output ====

 DIIS C vector; C2DIIS = F, LAMBDA = -3.60D-04
    0.001473    0.005209   -0.064698   -0.125325    1.183342
* Read MO coefficients from SIRIUS.RST with label "NEWORB  " and header info: 29Nov18  DIIS   5
      Virial theorem: -V/T =      2.003213
@      MULPOP N      -0.64; H       0.23; H       0.22; H       0.20; O      -0.67; O      -0.70; O      -0.83; O      -0.68; H       0.37; H       0.32; 
@             H       0.37; H       0.37; H       0.40; H       0.37; H       0.36; H       0.31; 

 DIIS Fock eigenvalues in symmetry 1
      -20.55950      -20.55915      -20.55589      -20.52781      -15.53274
       -1.33293       -1.32512       -1.32418       -1.29365       -1.13769
       -0.69730       -0.68845       -0.68182       -0.67661       -0.64484
       -0.61641       -0.58708       -0.57299       -0.56922       -0.55235
       -0.51537       -0.51154       -0.50858       -0.49373       -0.42413
        0.00000        0.14466        0.17546        0.20712        0.23053
        0.24788        0.26513        0.27408        0.29883        0.31143
        0.33256        0.38676        0.47396        0.51035        0.53250
        0.56716        0.58009        0.59265        0.59950        0.60814
        0.62911        0.64459        0.68381        0.90163        0.93275
        0.95537        0.97667        0.99113        1.00221        1.01993
        1.02416        1.05451        1.07137        1.08033        1.10479
        1.13958        1.15266        1.18509        1.29548        1.30967
        1.33392        1.38843        1.40356        1.43798        1.50331
        1.51140        1.53089        1.53593        1.54878        1.55746
        1.57604        1.60247        1.67503        1.70335        1.72479
        1.75340        1.76232        1.79840        1.86169        1.89462
        1.90333        1.91152        1.91693        1.94387        2.00131
        2.20913        2.21326        2.22083        2.23898        2.26760
        2.27094        2.33519        2.36831        2.46194        2.48299
        2.54221        2.61541        2.64948        2.65604        2.67616
        2.72455        2.74588        2.81796        2.82991        2.83639
        2.84689        2.91991        3.01011        3.03669        3.20044
        3.40421        3.42247        3.43224        3.45160        3.45824
        3.48608        3.49938        3.50354        3.50796        3.54168
        3.60631        3.64156        3.65442        3.67160        3.98144
        3.98689        4.00509        4.06341        4.16850        4.20949
        4.21661        4.24980        4.54338        5.16075        5.29455
        5.31585        5.34007        5.39154        5.39909        5.64125
        5.71101        5.72047        5.74354        6.05821        6.06093
        6.12279        6.12368       37.04469       51.48915       51.49074
       51.53862       51.55176
 Time used in FCKEIG, thr_jaco:   2.90D-02  4.40D-02  1.10D-06
 CPU and wall times used in FCKEIG, THR_FCKEIG:   2.90D-02  4.40D-02  2.53D-04
 -----------------------------------------------------------------------------

 *** DIIS iteration number    6
 RDSUPM called. NFMAT, ISYMDM(1:NFMAT)                     1
                     1

 ITDIIS, energy, error norm, change in energy, scr.thr., difden:
@ DIIS iter.   6    -360.783197587        8.41566D-03   -9.33D-05  -20    F

 (DIIS_RED) Control Parameters C2DIIS =         F NEVC =    6


 (DIIS_RED) B matrix:

               Column   1     Column   2     Column   3     Column   4     Column   5     Column   6
       1      13.87295090
       2       0.88705734     0.86243609
       3       0.65806230     0.04468732     0.12526700
       4      -0.00406191     0.08149013    -0.00869621     0.01344300
       5       0.01468452     0.00647795     0.00521678     0.00089914     0.00063819
       6      -0.00218114    -0.00040807     0.00063203     0.00023330     0.00007413     0.00007082
    ==== End of matrix output ====

 DIIS C vector; C2DIIS = F, LAMBDA = -3.73D-05
    0.000525    0.008689   -0.024260   -0.093614    0.180469    0.928191
* Read MO coefficients from SIRIUS.RST with label "NEWORB  " and header info: 29Nov18  DIIS   6
      Virial theorem: -V/T =      2.003361
@      MULPOP N      -0.64; H       0.23; H       0.22; H       0.20; O      -0.67; O      -0.70; O      -0.83; O      -0.68; H       0.37; H       0.32; 
@             H       0.37; H       0.38; H       0.40; H       0.37; H       0.36; H       0.31; 

 DIIS Fock eigenvalues in symmetry 1
      -20.56017      -20.55940      -20.55646      -20.53011      -15.53652
       -1.33303       -1.32521       -1.32436       -1.29426       -1.13893
       -0.69754       -0.68879       -0.68210       -0.67730       -0.64591
       -0.61749       -0.58738       -0.57329       -0.56965       -0.55303
       -0.51536       -0.51146       -0.50848       -0.49415       -0.42520
        0.00000        0.14449        0.17531        0.20698        0.23038
        0.24773        0.26495        0.27393        0.29870        0.31126
        0.33243        0.38653        0.47356        0.51014        0.53224
        0.56685        0.57992        0.59246        0.59928        0.60788
        0.62894        0.64437        0.68340        0.90112        0.93223
        0.95476        0.97622        0.99089        1.00189        1.01975
        1.02369        1.05434        1.07116        1.08013        1.10451
        1.13931        1.15233        1.18493        1.29498        1.30951
        1.33359        1.38800        1.40303        1.43775        1.50309
        1.51113        1.53067        1.53558        1.54848        1.55709
        1.57580        1.60225        1.67471        1.70317        1.72454
        1.75310        1.76206        1.79797        1.86132        1.89437
        1.90302        1.91100        1.91676        1.94338        2.00083
        2.20851        2.21295        2.22038        2.23823        2.26733
        2.27044        2.33490        2.36805        2.46168        2.48240
        2.54171        2.61511        2.64922        2.65571        2.67587
        2.72424        2.74549        2.81772        2.82957        2.83606
        2.84655        2.91928        3.00895        3.03550        3.19931
        3.40343        3.42216        3.43181        3.45111        3.45732
        3.48481        3.49906        3.50336        3.50777        3.54089
        3.60561        3.64129        3.65426        3.67141        3.98123
        3.98660        4.00489        4.06261        4.16771        4.20923
        4.21639        4.24963        4.54138        5.15881        5.29272
        5.31538        5.33891        5.39128        5.39888        5.64003
        5.71066        5.72012        5.74335        6.05779        6.06068
        6.12216        6.12279       37.04099       51.48871       51.49017
       51.53812       51.54951
 Time used in FCKEIG, thr_jaco:   2.30D-02  2.50D-02  3.66D-07
 CPU and wall times used in FCKEIG, THR_FCKEIG:   2.30D-02  2.50D-02  8.42D-05
 -----------------------------------------------------------------------------

 *** DIIS iteration number    7
 RDSUPM called. NFMAT, ISYMDM(1:NFMAT)                     1
                     1

 ITDIIS, energy, error norm, change in energy, scr.thr., difden:
@ DIIS iter.   7    -360.783204819        2.53274D-03   -7.23D-06  -20    F

 (DIIS_RED) Control Parameters C2DIIS =         F NEVC =    7


 (DIIS_RED) B matrix:

               Column   1     Column   2     Column   3     Column   4     Column   5     Column   6
       1      13.87295090
       2       0.88705734     0.86243609
       3       0.65806230     0.04468732     0.12526700
       4      -0.00406191     0.08149013    -0.00869621     0.01344300
       5       0.01468452     0.00647795     0.00521678     0.00089914     0.00063819
       6      -0.00218114    -0.00040807     0.00063203     0.00023330     0.00007413     0.00007082
       7       0.00089623    -0.00003348     0.00009423    -0.00000506     0.00003947    -0.00000052

               Column   7
       7       0.00000641
    ==== End of matrix output ====

 DIIS C vector; C2DIIS = F, LAMBDA = -1.37D-06
   -0.000248   -0.001332    0.009287    0.024992   -0.160302    0.014821    1.112782
* Read MO coefficients from SIRIUS.RST with label "NEWORB  " and header info: 29Nov18  DIIS   7
      Virial theorem: -V/T =      2.003326
@      MULPOP N      -0.64; H       0.23; H       0.22; H       0.20; O      -0.67; O      -0.70; O      -0.83; O      -0.68; H       0.37; H       0.32; 
@             H       0.37; H       0.38; H       0.40; H       0.37; H       0.36; H       0.31; 

 DIIS Fock eigenvalues in symmetry 1
      -20.56003      -20.55944      -20.55634      -20.52942      -15.53587
       -1.33298       -1.32517       -1.32427       -1.29393       -1.13871
       -0.69755       -0.68875       -0.68209       -0.67710       -0.64575
       -0.61735       -0.58743       -0.57335       -0.56968       -0.55282
       -0.51523       -0.51135       -0.50839       -0.49380       -0.42495
        0.00000        0.14451        0.17531        0.20703        0.23040
        0.24776        0.26497        0.27394        0.29871        0.31128
        0.33244        0.38661        0.47364        0.51018        0.53230
        0.56696        0.57993        0.59246        0.59935        0.60792
        0.62896        0.64436        0.68348        0.90121        0.93236
        0.95490        0.97637        0.99101        1.00201        1.01981
        1.02378        1.05441        1.07119        1.08017        1.10458
        1.13939        1.15242        1.18494        1.29511        1.30955
        1.33367        1.38811        1.40311        1.43780        1.50307
        1.51111        1.53066        1.53570        1.54852        1.55717
        1.57580        1.60227        1.67486        1.70317        1.72453
        1.75320        1.76204        1.79800        1.86139        1.89434
        1.90306        1.91107        1.91674        1.94344        2.00093
        2.20856        2.21294        2.22039        2.23834        2.26733
        2.27054        2.33490        2.36800        2.46170        2.48246
        2.54187        2.61512        2.64921        2.65572        2.67588
        2.72430        2.74549        2.81778        2.82955        2.83604
        2.84658        2.91936        3.00913        3.03571        3.19947
        3.40374        3.42224        3.43187        3.45121        3.45748
        3.48503        3.49914        3.50337        3.50781        3.54120
        3.60592        3.64136        3.65426        3.67148        3.98126
        3.98666        4.00492        4.06292        4.16802        4.20931
        4.21645        4.24968        4.54176        5.15912        5.29303
        5.31552        5.33933        5.39135        5.39891        5.64045
        5.71075        5.72020        5.74333        6.05788        6.06068
        6.12242        6.12302       37.04162       51.48875       51.49026
       51.53821       51.55019
 Time used in FCKEIG, thr_jaco:   2.90D-02  1.16D-01  1.10D-07
 CPU and wall times used in FCKEIG, THR_FCKEIG:   2.90D-02  1.16D-01  2.53D-05
 -----------------------------------------------------------------------------

 *** DIIS iteration number    8
 RDSUPM called. NFMAT, ISYMDM(1:NFMAT)                     1
                     1

 ITDIIS, energy, error norm, change in energy, scr.thr., difden:
@ DIIS iter.   8    -360.783205473        3.67195D-04   -6.53D-07  -20    F

 (DIIS_RED) Control Parameters C2DIIS =         F NEVC =    8


 (DIIS_RED) B matrix:

               Column   1     Column   2     Column   3     Column   4     Column   5     Column   6
       1      13.87295090
       2       0.88705734     0.86243609
       3       0.65806230     0.04468732     0.12526700
       4      -0.00406191     0.08149013    -0.00869621     0.01344300
       5       0.01468452     0.00647795     0.00521678     0.00089914     0.00063819
       6      -0.00218114    -0.00040807     0.00063203     0.00023330     0.00007413     0.00007082
       7       0.00089623    -0.00003348     0.00009423    -0.00000506     0.00003947    -0.00000052
       8       0.00001770     0.00000279    -0.00000611     0.00000516     0.00000086     0.00000153

               Column   7     Column   8
       7       0.00000641
       8       0.00000030     0.00000013
    ==== End of matrix output ====

 DIIS C vector; C2DIIS = F, LAMBDA = -6.80D-08
    0.000017    0.000032   -0.000834   -0.002171    0.022831   -0.034815   -0.179868    1.194809
* Read MO coefficients from SIRIUS.RST with label "NEWORB  " and header info: 29Nov18  DIIS   8
      Virial theorem: -V/T =      2.003343
@      MULPOP N      -0.64; H       0.23; H       0.22; H       0.20; O      -0.68; O      -0.70; O      -0.83; O      -0.68; H       0.38; H       0.32; 
@             H       0.37; H       0.38; H       0.40; H       0.37; H       0.36; H       0.31; 

 DIIS Fock eigenvalues in symmetry 1
      -20.56004      -20.55941      -20.55632      -20.52947      -15.53590
       -1.33298       -1.32516       -1.32427       -1.29395       -1.13872
       -0.69754       -0.68875       -0.68208       -0.67711       -0.64576
       -0.61736       -0.58744       -0.57336       -0.56971       -0.55284
       -0.51523       -0.51134       -0.50837       -0.49382       -0.42496
        0.00000        0.14451        0.17531        0.20703        0.23040
        0.24776        0.26497        0.27394        0.29871        0.31128
        0.33244        0.38661        0.47363        0.51018        0.53230
        0.56695        0.57993        0.59246        0.59935        0.60792
        0.62895        0.64436        0.68348        0.90120        0.93236
        0.95489        0.97637        0.99100        1.00200        1.01980
        1.02377        1.05441        1.07119        1.08017        1.10458
        1.13939        1.15242        1.18494        1.29510        1.30955
        1.33366        1.38810        1.40310        1.43780        1.50307
        1.51111        1.53066        1.53569        1.54851        1.55716
        1.57580        1.60226        1.67485        1.70317        1.72453
        1.75319        1.76204        1.79800        1.86138        1.89434
        1.90305        1.91107        1.91674        1.94344        2.00092
        2.20856        2.21294        2.22039        2.23833        2.26733
        2.27054        2.33489        2.36800        2.46169        2.48246
        2.54185        2.61511        2.64920        2.65571        2.67587
        2.72430        2.74548        2.81776        2.82954        2.83603
        2.84657        2.91935        3.00912        3.03570        3.19946
        3.40372        3.42223        3.43187        3.45121        3.45747
        3.48502        3.49913        3.50338        3.50781        3.54118
        3.60590        3.64136        3.65427        3.67149        3.98126
        3.98665        4.00492        4.06290        4.16800        4.20930
        4.21645        4.24968        4.54173        5.15910        5.29302
        5.31550        5.33930        5.39135        5.39892        5.64042
        5.71075        5.72020        5.74334        6.05787        6.06069
        6.12241        6.12300       37.04160       51.48877       51.49026
       51.53822       51.55015
 Time used in FCKEIG, thr_jaco:   2.80D-02  4.50D-02  1.60D-08
 CPU and wall times used in FCKEIG, THR_FCKEIG:   2.80D-02  4.50D-02  3.67D-06
 -----------------------------------------------------------------------------

 *** DIIS iteration number    9
 RDSUPM called. NFMAT, ISYMDM(1:NFMAT)                     1
                     1

 ITDIIS, energy, error norm, change in energy, scr.thr., difden:
@ DIIS iter.   9    -360.783205492        8.71155D-05   -1.91D-08  -20    F

 (DIIS_RED) Control Parameters C2DIIS =         F NEVC =    8


 (DIIS_RED) B matrix:

               Column   1     Column   2     Column   3     Column   4     Column   5     Column   6
       1       0.00000001
       2       0.00000237     0.86243609
       3      -0.00000029     0.04468732     0.12526700
       4       0.00000027     0.08149013    -0.00869621     0.01344300
       5       0.00000019     0.00647795     0.00521678     0.00089914     0.00063819
[...]
 | 1 1 1 1 |   8   1  12   1 |     1460        1 |      1065071 |    0.069808  |
 | 1 1 1 1 |  10   1  12   1 |     1462        1 |      1067992 |   -0.105852  |
 | 1 1 1 1 |  24   1  12   1 |     1476        1 |      1088551 |    0.081496  |
 | 1 1 1 1 |  25   1  12   1 |     1477        1 |      1090027 |    0.136264  |
 | 1 1 1 1 |  31   1  12   1 |     1483        1 |      1098904 |   -0.116593  |
 | 1 1 1 1 | 114   1  12   1 |     1566        1 |      1225396 |    0.067842  |
 | 1 1 1 1 |  12   1  21   1 |     2652        1 |      3515227 |    0.133654  |
 | 1 1 1 1 |  24   1  21   1 |     2664        1 |      3547117 |   -0.144669  |
 | 1 1 1 1 |  25   1  21   1 |     2665        1 |      3549781 |    0.105002  |
 | 1 1 1 1 | 113   1  21   1 |     2753        1 |      3788129 |    0.105716  |
 +=============================================================================+


          Norm of Printed Amplitude Vector :             0.8761

          Printed all single excitations greater than 0.379294

          Printed all double excitations greater than 0.065157



+======================================================================+
| contributions of excitation levels to right eigenvectors as computed |
| from the (RE|RE) self overlap                                        |
+----------------------------------------------------------------------+
| sym | multi | state |    E / eV  | % singles | % doubles | % triples |
+======================================================================+
|    1|   1   |   1   |  406.62850 |  88.2373  |  11.7627  |   0.0000  |
+======================================================================+





+======================================================================+
| contributions of excitation levels to excited states as computed     |
| from the (LE|RE) overlap                                             |
+----------------------------------------------------------------------+
| sym | multi | state |    E / eV  | % singles | % doubles | % triples |
+======================================================================+
|    1|   1   |   1   |  406.62850 |  78.9585  |  21.0415  |   0.0000  |
+======================================================================+



 --------------------------
 Symmetry class Nr.:     1
 Multiplicity      :     3
 --------------------------

 Length of Excitation vectors in this class is:   7689528
 No Excitation Energies calculated in this symmetry class
     

   *******************************************************************
   *                                                                 *
   *--------   OUTPUT FROM PROPERTY AND SYMMETRY ANALYSIS   ---------*
   *                                                                 *
   *******************************************************************



                         +-------------------------------+
                         ! REQUESTED PROPERTY OPERATORS: !
                         +-------------------------------+

             Index   Oper. Label  Symmetry  Transp.  PDBS  Atom
             --------------------------------------------------
                1     HAM0            1        1      T      0
                2     XDIPLEN         1        1      F      0
                3     YDIPLEN         1        1      F      0
                4     ZDIPLEN         1        1      F      0
             --------------------------------------------------




                         +-------------------------------+
                         ! REQUESTED EXPECTATION VALUES: !
                         +-------------------------------+

                       Index   Oper. Label  Symmetry
                       -----------------------------
                       -----------------------------




                       +------------------------------------+
                       ! REQUESTED EFFECTIVE FOCK MATRICES: !
                       +------------------------------------+

                       Index   Oper. Label  Symmetry
                       -----------------------------
                       -----------------------------




                        +----------------------------------+
                        ! REQUESTED FIRST ORDER M-VECTORS: !
                        +----------------------------------+

               Index   State Symmetry  Frequency
               --------------------------------------------------
                  1             1    1     1.494332D+01
               --------------------------------------------------


      

    *******************************************************************
    *          SOLVING COUPLED CLUSTER RESPONSE EQUATIONS             *
    *******************************************************************



 
 +======================================================================+
 !                     RHS & ETA VECTORS TO COMPUTE:                    !
 +======================================================================+
 | TYPE | # VEC. |  NEEDED FOR:                                         |
 +----------------------------------------------------------------------+
 +======================================================================+



 +======================================================================+
 !                       LINEAR EQUATIONS TO SOLVE:                     !
 +======================================================================+
 | TYPE | # VEC. |  EQUATION:                                           |
 +----------------------------------------------------------------------+
 |  M1  |    1   |  first-order ground - excited state multipliers      |
 +======================================================================+



 +======================================================================+
 !                F MATRIX TRANSFORMATIONS TO COMPUTE:                  !
 +======================================================================+
 | TYPE | # VEC. |  TRANSFORMED:                                        |
 +----------------------------------------------------------------------+
 |  FR  |    1   |  right eigenvectors (RE)                             |
 +======================================================================+





 Testing R1 list: 

 List nr.  Label     Symmetry      Frequency      T1-norm        T2-norm


 Testing L1 list: 

 List nr.  Label     Symmetry      Frequency      T1-norm        T2-norm
  Solvent 1-order response equations converged in                     0 
  solvent iterations
 SONIAPRI                     0
 CCEQ_STR: CVSEPARATION =  T
 CCEQ_STR: IONIZATION =  T
 CCEQ_STR: REMOVE_CORE =  F
 could not find required file CCM1_1___1
 IOPTSV is    33 ... program continues nevertheless.
 Vector nr.  1 of type M1  and symmetry  1 was not found on file.
     M1  start vector nr.  1 of symmetry  1 generated from gradient
 CCEQ_STR: freeze VALENCE OR VIRT
 CCEQ_SOL: CVSEPARA=     T
 CCEQ_SOL: LIONISAT=     T
 CCEQ_SOL: REMOVE_CORE =  F



 ----- COUPLED CLUSTER RESPONSE SOLVER -----

    Iter  #Vectors  time (min)   residual
    --------------------------------------
 CCRED CVS/IONIS sigma_                     1 
 project out valence occupied or virtual
      1       1         1.26     0.32E+00
 CCRED CVS/IONIS sigma_                     2 
 project out valence occupied or virtual
      2       1         1.25     0.70E-01
 CCRED CVS/IONIS sigma_                     3 
 project out valence occupied or virtual
                    -1  vectors with norm le:  1.000000000000000E-035  REMOVED

 CCORT,**WARNING**  number vectors added is zero after check for vector norm , NBADD :    0

 CCORT, number vectors added is zero , NBADD :    0

 CCORT, number vectors added is zero , NBADD :    0

 CCORT, number vectors added is zero , NBADD :    0

 *** MICROITERATIONS STOPPED DUE TO LINEAR DEPENDENCE BETWEEN ALL NEW TRIAL VECTORS
                     0  trial vectors converged
  LINEAR DEPENDENCE BETWEEN                     1  NON CONVERGED TRIAL VECTORS
      3       1         1.25     0.73E-02

 ***  CCEQ_SOL -MICROITERATIONS STOPPED  
     LINEAR DEPENDENCE BETWEEN ALL NEW TRIAL VECTORS
    --------------------------------------
    converged in  3 iterations
    threshold:    0.10E-08


         Routine          Time (min)
         ---------------------------
         CC_TRDRV            3.76
         CCRED               0.02
         CCNEX               0.04
         ---------------------------
         Total time          3.82


  Total CPU  time used in CCEQ_SOLV:  3 minutes 49 seconds
  Total wall time used in CCEQ_SOLV:  7 minutes 14 seconds


 xxxxxxxxxxxxxxxxxxxxxxxxxxxxxxxxxxxxx

 
 Solution of CC response equations completed.
 

 *******************************************************************
 *                                                                 *
 *--------  OUTPUT FROM COUPLED CLUSTER LINEAR RESPONSE   ---------*
 *                                                                 *
 *--------      CALCULATION OF SECOND ORDER RESIDUES      ---------*
 *                                                                 *
 *******************************************************************



                  +---------------------------------------------+
                  ! CC_SOPR: Calculation of CCSD       Residues !
                  +---------------------------------------------+

 Doing the Mf*CsiA
 Doing the Mf*CsiA
 Doing the Mf*CsiA


 CCSD  Right transition moments in atomic units:
 -----------------------------------------------

  1      14.943323  <XDIPLEN |f> =       0.00000001
  1      14.943323  <YDIPLEN |f> =      -0.00000000
  1      14.943323  <ZDIPLEN |f> =      -0.00000000


 CCSD  Left  transition moments in atomic units:
 -----------------------------------------------

  1      14.943323  <f|XDIPLEN > =       0.00000000
  1      14.943323  <f|YDIPLEN > =      -0.00000000
  1      14.943323  <f|ZDIPLEN > =      -0.00000000


 CCSD  linear response residue property in atomic units:
 -------------------------------------------------------

 RES{<<XDIPLEN ,XDIPLEN >>(14.943323)} =     0.00000000 (   0.00000001)
 RES{<<XDIPLEN ,YDIPLEN >>(14.943323)} =    -0.00000000 (  -0.00000000)
 RES{<<XDIPLEN ,ZDIPLEN >>(14.943323)} =    -0.00000000 (  -0.00000000)
 RES{<<YDIPLEN ,XDIPLEN >>(14.943323)} =    -0.00000000 (  -0.00000000)
 RES{<<YDIPLEN ,YDIPLEN >>(14.943323)} =     0.00000000 (   0.00000000)
 RES{<<YDIPLEN ,ZDIPLEN >>(14.943323)} =     0.00000000 (   0.00000000)
 RES{<<ZDIPLEN ,XDIPLEN >>(14.943323)} =    -0.00000000 (  -0.00000000)
 RES{<<ZDIPLEN ,YDIPLEN >>(14.943323)} =     0.00000000 (   0.00000000)
 RES{<<ZDIPLEN ,ZDIPLEN >>(14.943323)} =     0.00000000 (   0.00000000)


 CCSD  Transition strength matrix for state nr.  1 of symmetry 1
 CCSD  excitation energy:14.94332272

 Gauge: length

               Column   1     Column   2     Column   3
       1     3.152447D-17  -3.496002D-18  -1.355765D-17
       2    -3.496002D-18   3.867638D-19   1.499781D-18
       3    -1.355765D-17   1.499781D-18   5.815797D-18
    ==== End of matrix output ====

 Principal values of diagonalized transition strength matrix:

             a.u.               
 1       0.00000000
 2       0.00000000
 3       0.00000000

 Principal axis of diagonalized transition strength matrix:


               Column   1     Column   2     Column   3
       1       1.00000000     0.00000000     0.00000000
       2       0.00000000     1.00000000     0.00000000
       3       0.00000000     0.00000000     1.00000000
    ==== End of matrix output ====


 CCSD   oscillator strength matrix for state nr.  1 of symmetry 1
 CCSD  excitation energy:14.94332272


               Column   1     Column   2     Column   3
       1     3.140536D-16  -3.482792D-17  -1.350642D-16
       2    -3.482792D-17   3.853024D-18   1.494115D-17
       3    -1.350642D-16   1.494115D-17   5.793823D-17
    ==== End of matrix output ====

 Principal values of diagonalized oscillator strength matrix:

             a.u.               
 1       0.00000000
 2       0.00000000
 3       0.00000000

 Principal axis of diagonalized oscillator strength matrix:


               Column   1     Column   2     Column   3
       1       1.00000000     0.00000000     0.00000000
       2       0.00000000     1.00000000     0.00000000
       3       0.00000000     0.00000000     1.00000000
    ==== End of matrix output ====

  Total time for      9 linear response residues:       2.84 seconds.
  

 *******************************************************************************
 *******************************************************************************
 *                                                                             *
 *                                                                             *
 *                   SUMMARY OF COUPLED CLUSTER CALCULATION                    *
 *                                                                             *
 *                                                                             *
 *******************************************************************************
 *******************************************************************************

                                                                                
                                                                                
            Total SCF   energy:                  -360.7832054929                
            Total MP2   energy:                  -361.8885053473                
            Total CCSD  energy:                  -361.9274382847                
                                                                                
                                                                                
            Total SCF   energy:                  -360.7832054929                
            Total RSTAR energy:                  -361.9274382847                
            Total CCSD  energy:                  -361.9275986607                
                                                                                
                                                                                
            Total SCF   energy:                  -360.7832054929                
            Total RSTAR energy:                  -361.9275986607                
            Total CCSD  energy:                  -361.9276009776                
                                                                                
                                                                                
            Total SCF   energy:                  -360.7832054929                
            Total RSTAR energy:                  -361.9276009776                
            Total CCSD  energy:                  -361.9276011680                
                                                                                
                                                                                
            Total SCF   energy:                  -360.7832054929                
            Total RSTAR energy:                  -361.9276011680                
            Total CCSD  energy:                  -361.9276011784                
                                                                                
                                                                                
            Total SCF   energy:                  -360.7832054929                
            Total RSTAR energy:                  -361.9276011784                
            Total CCSD  energy:                  -361.9276011789                
            CCSD Total  energy:                  -362.3579120336                
            CCSD E(QM/MM)     :                    -0.4243045366                
                                                                                
                                                                                
                                                                                
 +=============================================================================+
 |  sym. | Exci.  |        CCSD       Excitation energies            | ||T1||  |
 |(spin, |        +------------------------------------------------------------+
 | spat) |        |     Hartree    |       eV.      |     cm-1       |    %    |
 +=============================================================================+
 | ^1A   |    1   |    14.9433227  |     406.62850  |   3279680.216  |  88.24  |
 +=============================================================================+
                                                                                
                                                                                
     Total energies in Hartree:                                                 
             1 ^1A       -346.9902847722                                        
                                                                                
                                                                                
 +=============================================================================+
 |  sym. | Exci.  |        CCSD       Length   Gauge Oscillator Strength       |
 |(spin, |        +------------------------------------------------------------+
 | spat) |        | Dipole Strength(a.u.) | Oscillator strength  | Direction   |
 +=============================================================================+
 | ^1A   |    1   |        0.0000000      |      0.0000000       |    -        |
 +=============================================================================+

  1 a.u. =        27.21138 eV.  
  1 a.u. =    219474.62934 cm-1.
  

 *******************************************************************************
 *******************************************************************************
 *                                                                             *
 *                                                                             *
 *                      END OF COUPLED CLUSTER CALCULATION                     *
 *                                                                             *
 *                                                                             *
 *******************************************************************************
 *******************************************************************************


 CPU and wall time for CC :    5631.551   13609.049

 
     Date and time (Linux)  : Thu Nov 29 12:48:51 2018
     Host name              : n-62-29-8                               


                      .-------------------------------------.
                      | End of Coupled Cluster Section (CC) |
                      `-------------------------------------'

  Total CPU  time used in DALTON:   1 hour  35 minutes 50 seconds
  Total wall time used in DALTON:   3 hours 50 minutes 34 seconds

 
     Date and time (Linux)  : Thu Nov 29 12:48:51 2018
     Host name              : n-62-29-8                               
  

 +---------------------------------------------------------+ 
 | List of selected calculated molecular properties (a.u.) | 
 +---------------------------------------------------------+ 

  Properties are read from unit number                      4

 CCSD       properties :
 #  1 1 CCSD/MM  Ground state Energy =    -362.3579120336
 #  2 1 E_QM/MM  Ground state Energy =      -0.4243045366
 #  3 1 Sy: 1 Sp: 1 Exc:  1 E_tot:   -346.9902847722 w:     14.9433227248 E_grs:   -361.9336074970
 #  4 1 Exctot   Excited state Energy =    -346.9902847722
 #  5 1 |<O|XDIPLEN |i(14.943323)>| =     0.00000001
 #  7 1 |<O|YDIPLEN |i(14.943323)>| =     0.00000000
 #  9 1 |<O|ZDIPLEN |i(14.943323)>| =     0.00000000

 THE_END   
