

     ************************************************************************
     *************** Dalton - An Electronic Structure Program ***************
     ************************************************************************

    This is output from DALTON release Dalton2017.alpha (2016)
         ( Web site: http://daltonprogram.org )

   ----------------------------------------------------------------------------

    NOTE:
     
    Dalton is an experimental code for the evaluation of molecular
    properties using (MC)SCF, DFT, CI, and CC wave functions.
    The authors accept no responsibility for the performance of
    the code or for the correctness of the results.
     
    The code (in whole or part) is provided under a licence and
    is not to be reproduced for further distribution without
    the written permission of the authors or their representatives.
     
    See the home page "http://daltonprogram.org" for further information.
     
    If results obtained with this code are published,
    the appropriate citations would be both of:
     
       K. Aidas, C. Angeli, K. L. Bak, V. Bakken, R. Bast,
       L. Boman, O. Christiansen, R. Cimiraglia, S. Coriani,
       P. Dahle, E. K. Dalskov, U. Ekstroem,
       T. Enevoldsen, J. J. Eriksen, P. Ettenhuber, B. Fernandez,
       L. Ferrighi, H. Fliegl, L. Frediani, K. Hald, A. Halkier,
       C. Haettig, H. Heiberg, T. Helgaker, A. C. Hennum,
       H. Hettema, E. Hjertenaes, S. Hoest, I.-M. Hoeyvik,
       M. F. Iozzi, B. Jansik, H. J. Aa. Jensen, D. Jonsson,
       P. Joergensen, J. Kauczor, S. Kirpekar,
       T. Kjaergaard, W. Klopper, S. Knecht, R. Kobayashi, H. Koch,
       J. Kongsted, A. Krapp, K. Kristensen, A. Ligabue,
       O. B. Lutnaes, J. I. Melo, K. V. Mikkelsen, R. H. Myhre,
       C. Neiss, C. B. Nielsen, P. Norman, J. Olsen,
       J. M. H. Olsen, A. Osted, M. J. Packer, F. Pawlowski,
       T. B. Pedersen, P. F. Provasi, S. Reine, Z. Rinkevicius,
       T. A. Ruden, K. Ruud, V. Rybkin, P. Salek, C. C. M. Samson,
       A. Sanchez de Meras, T. Saue, S. P. A. Sauer,
       B. Schimmelpfennig, K. Sneskov, A. H. Steindal,
       K. O. Sylvester-Hvid, P. R. Taylor, A. M. Teale,
       E. I. Tellgren, D. P. Tew, A. J. Thorvaldsen, L. Thoegersen,
       O. Vahtras, M. A. Watson, D. J. D. Wilson, M. Ziolkowski
       and H. Agren,
       "The Dalton quantum chemistry program system",
       WIREs Comput. Mol. Sci. 2014, 4:269–284 (doi: 10.1002/wcms.1172)
     
    and
     
       Dalton, a Molecular Electronic Structure Program,
       Release Dalton2017.alpha (2016), see http://daltonprogram.org
   ----------------------------------------------------------------------------

    Authors in alphabetical order (major contribution(s) in parenthesis):

  Kestutis Aidas,           Vilnius University,           Lithuania   (QM/MM)
  Celestino Angeli,         University of Ferrara,        Italy       (NEVPT2)
  Keld L. Bak,              UNI-C,                        Denmark     (AOSOPPA, non-adiabatic coupling, magnetic properties)
  Vebjoern Bakken,          University of Oslo,           Norway      (DALTON; geometry optimizer, symmetry detection)
  Radovan Bast,             UiT The Arctic U. of Norway,  Norway      (DALTON installation and execution frameworks)
  Pablo Baudin,             University of Valencia,       Spain       (Cholesky excitation energies)
  Linus Boman,              NTNU,                         Norway      (Cholesky decomposition and subsystems)
  Ove Christiansen,         Aarhus University,            Denmark     (CC module)
  Renzo Cimiraglia,         University of Ferrara,        Italy       (NEVPT2)
  Sonia Coriani,            University of Trieste,        Italy       (CC module, MCD in RESPONS)
  Janusz Cukras,            University of Trieste,        Italy       (MChD in RESPONS)
  Paal Dahle,               University of Oslo,           Norway      (Parallelization)
  Erik K. Dalskov,          UNI-C,                        Denmark     (SOPPA)
  Thomas Enevoldsen,        Univ. of Southern Denmark,    Denmark     (SOPPA)
  Janus J. Eriksen,         Aarhus University,            Denmark     (Polarizable embedding model, TDA)
  Rasmus Faber,             University of Copenhagen,     Denmark     (Vib.avg. NMR with SOPPA, parallel AO-SOPPA)
  Berta Fernandez,          U. of Santiago de Compostela, Spain       (doublet spin, ESR in RESPONS)
  Lara Ferrighi,            Aarhus University,            Denmark     (PCM Cubic response)
  Heike Fliegl,             University of Oslo,           Norway      (CCSD(R12))
  Luca Frediani,            UiT The Arctic U. of Norway,  Norway      (PCM)
  Bin Gao,                  UiT The Arctic U. of Norway,  Norway      (Gen1Int library)
  Christof Haettig,         Ruhr-University Bochum,       Germany     (CC module)
  Kasper Hald,              Aarhus University,            Denmark     (CC module)
  Asger Halkier,            Aarhus University,            Denmark     (CC module)
  Frederik Beyer Hansen,    University of Copenhagen,     Denmark     (Parallel AO-SOPPA)
  Erik D. Hedegaard,        Univ. of Southern Denmark,    Denmark     (Polarizable embedding model, QM/MM)
  Hanne Heiberg,            University of Oslo,           Norway      (geometry analysis, selected one-electron integrals)
  Trygve Helgaker,          University of Oslo,           Norway      (DALTON; ABACUS, ERI, DFT modules, London, and much more)
  Alf Christian Hennum,     University of Oslo,           Norway      (Parity violation)
  Hinne Hettema,            University of Auckland,       New Zealand (quadratic response in RESPONS; SIRIUS supersymmetry)
  Eirik Hjertenaes,         NTNU,                         Norway      (Cholesky decomposition)
  Pi A. B. Haase,           University of Copenhagen,     Denmark     (Triplet AO-SOPPA)
  Maria Francesca Iozzi,    University of Oslo,           Norway      (RPA)
  Brano Jansik              Technical Univ. of Ostrava    Czech Rep.  (DFT cubic response)
  Hans Joergen Aa. Jensen,  Univ. of Southern Denmark,    Denmark     (DALTON; SIRIUS, RESPONS, ABACUS modules, London, and much more)
  Dan Jonsson,              UiT The Arctic U. of Norway,  Norway      (cubic response in RESPONS module)
  Poul Joergensen,          Aarhus University,            Denmark     (RESPONS, ABACUS, and CC modules)
  Maciej Kaminski,          University of Warsaw,         Poland      (CPPh in RESPONS)
  Joanna Kauczor,           Linkoeping University,        Sweden      (Complex polarization propagator (CPP) module)
  Sheela Kirpekar,          Univ. of Southern Denmark,    Denmark     (Mass-velocity & Darwin integrals)
  Wim Klopper,              KIT Karlsruhe,                Germany     (R12 code in CC, SIRIUS, and ABACUS modules)
  Stefan Knecht,            ETH Zurich,                   Switzerland (Parallel CI and MCSCF)
  Rika Kobayashi,           Australian National Univ.,    Australia   (DIIS in CC, London in MCSCF)
  Henrik Koch,              NTNU,                         Norway      (CC module, Cholesky decomposition)
  Jacob Kongsted,           Univ. of Southern Denmark,    Denmark     (Polarizable embedding model, QM/MM)
  Andrea Ligabue,           University of Modena,         Italy       (CTOCD, AOSOPPA)
  Nanna H. List             Univ. of Southern Denmark,    Denmark     (Polarizable embedding model)
  Ola B. Lutnaes,           University of Oslo,           Norway      (DFT Hessian)
  Juan I. Melo,             University of Buenos Aires,   Argentina   (LRESC, Relativistic Effects on NMR Shieldings)
  Kurt V. Mikkelsen,        University of Copenhagen,     Denmark     (MC-SCRF and QM/MM)
  Rolf H. Myhre,            NTNU,                         Norway      (Cholesky, subsystems and ECC2)
  Christian Neiss,          Univ. Erlangen-Nuernberg,     Germany     (CCSD(R12))
  Christian B. Nielsen,     University of Copenhagen,     Denmark     (QM/MM)
  Patrick Norman,           Linkoeping University,        Sweden      (Cubic response and complex frequency response in RESPONS)
  Jeppe Olsen,              Aarhus University,            Denmark     (SIRIUS CI/density modules)
  Jogvan Magnus H. Olsen,   Univ. of Southern Denmark,    Denmark     (Polarizable embedding model, QM/MM)
  Anders Osted,             Copenhagen University,        Denmark     (QM/MM)
  Martin J. Packer,         University of Sheffield,      UK          (SOPPA)
  Filip Pawlowski,          Kazimierz Wielki University,  Poland      (CC3)
  Morten N. Pedersen,       Univ. of Southern Denmark,    Denmark     (Polarizable embedding model)
  Thomas B. Pedersen,       University of Oslo,           Norway      (Cholesky decomposition)
  Patricio F. Provasi,      University of Northeastern,   Argentina   (Analysis of coupling constants in localized orbitals)
  Zilvinas Rinkevicius,     KTH Stockholm,                Sweden      (open-shell DFT, ESR)
  Elias Rudberg,            KTH Stockholm,                Sweden      (DFT grid and basis info)
  Torgeir A. Ruden,         University of Oslo,           Norway      (Numerical derivatives in ABACUS)
  Kenneth Ruud,             UiT The Arctic U. of Norway,  Norway      (DALTON; ABACUS magnetic properties and much more)
  Pawel Salek,              KTH Stockholm,                Sweden      (DALTON; DFT code)
  Claire C. M. Samson       University of Karlsruhe       Germany     (Boys localization, r12 integrals in ERI)
  Alfredo Sanchez de Meras, University of Valencia,       Spain       (CC module, Cholesky decomposition)
  Trond Saue,               Paul Sabatier University,     France      (direct Fock matrix construction)
  Stephan P. A. Sauer,      University of Copenhagen,     Denmark     (SOPPA(CCSD), SOPPA prop., AOSOPPA, vibrational g-factors)
  Bernd Schimmelpfennig,    Forschungszentrum Karlsruhe,  Germany     (AMFI module)
  Kristian Sneskov,         Aarhus University,            Denmark     (Polarizable embedding model, QM/MM)
  Arnfinn H. Steindal,      UiT The Arctic U. of Norway,  Norway      (parallel QM/MM, Polarizable embedding model)
  Casper Steinmann,         Univ. of Southern Denmark,    Denmark     (QFIT, Polarizable embedding model)
  K. O. Sylvester-Hvid,     University of Copenhagen,     Denmark     (MC-SCRF)
  Peter R. Taylor,          VLSCI/Univ. of Melbourne,     Australia   (Symmetry handling ABACUS, integral transformation)
  Andrew M. Teale,          University of Nottingham,     England     (DFT-AC, DFT-D)
  David P. Tew,             University of Bristol,        England     (CCSD(R12))
  Olav Vahtras,             KTH Stockholm,                Sweden      (triplet response, spin-orbit, ESR, TDDFT, open-shell DFT)
  David J. Wilson,          La Trobe University,          Australia   (DFT Hessian and DFT magnetizabilities)
  Hans Agren,               KTH Stockholm,                Sweden      (SIRIUS module, RESPONS, MC-SCRF solvation model)
 --------------------------------------------------------------------------------

     Date and time (Linux)  : Tue Dec  4 09:19:32 2018
     Host name              : n-62-23-29                              

 * Work memory size             :  1280000000 =  9.537 gigabytes.

 * Directories for basis set searches:
   1) /zhome/d7/7/119775/My_Codes/dalton-private/build2016/basis/diffs
   2) /zhome/37/3/129401/NH3NH4/CCSD/AIMD_SAMPLING/nh3_4h2o_nd
   3) /zhome/9a/4/124800/source/dalton/build-mlcc/basis


Compilation information
-----------------------

 Who compiled             | rfaber
 Host                     | hpclogin1
 System                   | Linux-2.6.32-696.1.1.el6.x86_64
 CMake generator          | Unix Makefiles
 Processor                | x86_64
 64-bit integers          | ON
 MPI                      | OFF
 Fortran compiler         | /opt/intel/2016update2/compilers_and_libraries_201
                          | 6.2.181/linux/bin/intel64/ifort
 Fortran compiler version | ifort (IFORT) 16.0.2 20160204
 C compiler               | /opt/intel/2016update2/compilers_and_libraries_201
                          | 6.2.181/linux/bin/intel64/icc
 C compiler version       | icc (ICC) 16.0.2 20160204
 C++ compiler             | /opt/intel/2016update2/compilers_and_libraries_201
                          | 6.2.181/linux/bin/intel64/icpc
 C++ compiler version     | icpc (ICC) 16.0.2 20160204
 Static linking           | OFF
 Last Git revision        | bb4d1599ca5680a9f3980451fc8bbefdba436d59
 Git branch               | mlcc
 Configuration time       | 2017-06-13 16:11:03.928841


   Content of the .dal input file
 ----------------------------------

**DALTON
.RUN WAVE FUNCTIONS
*QMMM
.QMMM
**INTEGRALS
.DIPLEN
**WAVE FUNCTIONS
.CC
*PRINT
!To check the origin of excit
.PRINTL
   0 11
*SCF INP
.THRESH
1.0D-7
*CC INP
.CCSD
.THRLEQ
 1.0D-9
.THRENR
 1.0D-10
.FROIMP
4
0
.PRINT
 1
.MAX IT
 1200
.MAXRED
 1200
.MXLRV
1199
*CCSLV
.CCMM
.MXSLIT
200
.MXINIT
4 5
*CCEXCI
.NCCEXC
 1
.IONISATION
1
1
.CVSEPARA
1
1
*CCLRSD
.DIPOLE
**END OF DALTON INPUT


   Content of the .mol file
 ----------------------------

ATOMBASIS


Atomtypes=5 Charge=0 Nosymm Angstrom
   7.00000    1    Basis=6-311G**
N          0.000000        0.000000        0.000000
   1.00000    3    Basis=6-311G**
H          0.990586       -0.208091        0.311478
H         -0.685180       -0.082659        0.813287
H         -0.240162       -0.498139       -0.817222
   8.00000    4    Basis=6-311G**
O         -2.891198       -0.232785        1.449107
O         -1.417917       -2.443650       -1.694666
O          3.084388       -1.753132       -0.191213
O         -0.707006        2.372734       -0.979480
   1.00000    8    Basis=6-311G**
H         -3.745489        0.126708        1.917280
H         -2.718174        0.332166        0.611247
H         -0.661198       -2.795493       -1.188414
H         -2.236325       -2.545243       -1.056933
H          3.791162       -1.518874        0.449377
H          3.018310       -1.166128       -0.975845
H         -0.210616        2.321138       -1.852693
H         -0.289170        1.457529       -0.452054
   0.00000    1    Basis=diffs
X          0.000000        0.000000        0.000000


       *******************************************************************
       *********** Output from DALTON general input processing ***********
       *******************************************************************

 --------------------------------------------------------------------------------
   Overall default print level:    0
   Print level for DALTON.STAT:    1

    HERMIT 1- and 2-electron integral sections will be executed
    "Old" integral transformation used (limited to max 255 basis functions)
    Wave function sections will be executed (SIRIUS module)
 --------------------------------------------------------------------------------


 Changes of defaults for *QMMM  :
 --------------------------------

 +------------------+
 |  WORD: | CHANGE: |
 +------------------+
 |   QMMM |       T |
 +------------------+
 


   ****************************************************************************
   *************** Output of molecule and basis set information ***************
   ****************************************************************************


    The two title cards from your ".mol" input:
    ------------------------------------------------------------------------
 1:                                                                         
 2:                                                                         
    ------------------------------------------------------------------------

  Coordinates are entered in Angstrom and converted to atomic units.
          - Conversion factor : 1 bohr = 0.52917721 A

  Atomic type no.    1
  --------------------
  Nuclear charge:   7.00000
  Number of symmetry independent centers:    1
  Number of basis sets to read;    2
  The basis set is "6-311G**" from the basis set library.
  Basis set file used for this atomic type with Z =   7 :
     "/zhome/9a/4/124800/source/dalton/build-mlcc/basis/6-311G**"

  Info about the basis set file: your basis has no documentation.
  Basis set: 6-311G**                                                                        

  Atomic type no.    2
  --------------------
  Nuclear charge:   1.00000
  Number of symmetry independent centers:    3
  Number of basis sets to read;    2
  The basis set is "6-311G**" from the basis set library.
  Basis set file used for this atomic type with Z =   1 :
     "/zhome/9a/4/124800/source/dalton/build-mlcc/basis/6-311G**"

  Info about the basis set file: your basis has no documentation.
  Basis set: 6-311G**                                                                        

  Atomic type no.    3
  --------------------
  Nuclear charge:   8.00000
  Number of symmetry independent centers:    4
  Number of basis sets to read;    2
  The basis set is "6-311G**" from the basis set library.
  Basis set file used for this atomic type with Z =   8 :
     "/zhome/9a/4/124800/source/dalton/build-mlcc/basis/6-311G**"

  Info about the basis set file: your basis has no documentation.
  Basis set: 6-311G**                                                                        

  Atomic type no.    4
  --------------------
  Nuclear charge:   1.00000
  Number of symmetry independent centers:    8
  Number of basis sets to read;    2
  The basis set is "6-311G**" from the basis set library.
  Basis set file used for this atomic type with Z =   1 :
     "/zhome/9a/4/124800/source/dalton/build-mlcc/basis/6-311G**"

  Info about the basis set file: your basis has no documentation.
  Basis set: 6-311G**                                                                        

  Atomic type no.    5
  --------------------
  Nuclear charge:   0.00000
  Number of symmetry independent centers:    1
  Number of basis sets to read;    2
  The basis set is "diffs" from the basis set library.
  Basis set file used for this atomic type with Z =   0 :
     "/zhome/9a/4/124800/source/dalton/build-mlcc/basis/diffs"

  Info about the basis set file: your basis has no documentation.
  Basis set: diffs                                                                           


                         SYMGRP: Point group information
                         -------------------------------

@    Point group: C1 


                                 Isotopic Masses
                                 ---------------

                           N          14.003074
                           H           1.007825
                           H           1.007825
                           H           1.007825
                           O          15.994915
                           O          15.994915
                           O          15.994915
                           O          15.994915
                           H           1.007825
                           H           1.007825
                           H           1.007825
                           H           1.007825
                           H           1.007825
                           H           1.007825
                           H           1.007825
                           H           1.007825

                       Total mass:    89.068809 amu
                       Natural abundance:  98.514 %

 Center-of-mass coordinates (a.u.):   -0.719398   -0.795868   -0.528521


  Atoms and basis sets
  --------------------

  Number of atom types :    5
  Total number of atoms:   17

  label    atoms   charge   prim   cont     basis
  ----------------------------------------------------------------------
  N           1    7.0000    31    18      [11s5p1d|4s3p1d]                                   
  H           3    1.0000     8     6      [5s1p|3s1p]                                        
  O           4    8.0000    31    18      [11s5p1d|4s3p1d]                                   
  H           8    1.0000     8     6      [5s1p|3s1p]                                        
  X           1    0.0000     1     1      [1s|1s]                                            
  ----------------------------------------------------------------------
  total:     17   50.0000   244   157
  ----------------------------------------------------------------------
  Spherical harmonic basis used.

  Threshold for neglecting AO integrals:  1.00D-12


  Cartesian Coordinates (a.u.)
  ----------------------------

  Total number of coordinates:   51
  N       :     1  x   0.0000000000    2  y   0.0000000000    3  z   0.0000000000
  H       :     4  x   1.8719362433    5  y  -0.3932349991    6  z   0.5886081140
  H       :     7  x  -1.2948025463    8  y  -0.1562028718    9  z   1.5368896910
  H       :    10  x  -0.4538404056   11  y  -0.9413462822   12  z  -1.5443257633
  O       :    13  x  -5.4635723931   14  y  -0.4398998960   15  z   2.7384153558
  O       :    16  x  -2.6794747980   17  y  -4.6178292453   18  z  -3.2024546133
  O       :    19  x   5.8286485832   20  y  -3.3129393410   21  z  -0.3613402015
  O       :    22  x  -1.3360477087   23  y   4.4838174275   24  z  -1.8509489449
  H       :    25  x  -7.0779484142   26  y   0.2394434178   27  z   3.6231341049
  H       :    28  x  -5.1366044201   29  y   0.6277027680   30  z   1.1550894247
  H       :    31  x  -1.2494831344   32  y  -5.2827161543   33  z  -2.2457769831
  H       :    34  x  -4.2260417765   35  y  -4.8098121916   36  z  -1.9973139025
  H       :    37  x   7.1642578755   38  y  -2.8702558784   39  z   0.8491994569
  H       :    40  x   5.7037792603   41  y  -2.2036625467   42  z  -1.8440797904
  H       :    43  x  -0.3980065575   44  y   4.3863151183   45  z  -3.5010823637
  H       :    46  x  -0.5464521036   47  y   2.7543306292   48  z  -0.8542582537
  X       :    49  x   0.0000000000   50  y   0.0000000000   51  z   0.0000000000

  Max    interatomic separation is    7.8526 Angstrom (   14.8393 Bohr)
  between atoms   13 and    9, "H     " and "H     ".

  Min HX interatomic separation is    0.9761 Angstrom (    1.8445 Bohr)

  Min YX interatomic separation is    2.6625 Angstrom (    5.0315 Bohr)


  Bond distances (Angstrom):
  --------------------------

                  atom 1     atom 2       distance
                  ------     ------       --------
  bond distance:  H          N            1.059047
  bond distance:  H          N            1.066649
  bond distance:  H          N            0.986748
  bond distance:  H          O            1.038381
  bond distance:  H          O            1.025240
  bond distance:  H          O            0.976068
  bond distance:  H          O            1.042505
  bond distance:  H          O            0.982223
  bond distance:  H          O            0.982134
  bond distance:  H          O            1.005766
  bond distance:  H          O            1.135942


  Bond angles (degrees):
  ----------------------

                  atom 1     atom 2     atom 3         angle
                  ------     ------     ------         -----
  bond angle:     H          N          H            111.184
  bond angle:     H          N          H            111.842
  bond angle:     H          N          H            115.850
  bond angle:     H          O          H            108.454
  bond angle:     H          O          H            104.845
  bond angle:     H          O          H            115.271
  bond angle:     H          O          H            100.384




 Principal moments of inertia (u*A**2) and principal axes
 --------------------------------------------------------

   IA     310.816468          0.903066   -0.399911   -0.156661
   IB     495.749661          0.406783    0.913430    0.013157
   IC     618.968474          0.137837   -0.075609    0.987565


 Rotational constants
 --------------------

               A                   B                   C

           1625.9724           1019.4238            816.4859 MHz
            0.054237            0.034004            0.027235 cm-1


@  Nuclear repulsion energy :  179.099831121621 Hartree

  Number of floating/multiple basis set orbitals :    1


                     .---------------------------------------.
                     | Starting in Integral Section (HERMIT) |
                     `---------------------------------------'



 ***************************************************************************************
 ****************** Output from **INTEGRALS input processing (HERMIT) ******************
 ***************************************************************************************



    *************************************************************************
    ****************** Output from HERMIT input processing ******************
    *************************************************************************


 Default print level:        1

 * Nuclear model: Point charge

 Calculation of one- and two-electron Hamiltonian integrals.

 The following one-electron property integrals are calculated as requested:
          - overlap integrals
          - dipole length integrals

 Center of mass  (bohr):     -0.719398219552     -0.795867530805     -0.528520505912
 Operator center (bohr):      0.000000000000      0.000000000000      0.000000000000
 Gauge origin    (bohr):      0.000000000000      0.000000000000      0.000000000000
 Dipole origin   (bohr):      0.000000000000      0.000000000000      0.000000000000
 
  *********************************** 
  QMMM electrostatic potential: 
  Multipole order                                    0
  Isotropic polarization  
  *********************************** 
 
  ---------------- 
  QMMM information 
  ---------------- 
 
  MM coordinates in au 
  -------------------- 
     1      9.499529      9.911736    -10.517087
     2     10.666155      9.180688    -11.838320
     3      8.462409     11.281251    -11.324159
     4     -8.955767     -7.883699      3.839430
     5     -7.703971     -8.864006      4.812165
     6     -9.238474     -6.501998      5.128630
     7     -9.638987     -5.164079      8.076191
     8    -10.520502     -6.742936      8.302447
     9    -10.718504     -3.799449      8.663328
    10     -9.967922      7.577267      9.430829
    11     -9.106743      9.119265     10.135416
    12     -9.398568      7.131809      7.654449
    13      0.300223     -1.487061     -6.684991
    14     -0.134798     -0.596176     -8.207895
    15     -1.185136     -1.582411     -5.659516
    16      9.322854      8.146322     -5.516133
    17      8.142898      9.026129     -4.399456
    18      9.595640      9.103090     -6.972617
    19     -0.537115     -6.774816    -10.802935
    20     -1.773905     -5.342333    -10.864627
    21     -0.930632     -7.546912    -12.548484
    22      4.581293     -3.971874     11.174916
    23      5.588958     -4.044197     12.801385
    24      2.766245     -4.463463     11.469026
    25     -9.193121      6.162293     -4.714373
    26    -10.839479      7.039572     -4.556370
    27     -9.129480      5.430958     -6.514060
    28     -6.518538     -0.377645     -7.877093
    29     -5.981233     -0.856225     -6.217711
    30     -8.347865     -0.538973     -7.742597
    31     -3.543354      5.165205     10.580002
    32     -3.791735      6.026779     12.138531
    33     -4.928633      3.987846     10.255304
    34     10.628275      2.275030     -2.552030
    35     11.934739      3.646582     -2.843596
    36      8.972684      3.022145     -2.727170
    37     11.545484     10.057024      0.000986
    38     10.966910     11.605054      0.745138
    39     12.651316     10.674919     -1.307681
    40      8.049073     10.647828      7.226188
    41      6.767476     10.905883      5.893428
    42      8.453688      8.776640      7.330609
    43     -0.076861      1.334759    -10.844970
    44      1.443477      1.240135    -12.028832
    45     -1.216995      2.686614    -11.556792
    46     -7.382100    -11.543795     11.508254
    47     -6.000474    -12.486758     12.341100
    48     -8.291933    -10.439594     12.796475
    49     -9.219301      6.832386      4.168777
    50    -10.516415      7.338719      2.934367
    51     -7.610381      7.558481      3.653835
    52      9.507520     -1.548158      9.239723
    53      9.818620      0.266149     10.016697
    54      9.059604     -2.762332     10.524295
    55     -0.653758     -8.682105      7.511503
    56      0.305716    -10.161275      8.266480
    57      0.447944     -7.350706      7.072383
    58     10.090703     -8.463467      8.829048
    59      9.328051    -10.015860      8.129840
    60      9.809060     -8.884837     10.678232
    61      1.322755      9.521234     -9.574789
    62      2.296531     10.916063     -8.782840
    63      1.734663      7.833947     -8.521586
    64      8.424314     -4.568763     -8.854204
    65      9.103771     -3.445742     -7.562179
    66      9.711972     -5.893079     -9.068304
    67      4.565822     11.308450      3.294732
    68      4.373284     12.959685      2.626177
    69      4.250527     10.058166      1.948379
    70      3.983029      0.707689      9.731853
    71      4.456655     -1.124291      9.744418
    72      3.835602      1.012375      7.999934
    73     -3.758132      8.911922     -9.165126
    74     -4.204635      9.228593     -7.442673
    75     -1.839331      9.090620     -9.391642
    76     -5.485282      1.288842     -2.422805
    77     -7.009467      2.417220     -2.630625
    78     -4.062346      2.747492     -2.499312
    79      5.309701     -9.535101    -10.801990
    80      4.817401     -8.614063     -9.234672
    81      5.255332     -8.271851    -12.157742
    82      3.624306      3.752849      4.104956
    83      2.175897      4.106033      5.200016
    84      5.055584      4.593253      4.897084
    85      1.592355      5.201868     -7.085589
    86      0.744771      3.914320     -8.015950
    87      3.407329      4.525157     -7.040520
    88     -5.276765     -7.243927     -7.202249
    89     -4.221567     -7.032465     -5.716293
    90     -4.275224     -7.889397     -8.586095
    91      5.925599      9.598416     -1.843422
    92      4.863116     11.077476     -2.556505
    93      7.528813     10.340264     -1.165524
    94      4.613424     -0.240522     -4.596668
    95      3.035586     -0.801357     -5.281384
    96      4.119284      1.278222     -3.447418
    97      2.581283     -7.914222     -6.674632
    98      1.393943     -7.251926     -7.885878
    99      2.998491     -6.423892     -5.668978
   100     -2.154687     -1.403133      6.970638
   101     -3.107116     -2.636990      7.984613
   102     -3.067154     -1.433531      5.294285
   103     -9.494861      4.741865     -9.824308
   104     -9.141841      6.032998    -11.087609
   105     -8.712367      3.198981    -10.525087
   106      1.647945     -6.182991      0.085699
   107      3.313818     -5.378433      0.006487
   108      1.903429     -7.872253     -0.678013
   109      0.092668      6.215381      7.202661
   110     -1.090725      5.633842      8.573361
   111      1.112527      7.725314      7.803312
   112     -3.807057     -2.579605    -11.582662
   113     -2.582636     -1.106918    -11.482993
   114     -4.955614     -2.194565    -10.120819
   115     -5.656145      9.831924     -4.394501
   116     -6.705404      8.232469     -4.368121
   117     -4.254374      9.679096     -3.120352
   118    -10.984804     -5.647161     -2.397586
   119     -9.420351     -5.162875     -1.551441
   120    -12.028702     -6.012052     -0.964220
   121      1.841442    -10.684117     -2.658132
   122      0.570960    -11.692943     -1.777080
   123      1.274858     -9.974968     -4.281947
   124     -9.884993    -10.361803     -4.157097
   125    -10.032934     -8.743058     -3.458331
   126     -8.037829    -10.934670     -3.792499
   127     -1.821594      9.498816     -0.603363
   128     -1.360459      7.722893     -0.423626
   129     -2.757793     10.035145      1.002857
   130      2.145032     10.921910      9.025050
   131      1.836905     10.507951     10.877829
   132      3.849300     11.501807      8.983478
   133      9.824856     -8.270326      1.643003
   134     11.410476     -8.343727      2.622486
   135      8.669612     -7.191974      2.778519
   136     -4.187633      9.080873      4.319944
   137     -2.843443      7.976721      5.035510
   138     -4.514106     10.339398      5.640761
   139      6.433023      3.867098     -7.203519
   140      6.620442      2.149441     -6.289681
   141      7.558606      5.199519     -6.425955
   142     -9.875461      1.818589      5.238716
   143     -9.746436      3.486265      4.483092
   144    -11.440105      1.116858      4.591502
   145      4.920956      3.495831     -0.905251
   146      4.681868      5.242142     -1.571914
   147      4.423490      3.423235      0.876425
   148    -10.254295     -7.983224     -9.118346
   149     -9.139630     -6.434765     -8.961960
   150    -10.186932     -8.752960     -7.405965
   151     -6.569015     -4.651147      0.291912
   152     -5.919869     -3.213583      1.338712
   153     -7.064694     -6.083988      1.466686
   154      9.057767      3.558539    -11.569553
   155     10.718436      4.162362    -10.794306
   156      7.852351      3.353784    -10.143190
   157      8.713310      5.090403      6.868644
   158      9.770595      3.745851      6.088856
   159      8.750536      4.557333      8.786115
   160      1.992516     -3.935145      5.686316
   161      0.513386     -2.957419      6.318940
   162      1.580153     -4.285135      3.842614
   163     -5.496117     -9.801573      7.045184
   164     -6.337771    -10.449747      8.635075
   165     -3.695070     -9.145144      7.289726
   166     -7.722759      1.300362     10.235507
   167     -8.334454      1.246960      8.438041
   168     -6.359705      0.153176     10.377909
   169      6.626969     -6.464056      5.035799
   170      5.158595     -5.273262      5.378915
   171      7.800693     -6.332735      6.465335
   172      8.120518     -0.441070      4.193797
   173      6.796682      0.762376      4.576023
   174      8.460759     -1.143692      5.854606
   175    -11.190512     -1.730966     -5.659151
   176    -11.531428     -3.453558     -4.946878
   177    -11.889227     -0.563586     -4.484568
 
  MM charges 
  ---------- 
     1     -0.674440
     2      0.337220
     3      0.337220
     4     -0.674440
     5      0.337220
     6      0.337220
     7     -0.674440
     8      0.337220
     9      0.337220
    10     -0.674440
    11      0.337220
    12      0.337220
    13     -0.674440
    14      0.337220
    15      0.337220
    16     -0.674440
    17      0.337220
    18      0.337220
    19     -0.674440
    20      0.337220
    21      0.337220
    22     -0.674440
    23      0.337220
    24      0.337220
    25     -0.674440
    26      0.337220
    27      0.337220
    28     -0.674440
    29      0.337220
    30      0.337220
    31     -0.674440
    32      0.337220
    33      0.337220
    34     -0.674440
    35      0.337220
    36      0.337220
    37     -0.674440
    38      0.337220
    39      0.337220
    40     -0.674440
    41      0.337220
    42      0.337220
    43     -0.674440
    44      0.337220
    45      0.337220
    46     -0.674440
    47      0.337220
    48      0.337220
    49     -0.674440
    50      0.337220
    51      0.337220
    52     -0.674440
    53      0.337220
    54      0.337220
    55     -0.674440
    56      0.337220
    57      0.337220
    58     -0.674440
    59      0.337220
    60      0.337220
    61     -0.674440
    62      0.337220
    63      0.337220
    64     -0.674440
    65      0.337220
    66      0.337220
    67     -0.674440
    68      0.337220
    69      0.337220
    70     -0.674440
    71      0.337220
    72      0.337220
    73     -0.674440
    74      0.337220
    75      0.337220
    76     -0.674440
    77      0.337220
    78      0.337220
    79     -0.674440
    80      0.337220
    81      0.337220
    82     -0.674440
    83      0.337220
    84      0.337220
    85     -0.674440
    86      0.337220
    87      0.337220
    88     -0.674440
    89      0.337220
    90      0.337220
    91     -0.674440
    92      0.337220
    93      0.337220
    94     -0.674440
    95      0.337220
    96      0.337220
    97     -0.674440
    98      0.337220
    99      0.337220
   100     -0.674440
   101      0.337220
   102      0.337220
   103     -0.674440
   104      0.337220
   105      0.337220
   106     -0.674440
   107      0.337220
   108      0.337220
   109     -0.674440
   110      0.337220
   111      0.337220
   112     -0.674440
   113      0.337220
   114      0.337220
   115     -0.674440
   116      0.337220
   117      0.337220
   118     -0.674440
   119      0.337220
   120      0.337220
   121     -0.674440
   122      0.337220
   123      0.337220
   124     -0.674440
   125      0.337220
   126      0.337220
   127     -0.674440
   128      0.337220
   129      0.337220
   130     -0.674440
   131      0.337220
   132      0.337220
   133     -0.674440
   134      0.337220
   135      0.337220
   136     -0.674440
   137      0.337220
   138      0.337220
   139     -0.674440
   140      0.337220
   141      0.337220
   142     -0.674440
   143      0.337220
   144      0.337220
   145     -0.674440
   146      0.337220
   147      0.337220
   148     -0.674440
   149      0.337220
   150      0.337220
   151     -0.674440
   152      0.337220
   153      0.337220
   154     -0.674440
   155      0.337220
   156      0.337220
   157     -0.674440
   158      0.337220
   159      0.337220
   160     -0.674440
   161      0.337220
   162      0.337220
   163     -0.674440
   164      0.337220
   165      0.337220
   166     -0.674440
   167      0.337220
   168      0.337220
   169     -0.674440
   170      0.337220
   171      0.337220
   172     -0.674440
   173      0.337220
   174      0.337220
   175     -0.674440
   176      0.337220
   177      0.337220
 
  MM isotropic polarizabilities in au 
  ----------------------------------- 
     1      5.739350
     2      2.308390
     3      2.308390
     4      5.739350
     5      2.308390
     6      2.308390
     7      5.739350
     8      2.308390
     9      2.308390
    10      5.739350
    11      2.308390
    12      2.308390
    13      5.739350
    14      2.308390
    15      2.308390
    16      5.739350
    17      2.308390
    18      2.308390
    19      5.739350
    20      2.308390
    21      2.308390
    22      5.739350
    23      2.308390
    24      2.308390
    25      5.739350
    26      2.308390
    27      2.308390
    28      5.739350
    29      2.308390
    30      2.308390
    31      5.739350
    32      2.308390
    33      2.308390
    34      5.739350
    35      2.308390
    36      2.308390
    37      5.739350
    38      2.308390
    39      2.308390
    40      5.739350
    41      2.308390
    42      2.308390
    43      5.739350
    44      2.308390
    45      2.308390
    46      5.739350
    47      2.308390
    48      2.308390
    49      5.739350
    50      2.308390
    51      2.308390
    52      5.739350
    53      2.308390
    54      2.308390
    55      5.739350
    56      2.308390
    57      2.308390
    58      5.739350
    59      2.308390
    60      2.308390
    61      5.739350
    62      2.308390
    63      2.308390
    64      5.739350
    65      2.308390
    66      2.308390
    67      5.739350
    68      2.308390
    69      2.308390
    70      5.739350
    71      2.308390
    72      2.308390
    73      5.739350
    74      2.308390
    75      2.308390
    76      5.739350
    77      2.308390
    78      2.308390
    79      5.739350
    80      2.308390
    81      2.308390
    82      5.739350
    83      2.308390
    84      2.308390
    85      5.739350
    86      2.308390
    87      2.308390
    88      5.739350
    89      2.308390
    90      2.308390
    91      5.739350
    92      2.308390
    93      2.308390
    94      5.739350
    95      2.308390
    96      2.308390
    97      5.739350
    98      2.308390
    99      2.308390
   100      5.739350
   101      2.308390
   102      2.308390
   103      5.739350
   104      2.308390
   105      2.308390
   106      5.739350
   107      2.308390
   108      2.308390
   109      5.739350
   110      2.308390
   111      2.308390
   112      5.739350
   113      2.308390
   114      2.308390
   115      5.739350
   116      2.308390
   117      2.308390
   118      5.739350
   119      2.308390
   120      2.308390
   121      5.739350
   122      2.308390
   123      2.308390
   124      5.739350
   125      2.308390
   126      2.308390
   127      5.739350
   128      2.308390
   129      2.308390
   130      5.739350
   131      2.308390
   132      2.308390
   133      5.739350
   134      2.308390
   135      2.308390
   136      5.739350
   137      2.308390
   138      2.308390
   139      5.739350
   140      2.308390
   141      2.308390
   142      5.739350
   143      2.308390
   144      2.308390
   145      5.739350
   146      2.308390
   147      2.308390
   148      5.739350
   149      2.308390
   150      2.308390
   151      5.739350
   152      2.308390
   153      2.308390
   154      5.739350
   155      2.308390
   156      2.308390
   157      5.739350
   158      2.308390
   159      2.308390
   160      5.739350
   161      2.308390
   162      2.308390
   163      5.739350
   164      2.308390
   165      2.308390
   166      5.739350
   167      2.308390
   168      2.308390
   169      5.739350
   170      2.308390
   171      2.308390
   172      5.739350
   173      2.308390
   174      2.308390
   175      5.739350
   176      2.308390
   177      2.308390


     ************************************************************************
     ************************** Output from HERINT **************************
     ************************************************************************



                      Nuclear contribution to dipole moments
                      --------------------------------------

                 au               Debye          C m (/(10**-30)

      x    -34.84677651       -88.57166554      -295.44327474
      y    -39.74424743      -101.01979416      -336.96576235
      z    -25.64454350       -65.18192375      -217.42349418



 Threshold for neglecting two-electron integrals:  1.00D-12
 HERMIT - Number of two-electron integrals written:    28699043 ( 37.3% )
 HERMIT - Megabytes written:                            328.619

  Time used in TWOINT     is       6.49 seconds
  Total CPU  time used in HERMIT:   6.66 seconds
  Total wall time used in HERMIT:  12.04 seconds


                        .----------------------------------.
                        | End of Integral Section (HERMIT) |
                        `----------------------------------'



                   .--------------------------------------------.
                   | Starting in Wave Function Section (SIRIUS) |
                   `--------------------------------------------'

NCCEXCI for singlet:    1
 CCSD_INPUT: core-val requested
 Requested number of virtual orbs per sym
                     1
 Indices of requested virtual orbs
                     1
 CCSD_INPUT: core-val requested
 Requested number of core orbs per sym
                     1
 Indices of requested core orbs
                     1

 *** Output from Huckel module :

     Using EWMO model:          T
     Using EHT  model:          F
     Number of Huckel orbitals each symmetry:   36

 EWMO - Energy Weighted Maximum Overlap - is a Huckel type method,
        which normally is better than Extended Huckel Theory.
 Reference: Linderberg and Ohrn, Propagators in Quantum Chemistry (Wiley, 1973)

 Huckel EWMO eigenvalues for symmetry :  1
          -20.684586     -20.684254     -20.683942     -20.683592     -15.673680
           -1.716548      -1.589648      -1.577797      -1.556146      -1.419390
           -0.833461      -0.796421      -0.781123      -0.778304      -0.744848
           -0.705031      -0.696029      -0.688411      -0.677826      -0.672816
           -0.615709      -0.614041      -0.607193      -0.596548      -0.500679
           -0.268720      -0.247993      -0.245241      -0.231783      -0.194424
           -0.187750      -0.181764      -0.173684      -0.170740      -0.156859
           -0.138817

 **********************************************************************
 *SIRIUS* a direct, restricted step, second order MCSCF program       *
 **********************************************************************

 
     Date and time (Linux)  : Tue Dec  4 09:19:45 2018
     Host name              : n-62-23-29                              

 Title lines from ".mol" input file:
                                                                             
                                                                             

 Print level on unit LUPRI =   2 is   0
 Print level on unit LUW4  =   2 is  11

@    (Integral direct) CC calculation.

@    This is a combination run starting with
@              a restricted, closed shell Hartree-Fock calculation


 Initial molecular orbitals are obtained according to
 ".MOSTART EWMO  " input option

@    QM part is embedded in an environment :

@         Model: QMMM

     Wave function specification
     ============================

     For the specification of the Coupled Cluster: see later.

@    Wave function type        --- CC ---
@    Number of closed shell electrons          50
@    Number of electrons in active shells       0
@    Total charge of the molecule               0

@    Spin multiplicity and 2 M_S                1         0
@    Total number of symmetries                 1 (point group: C1 )
@    Reference state symmetry                   1 (irrep name : A  )

     Orbital specifications
     ======================
@    Abelian symmetry species          All |    1
@                                          |  A  
                                       --- |  ---
@    Occupied SCF orbitals              25 |   25
@    Secondary orbitals                132 |  132
@    Total number of orbitals          157 |  157
@    Number of basis functions         157 |  157

     Optimization information
     ========================
@    Number of configurations                 1
@    Number of orbital rotations           3300
     ------------------------------------------
@    Total number of variables             3301

     Maximum number of Fock   iterations      0
     Maximum number of DIIS   iterations     60
     Maximum number of QC-SCF iterations     60
     Threshold for SCF convergence     1.00D-07


 Changes of defaults for CC:
 ---------------------------


 -Implicit frozen core calculation
 -Excitation energies calculated
 -One-photon absorption strengths will be calculated
 -Oscillator strengths calculated
  
* Read MO coefficients from SIRIUS.RST with label "NEWORB  " and header info:  4Dec18  REORTHO 


 ***********************************************
 ***** DIIS acceleration of SCF iterations *****
 ***********************************************

 C1-DIIS algorithm; max error vectors =    8
 -----------------------------------------------------------------------------

 *** DIIS iteration number    1
 RDSUPM called. NFMAT, ISYMDM(1:NFMAT)                     1
                     1

Calculating AOSUPINT
     (Precalculated two-electron integrals are transformed to P-supermatrix elements.
      Threshold for discarding integrals :  1.00D-12 )
  CPU  time used in FORMSUP    is   5.04 seconds
  WALL time used in FORMSUP    is  34.18 seconds

 ITDIIS, energy, error norm, change in energy, scr.thr., difden:
@ DIIS iter.   1    -359.879110338        3.74298D+00   -3.60D+02  -20    F

 (DIIS_RED) Control Parameters C2DIIS =         F NEVC =    1


 (DIIS_RED) B matrix:

               Column   1
       1      14.00991557
    ==== End of matrix output ====

 DIIS C vector; C2DIIS = F, LAMBDA = -1.40D+01
    1.000000
* Read MO coefficients from SIRIUS.RST with label "NEWORB  " and header info:  4Dec18  DIIS   1
      Virial theorem: -V/T =      1.998059
@      MULPOP N      -0.19; H       0.14; H       0.16; H       0.17; O      -0.63; O      -0.65; O      -0.64; O      -0.95; H       0.31; H       0.33; 
@             H       0.33; H       0.33; H       0.33; H       0.33; H       0.32; H       0.31; 
   1  Level shift: doubly occupied orbital energies shifted by -2.00D-01

 DIIS Fock eigenvalues in symmetry 1
      -20.74948      -20.68364      -20.68120      -20.40345      -16.10408
       -1.56181       -1.50591       -1.50187       -1.48777       -1.38368
       -1.01232       -0.98520       -0.94017       -0.90472       -0.88543
       -0.88002       -0.82766       -0.78839       -0.75606       -0.75253
       -0.72805       -0.71723       -0.70739       -0.63616       -0.60390
        0.00000        0.08243        0.13753        0.18192        0.19376
        0.19565        0.23007        0.24740        0.25497        0.28630
        0.29986        0.34107        0.40931        0.43304        0.46474
        0.51305        0.52665        0.54589        0.57863        0.59723
        0.60248        0.61697        0.62188        0.79843        0.81787
        0.83783        0.91806        0.96948        0.98201        0.99456
        1.00579        1.06073        1.08051        1.08892        1.11519
        1.11847        1.13549        1.19818        1.19966        1.23114
        1.27325        1.31911        1.33961        1.38340        1.42315
        1.46584        1.47902        1.49315        1.49657        1.53072
        1.53710        1.62509        1.63499        1.64230        1.66783
        1.68912        1.70837        1.72785        1.75060        1.77514
        1.81134        1.82415        1.85541        1.89892        1.93672
        2.11587        2.12103        2.14022        2.17942        2.21740
        2.23350        2.27082        2.28164        2.31032        2.32922
        2.39502        2.51435        2.60612        2.62381        2.64876
        2.66876        2.68645        2.73307        2.74968        2.76956
        2.79656        2.82678        2.83574        2.95690        3.10457
        3.18265        3.25772        3.33150        3.41066        3.41426
        3.42963        3.50671        3.50736        3.52091        3.55534
        3.59421        3.60750        3.64200        3.70210        3.93033
        3.94881        3.98425        4.08863        4.10897        4.15654
        4.20547        4.20810        4.49448        4.86141        5.00910
        5.28720        5.39464        5.40857        5.53258        5.62661
        5.66586        5.72094        5.87282        5.96094        6.06040
        6.17425        6.19203       36.64359       51.48494       51.56987
       51.58894       51.85291
 Time used in FCKEIG, thr_jaco:   4.00D-02  7.00D-02  1.63D-04
 CPU and wall times used in FCKEIG, THR_FCKEIG:   4.00D-02  7.00D-02  3.74D-02
 -----------------------------------------------------------------------------

 *** DIIS iteration number    2
 RDSUPM called. NFMAT, ISYMDM(1:NFMAT)                     1
                     1

 ITDIIS, energy, error norm, change in energy, scr.thr., difden:
@ DIIS iter.   2    -360.631105473        1.08056D+00   -7.52D-01  -20    F

 (DIIS_RED) Control Parameters C2DIIS =         F NEVC =    2


 (DIIS_RED) B matrix:

               Column   1     Column   2
       1      14.00991557
       2       0.35828410     1.16761927
    ==== End of matrix output ====

 DIIS C vector; C2DIIS = F, LAMBDA = -1.12D+00
    0.055967    0.944033
* Read MO coefficients from SIRIUS.RST with label "NEWORB  " and header info:  4Dec18  DIIS   2
      Virial theorem: -V/T =      2.005886
@      MULPOP N      -0.67; H       0.26; H       0.24; H       0.26; O      -0.63; O      -0.58; O      -0.60; O      -0.69; H       0.31; H       0.33; 
@             H       0.29; H       0.32; H       0.31; H       0.32; H       0.21; H       0.32; 
   2  Level shift: doubly occupied orbital energies shifted by -1.00D-01

 DIIS Fock eigenvalues in symmetry 1
      -20.76815      -20.73497      -20.65667      -20.62140      -15.53582
       -1.46801       -1.42062       -1.40348       -1.38950       -1.21215
       -0.83508       -0.77736       -0.77076       -0.76430       -0.74149
       -0.73119       -0.70978       -0.70130       -0.67754       -0.65896
       -0.63897       -0.63632       -0.60212       -0.57829       -0.51109
        0.00000        0.12607        0.17461        0.20708        0.21892
        0.24035        0.24993        0.28525        0.30707        0.30958
        0.33254        0.36532        0.47409        0.49079        0.51444
        0.54663        0.56884        0.57448        0.60549        0.62350
        0.63999        0.65693        0.67164        0.89523        0.92400
        0.94069        0.94635        0.95775        0.98162        1.00386
        1.04658        1.04775        1.09111        1.10733        1.11766
        1.13316        1.14308        1.15000        1.27453        1.32687
        1.33487        1.35153        1.36993        1.44287        1.46646
        1.49093        1.52585        1.53519        1.54546        1.55105
        1.57669        1.63727        1.68266        1.69929        1.71984
        1.73700        1.76170        1.78720        1.80699        1.83568
        1.87863        1.89057        1.91582        1.99429        2.00375
        2.15141        2.21920        2.23678        2.25013        2.26201
        2.28654        2.33008        2.35887        2.36979        2.38849
        2.45889        2.58716        2.66376        2.67478        2.71736
        2.74075        2.76964        2.79401        2.80809        2.84410
        2.88144        2.98646        2.99025        3.06826        3.25635
        3.34125        3.36836        3.40941        3.42023        3.43500
        3.44425        3.44994        3.49489        3.52290        3.53265
        3.56946        3.58555        3.64047        3.66075        3.87364
        3.93849        3.99591        4.11509        4.11930        4.12799
        4.18756        4.21806        4.64400        5.13860        5.25368
        5.27412        5.30343        5.40049        5.40445        5.60798
        5.64992        5.67268        5.70734        5.95184        5.95960
        6.06271        6.21711       37.10270       51.39448       51.40402
       51.49726       51.55351
 Time used in FCKEIG, thr_jaco:   2.70D-02  3.50D-02  4.70D-05
 CPU and wall times used in FCKEIG, THR_FCKEIG:   2.70D-02  3.50D-02  1.08D-02
 -----------------------------------------------------------------------------

 *** DIIS iteration number    3
 RDSUPM called. NFMAT, ISYMDM(1:NFMAT)                     1
                     1

 ITDIIS, energy, error norm, change in energy, scr.thr., difden:
@ DIIS iter.   3    -360.699091893        4.30558D-01   -6.80D-02  -20    F

 (DIIS_RED) Control Parameters C2DIIS =         F NEVC =    3


 (DIIS_RED) B matrix:

               Column   1     Column   2     Column   3
       1      14.00991557
       2       0.35828410     1.16761927
       3       0.88937047    -0.06567324     0.18537993
    ==== End of matrix output ====

 DIIS C vector; C2DIIS = F, LAMBDA = -1.08D-01
   -0.053109    0.159114    0.893995
* Read MO coefficients from SIRIUS.RST with label "NEWORB  " and header info:  4Dec18  DIIS   3
      Virial theorem: -V/T =      2.002776
@      MULPOP N      -0.57; H       0.24; H       0.20; H       0.23; O      -0.69; O      -0.64; O      -0.64; O      -0.82; H       0.34; H       0.36; 
@             H       0.31; H       0.35; H       0.32; H       0.34; H       0.29; H       0.38; 
   3  Level shift: doubly occupied orbital energies shifted by -5.00D-02

 DIIS Fock eigenvalues in symmetry 1
      -20.64767      -20.56984      -20.55383      -20.53226      -15.62342
       -1.40184       -1.33726       -1.33107       -1.30976       -1.19830
       -0.76918       -0.71670       -0.71405       -0.69516       -0.69225
       -0.67291       -0.66066       -0.60462       -0.60371       -0.59043
       -0.57618       -0.52771       -0.51825       -0.51088       -0.46889
        0.00000        0.13248        0.17920        0.21496        0.22471
        0.24256        0.25766        0.28830        0.30682        0.31563
        0.33449        0.37259        0.47796        0.50014        0.52144
        0.55754        0.57318        0.58581        0.61897        0.63469
        0.64933        0.66581        0.67634        0.90029        0.92733
        0.93643        0.94745        0.98214        1.00416        1.01447
        1.05281        1.06741        1.10696        1.12458        1.13003
        1.14236        1.16200        1.17393        1.27826        1.33121
        1.33907        1.35936        1.37596        1.44726        1.48143
        1.50672        1.54191        1.54724        1.56046        1.56997
        1.59215        1.65624        1.69476        1.70860        1.73198
        1.75037        1.76901        1.79689        1.81643        1.84382
        1.88891        1.89572        1.92784        1.99534        2.00928
        2.16606        2.22984        2.24140        2.25521        2.28088
        2.30063        2.34218        2.35764        2.38477        2.40487
        2.47288        2.59613        2.67732        2.68800        2.72614
        2.75211        2.77302        2.80439        2.81815        2.85527
        2.89113        2.96525        2.97236        3.06921        3.24035
        3.36413        3.36615        3.43716        3.44392        3.45119
        3.45991        3.47950        3.52280        3.54612        3.55704
        3.60191        3.64038        3.65660        3.68468        3.93050
        3.96145        4.01895        4.13567        4.14275        4.18602
        4.20532        4.24296        4.61079        5.08482        5.22918
        5.30071        5.38323        5.42027        5.43228        5.63541
        5.68920        5.73447        5.75111        5.98288        6.06023
        6.09194        6.23577       36.96927       51.43964       51.53428
       51.57137       51.58040
 Time used in FCKEIG, thr_jaco:   2.30D-02  5.90D-02  1.87D-05
 CPU and wall times used in FCKEIG, THR_FCKEIG:   2.30D-02  5.90D-02  4.31D-03
 -----------------------------------------------------------------------------

 *** DIIS iteration number    4
 RDSUPM called. NFMAT, ISYMDM(1:NFMAT)                     1
                     1

 ITDIIS, energy, error norm, change in energy, scr.thr., difden:
@ DIIS iter.   4    -360.710683378        1.02714D-01   -1.16D-02  -20    F

 (DIIS_RED) Control Parameters C2DIIS =         F NEVC =    4


 (DIIS_RED) B matrix:

               Column   1     Column   2     Column   3     Column   4
       1      14.00991557
       2       0.35828410     1.16761927
       3       0.88937047    -0.06567324     0.18537993
       4       0.03524484     0.08899668    -0.00088388     0.01055024
    ==== End of matrix output ====

 DIIS C vector; C2DIIS = F, LAMBDA = -4.39D-03
   -0.000701   -0.077590    0.004689    1.073601
* Read MO coefficients from SIRIUS.RST with label "NEWORB  " and header info:  4Dec18  DIIS   4
      Virial theorem: -V/T =      2.003851
@      MULPOP N      -0.65; H       0.25; H       0.21; H       0.25; O      -0.71; O      -0.65; O      -0.66; O      -0.80; H       0.35; H       0.37; 
@             H       0.32; H       0.36; H       0.33; H       0.35; H       0.28; H       0.39; 
   4  Level shift: doubly occupied orbital energies shifted by -1.25D-02

 DIIS Fock eigenvalues in symmetry 1
      -20.61450      -20.53558      -20.53233      -20.51847      -15.57380
       -1.36663       -1.30150       -1.29589       -1.28492       -1.15673
       -0.73330       -0.68139       -0.67241       -0.65857       -0.65589
       -0.63646       -0.62308       -0.57441       -0.56460       -0.55215
       -0.53801       -0.48977       -0.48714       -0.47115       -0.42991
        0.00000        0.13235        0.17855        0.21326        0.22458
        0.24347        0.25733        0.28807        0.30867        0.31654
        0.33468        0.37294        0.47967        0.50120        0.52169
        0.55651        0.57379        0.58598        0.61671        0.63292
        0.64804        0.66550        0.67717        0.90244        0.93044
        0.93917        0.94954        0.98070        1.00211        1.01529
        1.05506        1.06551        1.10707        1.12549        1.12957
        1.14179        1.16248        1.16858        1.27864        1.33244
        1.34061        1.36054        1.37526        1.44851        1.47958
        1.50496        1.53998        1.54536        1.55935        1.56748
        1.59071        1.65211        1.69323        1.70796        1.73153
        1.74981        1.77032        1.79602        1.81544        1.84379
        1.88713        1.89668        1.92696        1.99768        2.01052
        2.16408        2.23119        2.24205        2.25691        2.27854
        2.29661        2.34012        2.36095        2.38252        2.40295
        2.47327        2.59595        2.67456        2.68707        2.72675
        2.75013        2.77562        2.80313        2.81659        2.85455
        2.89163        2.97041        2.97704        3.07129        3.24483
        3.36379        3.37158        3.43540        3.44465        3.44573
        3.45979        3.48221        3.51065        3.54648        3.55654
        3.60167        3.62903        3.65616        3.68516        3.92122
        3.96061        4.01909        4.13504        4.14233        4.17637
        4.20513        4.24354        4.61378        5.09242        5.23553
        5.30005        5.36508        5.41977        5.42978        5.63407
        5.68871        5.73047        5.73636        5.98054        6.04124
        6.09050        6.23419       36.98144       51.43550       51.53125
       51.54331       51.56965
 Time used in FCKEIG, thr_jaco:   2.20D-02  3.30D-02  4.47D-06
 CPU and wall times used in FCKEIG, THR_FCKEIG:   2.20D-02  3.30D-02  1.03D-03
 -----------------------------------------------------------------------------

 *** DIIS iteration number    5
 RDSUPM called. NFMAT, ISYMDM(1:NFMAT)                     1
                     1

 ITDIIS, energy, error norm, change in energy, scr.thr., difden:
@ DIIS iter.   5    -360.711881938        2.68144D-02   -1.20D-03  -20    F

 (DIIS_RED) Control Parameters C2DIIS =         F NEVC =    5


 (DIIS_RED) B matrix:

               Column   1     Column   2     Column   3     Column   4     Column   5
       1      14.00991557
       2       0.35828410     1.16761927
       3       0.88937047    -0.06567324     0.18537993
       4       0.03524484     0.08899668    -0.00088388     0.01055024
       5       0.01493663     0.00650398     0.00545791     0.00114706     0.00071901
    ==== End of matrix output ====

 DIIS C vector; C2DIIS = F, LAMBDA = -5.12D-04
    0.001566   -0.006650   -0.038493   -0.019391    1.062968
* Read MO coefficients from SIRIUS.RST with label "NEWORB  " and header info:  4Dec18  DIIS   5
      Virial theorem: -V/T =      2.003516
@      MULPOP N      -0.65; H       0.26; H       0.21; H       0.25; O      -0.72; O      -0.67; O      -0.67; O      -0.82; H       0.36; H       0.38; 
@             H       0.33; H       0.36; H       0.34; H       0.35; H       0.29; H       0.40; 

 DIIS Fock eigenvalues in symmetry 1
      -20.60169      -20.52281      -20.51173      -20.50596      -15.55224
       -1.35401       -1.28870       -1.28355       -1.26964       -1.14158
       -0.72106       -0.66956       -0.65805       -0.64594       -0.64161
       -0.62263       -0.61005       -0.55968       -0.55108       -0.53983
       -0.52573       -0.47410       -0.47310       -0.45787       -0.41437
        0.00000        0.13236        0.17860        0.21334        0.22457
        0.24371        0.25732        0.28807        0.30918        0.31682
        0.33476        0.37356        0.48006        0.50205        0.52231
        0.55628        0.57401        0.58600        0.61697        0.63281
        0.64772        0.66549        0.67788        0.90437        0.93186
        0.94036        0.95025        0.98150        1.00368        1.01529
        1.05591        1.06665        1.10748        1.12620        1.13046
        1.14140        1.16254        1.16973        1.27950        1.33302
        1.34154        1.36110        1.37534        1.44925        1.47942
        1.50574        1.53994        1.54476        1.55924        1.56787
        1.59081        1.65263        1.69277        1.70763        1.73168
        1.75039        1.77063        1.79573        1.81515        1.84398
        1.88651        1.89769        1.92682        1.99863        2.01109
        2.16349        2.23149        2.24263        2.25767        2.27851
        2.29739        2.33935        2.36219        2.38197        2.40265
        2.47440        2.59580        2.67442        2.68679        2.72676
        2.74939        2.77618        2.80256        2.81594        2.85424
        2.89187        2.97264        2.97900        3.07293        3.24680
        3.36399        3.37452        3.43768        3.44519        3.44768
        3.45980        3.48379        3.51352        3.54667        3.55663
        3.60141        3.63187        3.65600        3.68537        3.92435
        3.96062        4.01928        4.13472        4.14253        4.17945
        4.20495        4.24374        4.61825        5.09675        5.23924
        5.30095        5.36953        5.41992        5.43061        5.63426
        5.68859        5.73283        5.73867        5.98051        6.04543
        6.09055        6.23385       36.99027       51.43582       51.53152
       51.55126       51.56968
 Time used in FCKEIG, thr_jaco:   2.10D-02  5.50D-02  1.17D-06
 CPU and wall times used in FCKEIG, THR_FCKEIG:   2.10D-02  5.50D-02  2.68D-04
 -----------------------------------------------------------------------------

 *** DIIS iteration number    6
 RDSUPM called. NFMAT, ISYMDM(1:NFMAT)                     1
                     1

 ITDIIS, energy, error norm, change in energy, scr.thr., difden:
@ DIIS iter.   6    -360.711975608        1.05794D-02   -9.37D-05  -20    F

 (DIIS_RED) Control Parameters C2DIIS =         F NEVC =    6


 (DIIS_RED) B matrix:

               Column   1     Column   2     Column   3     Column   4     Column   5     Column   6
       1      14.00991557
       2       0.35828410     1.16761927
       3       0.88937047    -0.06567324     0.18537993
       4       0.03524484     0.08899668    -0.00088388     0.01055024
       5       0.01493663     0.00650398     0.00545791     0.00114706     0.00071901
       6      -0.00105228    -0.00040126     0.00093690     0.00044338     0.00005922     0.00011192
    ==== End of matrix output ====

 DIIS C vector; C2DIIS = F, LAMBDA = -4.53D-05
    0.000679    0.008387   -0.010862   -0.129441    0.183923    0.947315
* Read MO coefficients from SIRIUS.RST with label "NEWORB  " and header info:  4Dec18  DIIS   6
      Virial theorem: -V/T =      2.003662
@      MULPOP N      -0.65; H       0.25; H       0.21; H       0.25; O      -0.73; O      -0.67; O      -0.67; O      -0.82; H       0.36; H       0.38; 
@             H       0.33; H       0.37; H       0.34; H       0.35; H       0.30; H       0.40; 

 DIIS Fock eigenvalues in symmetry 1
      -20.60155      -20.52252      -20.51427      -20.50599      -15.55661
       -1.35389       -1.28850       -1.28354       -1.27034       -1.14300
       -0.72123       -0.66984       -0.65920       -0.64612       -0.64254
       -0.62340       -0.61048       -0.56055       -0.55073       -0.53995
       -0.52589       -0.47439       -0.47278       -0.45763       -0.41550
        0.00000        0.13223        0.17839        0.21317        0.22449
        0.24351        0.25721        0.28793        0.30888        0.31677
        0.33457        0.37329        0.47973        0.50158        0.52189
        0.55616        0.57372        0.58594        0.61668        0.63258
        0.64756        0.66535        0.67746        0.90367        0.93114
        0.93983        0.95007        0.98130        1.00339        1.01521
        1.05568        1.06631        1.10740        1.12616        1.13033
        1.14124        1.16251        1.16933        1.27904        1.33266
        1.34105        1.36093        1.37516        1.44883        1.47913
        1.50530        1.53969        1.54450        1.55907        1.56754
        1.59060        1.65222        1.69253        1.70735        1.73140
        1.75001        1.77027        1.79540        1.81484        1.84359
        1.88622        1.89707        1.92656        1.99804        2.01066
        2.16324        2.23109        2.24209        2.25705        2.27816
        2.29677        2.33903        2.36150        2.38173        2.40248
        2.47380        2.59540        2.67407        2.68652        2.72637
        2.74908        2.77564        2.80219        2.81556        2.85389
        2.89150        2.97136        2.97789        3.07205        3.24573
        3.36402        3.37296        3.43692        3.44497        3.44694
        3.45972        3.48307        3.51265        3.54677        3.55666
        3.60131        3.63101        3.65592        3.68547        3.92333
        3.96061        4.01937        4.13459        4.14254        4.17842
        4.20486        4.24387        4.61614        5.09451        5.23737
        5.30078        5.36830        5.41991        5.43071        5.63430
        5.68852        5.73238        5.73787        5.98051        6.04405
        6.09065        6.23372       36.98600       51.43595       51.53181
       51.54876       51.56963
 Time used in FCKEIG, thr_jaco:   2.10D-02  3.90D-02  4.60D-07
 CPU and wall times used in FCKEIG, THR_FCKEIG:   2.10D-02  3.90D-02  1.06D-04
 -----------------------------------------------------------------------------

 *** DIIS iteration number    7
 RDSUPM called. NFMAT, ISYMDM(1:NFMAT)                     1
                     1

 ITDIIS, energy, error norm, change in energy, scr.thr., difden:
@ DIIS iter.   7    -360.711987641        2.48522D-03   -1.20D-05  -20    F

 (DIIS_RED) Control Parameters C2DIIS =         F NEVC =    7


 (DIIS_RED) B matrix:

               Column   1     Column   2     Column   3     Column   4     Column   5     Column   6
       1      14.00991557
       2       0.35828410     1.16761927
       3       0.88937047    -0.06567324     0.18537993
       4       0.03524484     0.08899668    -0.00088388     0.01055024
       5       0.01493663     0.00650398     0.00545791     0.00114706     0.00071901
       6      -0.00105228    -0.00040126     0.00093690     0.00044338     0.00005922     0.00011192
       7       0.00041051    -0.00016915     0.00012137     0.00000281     0.00004604     0.00000421

               Column   7
       7       0.00000618
    ==== End of matrix output ====

 DIIS C vector; C2DIIS = F, LAMBDA = -1.55D-06
   -0.000256   -0.001016    0.004840    0.029630   -0.135659   -0.124500    1.226961
* Read MO coefficients from SIRIUS.RST with label "NEWORB  " and header info:  4Dec18  DIIS   7
      Virial theorem: -V/T =      2.003639
@      MULPOP N      -0.65; H       0.26; H       0.21; H       0.25; O      -0.73; O      -0.67; O      -0.67; O      -0.82; H       0.36; H       0.38; 
@             H       0.33; H       0.37; H       0.34; H       0.35; H       0.30; H       0.40; 

 DIIS Fock eigenvalues in symmetry 1
      -20.60169      -20.52269      -20.51373      -20.50611      -15.55617
       -1.35388       -1.28851       -1.28355       -1.27007       -1.14285
       -0.72127       -0.66990       -0.65914       -0.64617       -0.64241
       -0.62335       -0.61051       -0.56040       -0.55067       -0.54009
       -0.52600       -0.47409       -0.47268       -0.45759       -0.41530
        0.00000        0.13224        0.17841        0.21320        0.22448
        0.24353        0.25723        0.28793        0.30889        0.31678
        0.33457        0.37337        0.47976        0.50167        0.52196
        0.55616        0.57374        0.58594        0.61672        0.63259
        0.64753        0.66534        0.67754        0.90379        0.93122
        0.93988        0.95009        0.98135        1.00352        1.01516
        1.05570        1.06640        1.10742        1.12619        1.13040
        1.14122        1.16250        1.16945        1.27910        1.33269
        1.34111        1.36095        1.37517        1.44888        1.47911
        1.50540        1.53970        1.54445        1.55902        1.56759
        1.59060        1.65229        1.69250        1.70733        1.73141
        1.75008        1.77026        1.79539        1.81482        1.84362
        1.88618        1.89715        1.92652        1.99809        2.01074
        2.16320        2.23107        2.24210        2.25709        2.27816
        2.29683        2.33898        2.36155        2.38167        2.40242
        2.47389        2.59539        2.67412        2.68646        2.72636
        2.74904        2.77564        2.80215        2.81552        2.85383
        2.89159        2.97147        2.97798        3.07218        3.24583
        3.36400        3.37312        3.43709        3.44498        3.44707
        3.45968        3.48312        3.51292        3.54673        3.55665
        3.60128        3.63129        3.65589        3.68545        3.92359
        3.96059        4.01932        4.13456        4.14254        4.17869
        4.20484        4.24384        4.61642        5.09473        5.23754
        5.30077        5.36864        5.41986        5.43068        5.63425
        5.68847        5.73249        5.73803        5.98045        6.04439
        6.09056        6.23366       36.98643       51.43582       51.53163
       51.54930       51.56952
 Time used in FCKEIG, thr_jaco:   2.10D-02  4.30D-02  1.08D-07
 CPU and wall times used in FCKEIG, THR_FCKEIG:   2.10D-02  4.30D-02  2.49D-05
 -----------------------------------------------------------------------------

 *** DIIS iteration number    8
 RDSUPM called. NFMAT, ISYMDM(1:NFMAT)                     1
                     1

 ITDIIS, energy, error norm, change in energy, scr.thr., difden:
@ DIIS iter.   8    -360.711988477        4.33337D-04   -8.36D-07  -20    F

 (DIIS_RED) Control Parameters C2DIIS =         F NEVC =    8


 (DIIS_RED) B matrix:

               Column   1     Column   2     Column   3     Column   4     Column   5     Column   6
       1      14.00991557
       2       0.35828410     1.16761927
       3       0.88937047    -0.06567324     0.18537993
       4       0.03524484     0.08899668    -0.00088388     0.01055024
       5       0.01493663     0.00650398     0.00545791     0.00114706     0.00071901
       6      -0.00105228    -0.00040126     0.00093690     0.00044338     0.00005922     0.00011192
       7       0.00041051    -0.00016915     0.00012137     0.00000281     0.00004604     0.00000421
       8       0.00018326    -0.00000094     0.00000628     0.00000337     0.00000144     0.00000180

               Column   7     Column   8
       7       0.00000618
       8       0.00000052     0.00000019
    ==== End of matrix output ====

 DIIS C vector; C2DIIS = F, LAMBDA = -1.23D-07
   -0.000014   -0.000104   -0.000114    0.000303    0.009717   -0.018088   -0.136545    1.144845
* Read MO coefficients from SIRIUS.RST with label "NEWORB  " and header info:  4Dec18  DIIS   8
      Virial theorem: -V/T =      2.003650
@      MULPOP N      -0.65; H       0.26; H       0.21; H       0.25; O      -0.73; O      -0.67; O      -0.67; O      -0.82; H       0.36; H       0.38; 
@             H       0.33; H       0.37; H       0.34; H       0.35; H       0.30; H       0.40; 

 DIIS Fock eigenvalues in symmetry 1
      -20.60158      -20.52258      -20.51375      -20.50606      -15.55617
       -1.35384       -1.28847       -1.28353       -1.27007       -1.14285
       -0.72124       -0.66988       -0.65914       -0.64614       -0.64241
       -0.62335       -0.61051       -0.56041       -0.55063       -0.54008
       -0.52600       -0.47408       -0.47264       -0.45757       -0.41530
        0.00000        0.13224        0.17841        0.21320        0.22448
        0.24353        0.25724        0.28793        0.30889        0.31678
        0.33457        0.37337        0.47976        0.50166        0.52196
        0.55616        0.57374        0.58595        0.61673        0.63259
        0.64754        0.66535        0.67753        0.90379        0.93122
        0.93989        0.95010        0.98136        1.00353        1.01516
        1.05571        1.06641        1.10743        1.12621        1.13041
        1.14123        1.16252        1.16946        1.27911        1.33270
        1.34111        1.36096        1.37518        1.44888        1.47911
        1.50540        1.53970        1.54445        1.55903        1.56758
        1.59060        1.65230        1.69250        1.70733        1.73141
        1.75007        1.77026        1.79538        1.81482        1.84362
        1.88618        1.89714        1.92652        1.99808        2.01073
        2.16320        2.23107        2.24210        2.25709        2.27816
        2.29683        2.33898        2.36154        2.38168        2.40243
        2.47388        2.59538        2.67412        2.68646        2.72635
        2.74904        2.77563        2.80215        2.81552        2.85383
        2.89157        2.97147        2.97798        3.07217        3.24582
        3.36403        3.37311        3.43709        3.44501        3.44707
        3.45970        3.48314        3.51292        3.54677        3.55669
        3.60130        3.63128        3.65590        3.68548        3.92358
        3.96062        4.01935        4.13458        4.14257        4.17868
        4.20485        4.24388        4.61641        5.09472        5.23755
        5.30082        5.36863        5.41989        5.43074        5.63430
        5.68849        5.73251        5.73805        5.98051        6.04438
        6.09062        6.23369       36.98643       51.43592       51.53175
       51.54927       51.56957
 Time used in FCKEIG, thr_jaco:   2.10D-02  3.90D-02  1.89D-08
 CPU and wall times used in FCKEIG, THR_FCKEIG:   2.10D-02  3.90D-02  4.33D-06
 -----------------------------------------------------------------------------

 *** DIIS iteration number    9
 RDSUPM called. NFMAT, ISYMDM(1:NFMAT)                     1
                     1

 ITDIIS, energy, error norm, change in energy, scr.thr., difden:
@ DIIS iter.   9    -360.711988501        1.69942D-04   -2.41D-08  -20    F

 (DIIS_RED) Control Parameters C2DIIS =         F NEVC =    8


 (DIIS_RED) B matrix:

               Column   1     Column   2     Column   3     Column   4     Column   5     Column   6
       1       0.00000003
       2      -0.00000861     1.16761927
       3      -0.00000117    -0.06567324     0.18537993
       4      -0.00000022     0.08899668    -0.00088388     0.01055024
       5       0.00000001     0.00650398     0.00545791     0.00114706     0.00071901
[...]
 | 1 1 1 1 |  15   1  21   1 |     2655        1 |      3523186 |   -0.065749  |
 | 1 1 1 1 |  23   1  21   1 |     2663        1 |      3544454 |   -0.067401  |
 | 1 1 1 1 |  24   1  21   1 |     2664        1 |      3547117 |   -0.178241  |
 | 1 1 1 1 | 113   1  21   1 |     2753        1 |      3788129 |   -0.085404  |
 | 1 1 1 1 |   1  24  21   1 |     2641       24 |      3486144 |    0.070120  |
 +=============================================================================+


          Norm of Printed Amplitude Vector :             0.8798

          Printed all single excitations greater than 0.377594

          Printed all double excitations greater than 0.065551



+======================================================================+
| contributions of excitation levels to right eigenvectors as computed |
| from the (RE|RE) self overlap                                        |
+----------------------------------------------------------------------+
| sym | multi | state |    E / eV  | % singles | % doubles | % triples |
+======================================================================+
|    1|   1   |   1   |  407.00688 |  88.0406  |  11.9594  |   0.0000  |
+======================================================================+





+======================================================================+
| contributions of excitation levels to excited states as computed     |
| from the (LE|RE) overlap                                             |
+----------------------------------------------------------------------+
| sym | multi | state |    E / eV  | % singles | % doubles | % triples |
+======================================================================+
|    1|   1   |   1   |  407.00688 |  78.6302  |  21.3698  |   0.0000  |
+======================================================================+



 --------------------------
 Symmetry class Nr.:     1
 Multiplicity      :     3
 --------------------------

 Length of Excitation vectors in this class is:   7689528
 No Excitation Energies calculated in this symmetry class
     

   *******************************************************************
   *                                                                 *
   *--------   OUTPUT FROM PROPERTY AND SYMMETRY ANALYSIS   ---------*
   *                                                                 *
   *******************************************************************



                         +-------------------------------+
                         ! REQUESTED PROPERTY OPERATORS: !
                         +-------------------------------+

             Index   Oper. Label  Symmetry  Transp.  PDBS  Atom
             --------------------------------------------------
                1     HAM0            1        1      T      0
                2     XDIPLEN         1        1      F      0
                3     YDIPLEN         1        1      F      0
                4     ZDIPLEN         1        1      F      0
             --------------------------------------------------




                         +-------------------------------+
                         ! REQUESTED EXPECTATION VALUES: !
                         +-------------------------------+

                       Index   Oper. Label  Symmetry
                       -----------------------------
                       -----------------------------




                       +------------------------------------+
                       ! REQUESTED EFFECTIVE FOCK MATRICES: !
                       +------------------------------------+

                       Index   Oper. Label  Symmetry
                       -----------------------------
                       -----------------------------




                        +----------------------------------+
                        ! REQUESTED FIRST ORDER M-VECTORS: !
                        +----------------------------------+

               Index   State Symmetry  Frequency
               --------------------------------------------------
                  1             1    1     1.495723D+01
               --------------------------------------------------


      

    *******************************************************************
    *          SOLVING COUPLED CLUSTER RESPONSE EQUATIONS             *
    *******************************************************************



 
 +======================================================================+
 !                     RHS & ETA VECTORS TO COMPUTE:                    !
 +======================================================================+
 | TYPE | # VEC. |  NEEDED FOR:                                         |
 +----------------------------------------------------------------------+
 +======================================================================+



 +======================================================================+
 !                       LINEAR EQUATIONS TO SOLVE:                     !
 +======================================================================+
 | TYPE | # VEC. |  EQUATION:                                           |
 +----------------------------------------------------------------------+
 |  M1  |    1   |  first-order ground - excited state multipliers      |
 +======================================================================+



 +======================================================================+
 !                F MATRIX TRANSFORMATIONS TO COMPUTE:                  !
 +======================================================================+
 | TYPE | # VEC. |  TRANSFORMED:                                        |
 +----------------------------------------------------------------------+
 |  FR  |    1   |  right eigenvectors (RE)                             |
 +======================================================================+





 Testing R1 list: 

 List nr.  Label     Symmetry      Frequency      T1-norm        T2-norm


 Testing L1 list: 

 List nr.  Label     Symmetry      Frequency      T1-norm        T2-norm
  Solvent 1-order response equations converged in                     0 
  solvent iterations
 SONIAPRI                     0
 CCEQ_STR: CVSEPARATION =  T
 CCEQ_STR: IONIZATION =  T
 CCEQ_STR: REMOVE_CORE =  F
 could not find required file CCM1_1___1
 IOPTSV is    33 ... program continues nevertheless.
 Vector nr.  1 of type M1  and symmetry  1 was not found on file.
     M1  start vector nr.  1 of symmetry  1 generated from gradient
 CCEQ_STR: freeze VALENCE OR VIRT
 CCEQ_SOL: CVSEPARA=     T
 CCEQ_SOL: LIONISAT=     T
 CCEQ_SOL: REMOVE_CORE =  F



 ----- COUPLED CLUSTER RESPONSE SOLVER -----

    Iter  #Vectors  time (min)   residual
    --------------------------------------
 CCRED CVS/IONIS sigma_                     1 
 project out valence occupied or virtual
      1       1         1.41     0.32E+00
 CCRED CVS/IONIS sigma_                     2 
 project out valence occupied or virtual
      2       1         1.40     0.70E-01
 CCRED CVS/IONIS sigma_                     3 
 project out valence occupied or virtual
                    -1  vectors with norm le:  1.000000000000000E-035  REMOVED

 CCORT,**WARNING**  number vectors added is zero after check for vector norm , NBADD :    0

 CCORT, number vectors added is zero , NBADD :    0

 CCORT, number vectors added is zero , NBADD :    0

 CCORT, number vectors added is zero , NBADD :    0

 *** MICROITERATIONS STOPPED DUE TO LINEAR DEPENDENCE BETWEEN ALL NEW TRIAL VECTORS
                     0  trial vectors converged
  LINEAR DEPENDENCE BETWEEN                     1  NON CONVERGED TRIAL VECTORS
      3       1         1.33     0.72E-02

 ***  CCEQ_SOL -MICROITERATIONS STOPPED  
     LINEAR DEPENDENCE BETWEEN ALL NEW TRIAL VECTORS
    --------------------------------------
    converged in  3 iterations
    threshold:    0.10E-08


         Routine          Time (min)
         ---------------------------
         CC_TRDRV            4.13
         CCRED               0.02
         CCNEX               0.03
         ---------------------------
         Total time          4.18


  Total CPU  time used in CCEQ_SOLV:  4 minutes 11 seconds
  Total wall time used in CCEQ_SOLV:  4 minutes 33 seconds


 xxxxxxxxxxxxxxxxxxxxxxxxxxxxxxxxxxxxx

 
 Solution of CC response equations completed.
 

 *******************************************************************
 *                                                                 *
 *--------  OUTPUT FROM COUPLED CLUSTER LINEAR RESPONSE   ---------*
 *                                                                 *
 *--------      CALCULATION OF SECOND ORDER RESIDUES      ---------*
 *                                                                 *
 *******************************************************************



                  +---------------------------------------------+
                  ! CC_SOPR: Calculation of CCSD       Residues !
                  +---------------------------------------------+

 Doing the Mf*CsiA
 Doing the Mf*CsiA
 Doing the Mf*CsiA


 CCSD  Right transition moments in atomic units:
 -----------------------------------------------

  1      14.957228  <XDIPLEN |f> =       0.00000001
  1      14.957228  <YDIPLEN |f> =      -0.00000000
  1      14.957228  <ZDIPLEN |f> =      -0.00000001


 CCSD  Left  transition moments in atomic units:
 -----------------------------------------------

  1      14.957228  <f|XDIPLEN > =       0.00000000
  1      14.957228  <f|YDIPLEN > =      -0.00000000
  1      14.957228  <f|ZDIPLEN > =      -0.00000001


 CCSD  linear response residue property in atomic units:
 -------------------------------------------------------

 RES{<<XDIPLEN ,XDIPLEN >>(14.957228)} =     0.00000000 (   0.00000000)
 RES{<<XDIPLEN ,YDIPLEN >>(14.957228)} =    -0.00000000 (  -0.00000000)
 RES{<<XDIPLEN ,ZDIPLEN >>(14.957228)} =    -0.00000000 (  -0.00000001)
 RES{<<YDIPLEN ,XDIPLEN >>(14.957228)} =    -0.00000000 (  -0.00000000)
 RES{<<YDIPLEN ,YDIPLEN >>(14.957228)} =     0.00000000 (   0.00000000)
 RES{<<YDIPLEN ,ZDIPLEN >>(14.957228)} =     0.00000000 (   0.00000000)
 RES{<<ZDIPLEN ,XDIPLEN >>(14.957228)} =    -0.00000000 (  -0.00000001)
 RES{<<ZDIPLEN ,YDIPLEN >>(14.957228)} =     0.00000000 (   0.00000000)
 RES{<<ZDIPLEN ,ZDIPLEN >>(14.957228)} =     0.00000000 (   0.00000001)


 CCSD  Transition strength matrix for state nr.  1 of symmetry 1
 CCSD  excitation energy:14.95722805

 Gauge: length

               Column   1     Column   2     Column   3
       1     1.219714D-17  -2.833534D-18  -2.942765D-17
       2    -2.833534D-18   6.526413D-19   6.838750D-18
       3    -2.942765D-17   6.838750D-18   7.099816D-17
    ==== End of matrix output ====

 Principal values of diagonalized transition strength matrix:

             a.u.               
 1       0.00000000
 2       0.00000000
 3       0.00000000

 Principal axis of diagonalized transition strength matrix:


               Column   1     Column   2     Column   3
       1       1.00000000     0.00000000     0.00000000
       2       0.00000000     1.00000000     0.00000000
       3       0.00000000     0.00000000     1.00000000
    ==== End of matrix output ====


 CCSD   oscillator strength matrix for state nr.  1 of symmetry 1
 CCSD  excitation energy:14.95722805


               Column   1     Column   2     Column   3
       1     1.216236D-16  -2.825454D-17  -2.934374D-16
       2    -2.825454D-17   6.507803D-18   6.819250D-17
       3    -2.934374D-16   6.819250D-17   7.079571D-16
    ==== End of matrix output ====

 Principal values of diagonalized oscillator strength matrix:

             a.u.               
 1       0.00000000
 2       0.00000000
 3       0.00000000

 Principal axis of diagonalized oscillator strength matrix:


               Column   1     Column   2     Column   3
       1       1.00000000     0.00000000     0.00000000
       2       0.00000000     1.00000000     0.00000000
       3       0.00000000     0.00000000     1.00000000
    ==== End of matrix output ====

  Total time for      9 linear response residues:       2.76 seconds.
  

 *******************************************************************************
 *******************************************************************************
 *                                                                             *
 *                                                                             *
 *                   SUMMARY OF COUPLED CLUSTER CALCULATION                    *
 *                                                                             *
 *                                                                             *
 *******************************************************************************
 *******************************************************************************

                                                                                
                                                                                
            Total SCF   energy:                  -360.7119885034                
            Total MP2   energy:                  -361.8232481423                
            Total CCSD  energy:                  -361.8611992603                
                                                                                
                                                                                
            Total SCF   energy:                  -360.7119885034                
            Total RSTAR energy:                  -361.8611992603                
            Total CCSD  energy:                  -361.8613610571                
                                                                                
                                                                                
            Total SCF   energy:                  -360.7119885034                
            Total RSTAR energy:                  -361.8613610571                
            Total CCSD  energy:                  -361.8613633520                
                                                                                
                                                                                
            Total SCF   energy:                  -360.7119885034                
            Total RSTAR energy:                  -361.8613633520                
            Total CCSD  energy:                  -361.8613635112                
                                                                                
                                                                                
            Total SCF   energy:                  -360.7119885034                
            Total RSTAR energy:                  -361.8613635112                
            Total CCSD  energy:                  -361.8613635183                
                                                                                
                                                                                
            Total SCF   energy:                  -360.7119885034                
            Total RSTAR energy:                  -361.8613635183                
            Total CCSD  energy:                  -361.8613635186                
                                                                                
                                                                                
            Total SCF   energy:                  -360.7119885034                
            Total RSTAR energy:                  -361.8613635186                
            Total CCSD  energy:                  -361.8613635186                
            CCSD Total  energy:                  -362.2371637796                
            CCSD E(QM/MM)     :                    -0.3707166490                
                                                                                
                                                                                
                                                                                
 +=============================================================================+
 |  sym. | Exci.  |        CCSD       Excitation energies            | ||T1||  |
 |(spin, |        +------------------------------------------------------------+
 | spat) |        |     Hartree    |       eV.      |     cm-1       |    %    |
 +=============================================================================+
 | ^1A   |    1   |    14.9572281  |     407.00688  |   3282732.083  |  88.04  |
 +=============================================================================+
                                                                                
                                                                                
     Total energies in Hartree:                                                 
             1 ^1A       -346.9092190770                                        
                                                                                
                                                                                
 +=============================================================================+
 |  sym. | Exci.  |        CCSD       Length   Gauge Oscillator Strength       |
 |(spin, |        +------------------------------------------------------------+
 | spat) |        | Dipole Strength(a.u.) | Oscillator strength  | Direction   |
 +=============================================================================+
 | ^1A   |    1   |        0.0000000      |      0.0000000       |    -        |
 +=============================================================================+

  1 a.u. =        27.21138 eV.  
  1 a.u. =    219474.62934 cm-1.
  

 *******************************************************************************
 *******************************************************************************
 *                                                                             *
 *                                                                             *
 *                      END OF COUPLED CLUSTER CALCULATION                     *
 *                                                                             *
 *                                                                             *
 *******************************************************************************
 *******************************************************************************


 CPU and wall time for CC :    7059.283   14745.707

 
     Date and time (Linux)  : Tue Dec  4 13:32:15 2018
     Host name              : n-62-23-29                              


                      .-------------------------------------.
                      | End of Coupled Cluster Section (CC) |
                      `-------------------------------------'

  Total CPU  time used in DALTON:   1 hour  59 minutes 56 seconds
  Total wall time used in DALTON:   4 hours 12 minutes 42 seconds

 
     Date and time (Linux)  : Tue Dec  4 13:32:15 2018
     Host name              : n-62-23-29                              
  

 +---------------------------------------------------------+ 
 | List of selected calculated molecular properties (a.u.) | 
 +---------------------------------------------------------+ 

  Properties are read from unit number                      4

 CCSD       properties :
 #  1 1 CCSD/MM  Ground state Energy =    -362.2371637796
 #  2 1 E_QM/MM  Ground state Energy =      -0.3707166490
 #  3 1 Sy: 1 Sp: 1 Exc:  1 E_tot:   -346.9092190770 w:     14.9572280535 E_grs:   -361.8664471305
 #  4 1 Exctot   Excited state Energy =    -346.9092190770
 #  5 1 |<O|XDIPLEN |i(14.957228)>| =     0.00000000
 #  7 1 |<O|YDIPLEN |i(14.957228)>| =     0.00000000
 #  9 1 |<O|ZDIPLEN |i(14.957228)>| =     0.00000001

 THE_END   
