

     ************************************************************************
     *************** Dalton - An Electronic Structure Program ***************
     ************************************************************************

    This is output from DALTON release Dalton2017.alpha (2016)
         ( Web site: http://daltonprogram.org )

   ----------------------------------------------------------------------------

    NOTE:
     
    Dalton is an experimental code for the evaluation of molecular
    properties using (MC)SCF, DFT, CI, and CC wave functions.
    The authors accept no responsibility for the performance of
    the code or for the correctness of the results.
     
    The code (in whole or part) is provided under a licence and
    is not to be reproduced for further distribution without
    the written permission of the authors or their representatives.
     
    See the home page "http://daltonprogram.org" for further information.
     
    If results obtained with this code are published,
    the appropriate citations would be both of:
     
       K. Aidas, C. Angeli, K. L. Bak, V. Bakken, R. Bast,
       L. Boman, O. Christiansen, R. Cimiraglia, S. Coriani,
       P. Dahle, E. K. Dalskov, U. Ekstroem,
       T. Enevoldsen, J. J. Eriksen, P. Ettenhuber, B. Fernandez,
       L. Ferrighi, H. Fliegl, L. Frediani, K. Hald, A. Halkier,
       C. Haettig, H. Heiberg, T. Helgaker, A. C. Hennum,
       H. Hettema, E. Hjertenaes, S. Hoest, I.-M. Hoeyvik,
       M. F. Iozzi, B. Jansik, H. J. Aa. Jensen, D. Jonsson,
       P. Joergensen, J. Kauczor, S. Kirpekar,
       T. Kjaergaard, W. Klopper, S. Knecht, R. Kobayashi, H. Koch,
       J. Kongsted, A. Krapp, K. Kristensen, A. Ligabue,
       O. B. Lutnaes, J. I. Melo, K. V. Mikkelsen, R. H. Myhre,
       C. Neiss, C. B. Nielsen, P. Norman, J. Olsen,
       J. M. H. Olsen, A. Osted, M. J. Packer, F. Pawlowski,
       T. B. Pedersen, P. F. Provasi, S. Reine, Z. Rinkevicius,
       T. A. Ruden, K. Ruud, V. Rybkin, P. Salek, C. C. M. Samson,
       A. Sanchez de Meras, T. Saue, S. P. A. Sauer,
       B. Schimmelpfennig, K. Sneskov, A. H. Steindal,
       K. O. Sylvester-Hvid, P. R. Taylor, A. M. Teale,
       E. I. Tellgren, D. P. Tew, A. J. Thorvaldsen, L. Thoegersen,
       O. Vahtras, M. A. Watson, D. J. D. Wilson, M. Ziolkowski
       and H. Agren,
       "The Dalton quantum chemistry program system",
       WIREs Comput. Mol. Sci. 2014, 4:269–284 (doi: 10.1002/wcms.1172)
     
    and
     
       Dalton, a Molecular Electronic Structure Program,
       Release Dalton2017.alpha (2016), see http://daltonprogram.org
   ----------------------------------------------------------------------------

    Authors in alphabetical order (major contribution(s) in parenthesis):

  Kestutis Aidas,           Vilnius University,           Lithuania   (QM/MM)
  Celestino Angeli,         University of Ferrara,        Italy       (NEVPT2)
  Keld L. Bak,              UNI-C,                        Denmark     (AOSOPPA, non-adiabatic coupling, magnetic properties)
  Vebjoern Bakken,          University of Oslo,           Norway      (DALTON; geometry optimizer, symmetry detection)
  Radovan Bast,             UiT The Arctic U. of Norway,  Norway      (DALTON installation and execution frameworks)
  Pablo Baudin,             University of Valencia,       Spain       (Cholesky excitation energies)
  Linus Boman,              NTNU,                         Norway      (Cholesky decomposition and subsystems)
  Ove Christiansen,         Aarhus University,            Denmark     (CC module)
  Renzo Cimiraglia,         University of Ferrara,        Italy       (NEVPT2)
  Sonia Coriani,            University of Trieste,        Italy       (CC module, MCD in RESPONS)
  Janusz Cukras,            University of Trieste,        Italy       (MChD in RESPONS)
  Paal Dahle,               University of Oslo,           Norway      (Parallelization)
  Erik K. Dalskov,          UNI-C,                        Denmark     (SOPPA)
  Thomas Enevoldsen,        Univ. of Southern Denmark,    Denmark     (SOPPA)
  Janus J. Eriksen,         Aarhus University,            Denmark     (Polarizable embedding model, TDA)
  Rasmus Faber,             University of Copenhagen,     Denmark     (Vib.avg. NMR with SOPPA, parallel AO-SOPPA)
  Berta Fernandez,          U. of Santiago de Compostela, Spain       (doublet spin, ESR in RESPONS)
  Lara Ferrighi,            Aarhus University,            Denmark     (PCM Cubic response)
  Heike Fliegl,             University of Oslo,           Norway      (CCSD(R12))
  Luca Frediani,            UiT The Arctic U. of Norway,  Norway      (PCM)
  Bin Gao,                  UiT The Arctic U. of Norway,  Norway      (Gen1Int library)
  Christof Haettig,         Ruhr-University Bochum,       Germany     (CC module)
  Kasper Hald,              Aarhus University,            Denmark     (CC module)
  Asger Halkier,            Aarhus University,            Denmark     (CC module)
  Frederik Beyer Hansen,    University of Copenhagen,     Denmark     (Parallel AO-SOPPA)
  Erik D. Hedegaard,        Univ. of Southern Denmark,    Denmark     (Polarizable embedding model, QM/MM)
  Hanne Heiberg,            University of Oslo,           Norway      (geometry analysis, selected one-electron integrals)
  Trygve Helgaker,          University of Oslo,           Norway      (DALTON; ABACUS, ERI, DFT modules, London, and much more)
  Alf Christian Hennum,     University of Oslo,           Norway      (Parity violation)
  Hinne Hettema,            University of Auckland,       New Zealand (quadratic response in RESPONS; SIRIUS supersymmetry)
  Eirik Hjertenaes,         NTNU,                         Norway      (Cholesky decomposition)
  Pi A. B. Haase,           University of Copenhagen,     Denmark     (Triplet AO-SOPPA)
  Maria Francesca Iozzi,    University of Oslo,           Norway      (RPA)
  Brano Jansik              Technical Univ. of Ostrava    Czech Rep.  (DFT cubic response)
  Hans Joergen Aa. Jensen,  Univ. of Southern Denmark,    Denmark     (DALTON; SIRIUS, RESPONS, ABACUS modules, London, and much more)
  Dan Jonsson,              UiT The Arctic U. of Norway,  Norway      (cubic response in RESPONS module)
  Poul Joergensen,          Aarhus University,            Denmark     (RESPONS, ABACUS, and CC modules)
  Maciej Kaminski,          University of Warsaw,         Poland      (CPPh in RESPONS)
  Joanna Kauczor,           Linkoeping University,        Sweden      (Complex polarization propagator (CPP) module)
  Sheela Kirpekar,          Univ. of Southern Denmark,    Denmark     (Mass-velocity & Darwin integrals)
  Wim Klopper,              KIT Karlsruhe,                Germany     (R12 code in CC, SIRIUS, and ABACUS modules)
  Stefan Knecht,            ETH Zurich,                   Switzerland (Parallel CI and MCSCF)
  Rika Kobayashi,           Australian National Univ.,    Australia   (DIIS in CC, London in MCSCF)
  Henrik Koch,              NTNU,                         Norway      (CC module, Cholesky decomposition)
  Jacob Kongsted,           Univ. of Southern Denmark,    Denmark     (Polarizable embedding model, QM/MM)
  Andrea Ligabue,           University of Modena,         Italy       (CTOCD, AOSOPPA)
  Nanna H. List             Univ. of Southern Denmark,    Denmark     (Polarizable embedding model)
  Ola B. Lutnaes,           University of Oslo,           Norway      (DFT Hessian)
  Juan I. Melo,             University of Buenos Aires,   Argentina   (LRESC, Relativistic Effects on NMR Shieldings)
  Kurt V. Mikkelsen,        University of Copenhagen,     Denmark     (MC-SCRF and QM/MM)
  Rolf H. Myhre,            NTNU,                         Norway      (Cholesky, subsystems and ECC2)
  Christian Neiss,          Univ. Erlangen-Nuernberg,     Germany     (CCSD(R12))
  Christian B. Nielsen,     University of Copenhagen,     Denmark     (QM/MM)
  Patrick Norman,           Linkoeping University,        Sweden      (Cubic response and complex frequency response in RESPONS)
  Jeppe Olsen,              Aarhus University,            Denmark     (SIRIUS CI/density modules)
  Jogvan Magnus H. Olsen,   Univ. of Southern Denmark,    Denmark     (Polarizable embedding model, QM/MM)
  Anders Osted,             Copenhagen University,        Denmark     (QM/MM)
  Martin J. Packer,         University of Sheffield,      UK          (SOPPA)
  Filip Pawlowski,          Kazimierz Wielki University,  Poland      (CC3)
  Morten N. Pedersen,       Univ. of Southern Denmark,    Denmark     (Polarizable embedding model)
  Thomas B. Pedersen,       University of Oslo,           Norway      (Cholesky decomposition)
  Patricio F. Provasi,      University of Northeastern,   Argentina   (Analysis of coupling constants in localized orbitals)
  Zilvinas Rinkevicius,     KTH Stockholm,                Sweden      (open-shell DFT, ESR)
  Elias Rudberg,            KTH Stockholm,                Sweden      (DFT grid and basis info)
  Torgeir A. Ruden,         University of Oslo,           Norway      (Numerical derivatives in ABACUS)
  Kenneth Ruud,             UiT The Arctic U. of Norway,  Norway      (DALTON; ABACUS magnetic properties and much more)
  Pawel Salek,              KTH Stockholm,                Sweden      (DALTON; DFT code)
  Claire C. M. Samson       University of Karlsruhe       Germany     (Boys localization, r12 integrals in ERI)
  Alfredo Sanchez de Meras, University of Valencia,       Spain       (CC module, Cholesky decomposition)
  Trond Saue,               Paul Sabatier University,     France      (direct Fock matrix construction)
  Stephan P. A. Sauer,      University of Copenhagen,     Denmark     (SOPPA(CCSD), SOPPA prop., AOSOPPA, vibrational g-factors)
  Bernd Schimmelpfennig,    Forschungszentrum Karlsruhe,  Germany     (AMFI module)
  Kristian Sneskov,         Aarhus University,            Denmark     (Polarizable embedding model, QM/MM)
  Arnfinn H. Steindal,      UiT The Arctic U. of Norway,  Norway      (parallel QM/MM, Polarizable embedding model)
  Casper Steinmann,         Univ. of Southern Denmark,    Denmark     (QFIT, Polarizable embedding model)
  K. O. Sylvester-Hvid,     University of Copenhagen,     Denmark     (MC-SCRF)
  Peter R. Taylor,          VLSCI/Univ. of Melbourne,     Australia   (Symmetry handling ABACUS, integral transformation)
  Andrew M. Teale,          University of Nottingham,     England     (DFT-AC, DFT-D)
  David P. Tew,             University of Bristol,        England     (CCSD(R12))
  Olav Vahtras,             KTH Stockholm,                Sweden      (triplet response, spin-orbit, ESR, TDDFT, open-shell DFT)
  David J. Wilson,          La Trobe University,          Australia   (DFT Hessian and DFT magnetizabilities)
  Hans Agren,               KTH Stockholm,                Sweden      (SIRIUS module, RESPONS, MC-SCRF solvation model)
 --------------------------------------------------------------------------------

     Date and time (Linux)  : Tue Dec  4 09:18:18 2018
     Host name              : n-62-29-6                               

 * Work memory size             :  1280000000 =  9.537 gigabytes.

 * Directories for basis set searches:
   1) /zhome/d7/7/119775/My_Codes/dalton-private/build2016/basis/diffs
   2) /zhome/37/3/129401/NH3NH4/CCSD/AIMD_SAMPLING/nh3_4h2o_nd
   3) /zhome/9a/4/124800/source/dalton/build-mlcc/basis


Compilation information
-----------------------

 Who compiled             | rfaber
 Host                     | hpclogin1
 System                   | Linux-2.6.32-696.1.1.el6.x86_64
 CMake generator          | Unix Makefiles
 Processor                | x86_64
 64-bit integers          | ON
 MPI                      | OFF
 Fortran compiler         | /opt/intel/2016update2/compilers_and_libraries_201
                          | 6.2.181/linux/bin/intel64/ifort
 Fortran compiler version | ifort (IFORT) 16.0.2 20160204
 C compiler               | /opt/intel/2016update2/compilers_and_libraries_201
                          | 6.2.181/linux/bin/intel64/icc
 C compiler version       | icc (ICC) 16.0.2 20160204
 C++ compiler             | /opt/intel/2016update2/compilers_and_libraries_201
                          | 6.2.181/linux/bin/intel64/icpc
 C++ compiler version     | icpc (ICC) 16.0.2 20160204
 Static linking           | OFF
 Last Git revision        | bb4d1599ca5680a9f3980451fc8bbefdba436d59
 Git branch               | mlcc
 Configuration time       | 2017-06-13 16:11:03.928841


   Content of the .dal input file
 ----------------------------------

**DALTON
.RUN WAVE FUNCTIONS
*QMMM
.QMMM
**INTEGRALS
.DIPLEN
**WAVE FUNCTIONS
.CC
*PRINT
!To check the origin of excit
.PRINTL
   0 11
*SCF INP
.THRESH
1.0D-7
*CC INP
.CCSD
.THRLEQ
 1.0D-9
.THRENR
 1.0D-10
.FROIMP
4
0
.PRINT
 1
.MAX IT
 1200
.MAXRED
 1200
.MXLRV
1199
*CCSLV
.CCMM
.MXSLIT
200
.MXINIT
4 5
*CCEXCI
.NCCEXC
 1
.IONISATION
1
1
.CVSEPARA
1
1
*CCLRSD
.DIPOLE
**END OF DALTON INPUT


   Content of the .mol file
 ----------------------------

ATOMBASIS


Atomtypes=5 Charge=0 Nosymm Angstrom
   7.00000    1    Basis=6-311G**
N          0.000000        0.000000        0.000000
   1.00000    3    Basis=6-311G**
H          0.729366       -0.645726       -0.248502
H          0.449431        0.757136        0.539746
H         -0.703467       -0.401621        0.613932
   8.00000    4    Basis=6-311G**
O         -2.751492       -2.345679       -0.007521
O          0.823954       -3.384645       -0.667260
O          1.077733        1.483869        2.532455
O         -0.527825        1.631211       -2.227104
   1.00000    8    Basis=6-311G**
H         -3.352352       -1.534768        0.266823
H         -2.716728       -2.323536       -0.992591
H          1.632558       -4.050672       -0.728583
H          0.059065       -3.985445       -0.717967
H          1.051619        2.217313        3.211819
H          2.062006        1.339133        2.458048
H          0.336776        1.768811       -2.551967
H         -0.468219        0.996551       -1.409609
   0.00000    1    Basis=diffs
X          0.000000        0.000000        0.000000


       *******************************************************************
       *********** Output from DALTON general input processing ***********
       *******************************************************************

 --------------------------------------------------------------------------------
   Overall default print level:    0
   Print level for DALTON.STAT:    1

    HERMIT 1- and 2-electron integral sections will be executed
    "Old" integral transformation used (limited to max 255 basis functions)
    Wave function sections will be executed (SIRIUS module)
 --------------------------------------------------------------------------------


 Changes of defaults for *QMMM  :
 --------------------------------

 +------------------+
 |  WORD: | CHANGE: |
 +------------------+
 |   QMMM |       T |
 +------------------+
 


   ****************************************************************************
   *************** Output of molecule and basis set information ***************
   ****************************************************************************


    The two title cards from your ".mol" input:
    ------------------------------------------------------------------------
 1:                                                                         
 2:                                                                         
    ------------------------------------------------------------------------

  Coordinates are entered in Angstrom and converted to atomic units.
          - Conversion factor : 1 bohr = 0.52917721 A

  Atomic type no.    1
  --------------------
  Nuclear charge:   7.00000
  Number of symmetry independent centers:    1
  Number of basis sets to read;    2
  The basis set is "6-311G**" from the basis set library.
  Basis set file used for this atomic type with Z =   7 :
     "/zhome/9a/4/124800/source/dalton/build-mlcc/basis/6-311G**"

  Info about the basis set file: your basis has no documentation.
  Basis set: 6-311G**                                                                        

  Atomic type no.    2
  --------------------
  Nuclear charge:   1.00000
  Number of symmetry independent centers:    3
  Number of basis sets to read;    2
  The basis set is "6-311G**" from the basis set library.
  Basis set file used for this atomic type with Z =   1 :
     "/zhome/9a/4/124800/source/dalton/build-mlcc/basis/6-311G**"

  Info about the basis set file: your basis has no documentation.
  Basis set: 6-311G**                                                                        

  Atomic type no.    3
  --------------------
  Nuclear charge:   8.00000
  Number of symmetry independent centers:    4
  Number of basis sets to read;    2
  The basis set is "6-311G**" from the basis set library.
  Basis set file used for this atomic type with Z =   8 :
     "/zhome/9a/4/124800/source/dalton/build-mlcc/basis/6-311G**"

  Info about the basis set file: your basis has no documentation.
  Basis set: 6-311G**                                                                        

  Atomic type no.    4
  --------------------
  Nuclear charge:   1.00000
  Number of symmetry independent centers:    8
  Number of basis sets to read;    2
  The basis set is "6-311G**" from the basis set library.
  Basis set file used for this atomic type with Z =   1 :
     "/zhome/9a/4/124800/source/dalton/build-mlcc/basis/6-311G**"

  Info about the basis set file: your basis has no documentation.
  Basis set: 6-311G**                                                                        

  Atomic type no.    5
  --------------------
  Nuclear charge:   0.00000
  Number of symmetry independent centers:    1
  Number of basis sets to read;    2
  The basis set is "diffs" from the basis set library.
  Basis set file used for this atomic type with Z =   0 :
     "/zhome/9a/4/124800/source/dalton/build-mlcc/basis/diffs"

  Info about the basis set file: your basis has no documentation.
  Basis set: diffs                                                                           


                         SYMGRP: Point group information
                         -------------------------------

@    Point group: C1 


                                 Isotopic Masses
                                 ---------------

                           N          14.003074
                           H           1.007825
                           H           1.007825
                           H           1.007825
                           O          15.994915
                           O          15.994915
                           O          15.994915
                           O          15.994915
                           H           1.007825
                           H           1.007825
                           H           1.007825
                           H           1.007825
                           H           1.007825
                           H           1.007825
                           H           1.007825
                           H           1.007825

                       Total mass:    89.068809 amu
                       Natural abundance:  98.514 %

 Center-of-mass coordinates (a.u.):   -0.487177   -1.012860   -0.115935


  Atoms and basis sets
  --------------------

  Number of atom types :    5
  Total number of atoms:   17

  label    atoms   charge   prim   cont     basis
  ----------------------------------------------------------------------
  N           1    7.0000    31    18      [11s5p1d|4s3p1d]                                   
  H           3    1.0000     8     6      [5s1p|3s1p]                                        
  O           4    8.0000    31    18      [11s5p1d|4s3p1d]                                   
  H           8    1.0000     8     6      [5s1p|3s1p]                                        
  X           1    0.0000     1     1      [1s|1s]                                            
  ----------------------------------------------------------------------
  total:     17   50.0000   244   157
  ----------------------------------------------------------------------
  Spherical harmonic basis used.

  Threshold for neglecting AO integrals:  1.00D-12


  Cartesian Coordinates (a.u.)
  ----------------------------

  Total number of coordinates:   51
  N       :     1  x   0.0000000000    2  y   0.0000000000    3  z   0.0000000000
  H       :     4  x   1.3783019849    5  y  -1.2202452918    6  z  -0.4696007215
  H       :     7  x   0.8493015021    8  y   1.4307796794    9  z   1.0199721171
  H       :    10  x  -1.3293599680   11  y  -0.7589536960   12  z   1.1601633394
  O       :    13  x  -5.1995663151   14  y  -4.4326908871   15  z  -0.0142126302
  O       :    16  x   1.5570473996   17  y  -6.3960520803   18  z  -1.2609386542
  O       :    19  x   2.0366202059   20  y   2.8041060154   21  z   4.7856463739
  O       :    22  x  -0.9974446919   23  y   3.0825420421   24  z  -4.2086166119
  H       :    25  x  -6.3350271546   26  y  -2.9002911854   27  z   0.5042223938
  H       :    28  x  -5.1338718761   29  y  -4.3908466816   30  z  -1.8757251441
  H       :    31  x   3.0850875032   32  y  -7.6546607022   33  z  -1.3768223293
  H       :    34  x   0.1116166736   35  y  -7.5313995362   36  z  -1.3567609968
  H       :    37  x   1.9872718978   38  y   4.1901143034   39  z   6.0694582731
  H       :    40  x   3.8966266081   41  y   2.5305946149   42  z   4.6450375221
  H       :    43  x   0.6364144055   44  y   3.3425683569   45  z  -4.8225187100
  H       :    46  x  -0.8848056765   47  y   1.8832084596   48  z  -2.6637749533
  X       :    49  x   0.0000000000   50  y   0.0000000000   51  z   0.0000000000

  Max    interatomic separation is    7.4264 Angstrom (   14.0339 Bohr)
  between atoms   13 and   11, "H     " and "H     ".

  Min HX interatomic separation is    0.9338 Angstrom (    1.7646 Bohr)

  Min YX interatomic separation is    2.8106 Angstrom (    5.3113 Bohr)


  Bond distances (Angstrom):
  --------------------------

                  atom 1     atom 2       distance
                  ------     ------       --------
  bond distance:  H          N            1.005331
  bond distance:  H          N            1.032748
  bond distance:  H          N            1.016404
  bond distance:  H          O            1.045884
  bond distance:  H          O            0.985932
  bond distance:  H          O            1.049377
  bond distance:  H          O            0.973954
  bond distance:  H          O            1.000079
  bond distance:  H          O            0.997636
  bond distance:  H          O            0.933812
  bond distance:  H          O            1.036651


  Bond angles (degrees):
  ----------------------

                  atom 1     atom 2     atom 3         angle
                  ------     ------     ------         -----
  bond angle:     H          N          H            106.520
  bond angle:     H          N          H            113.430
  bond angle:     H          N          H            105.974
  bond angle:     H          O          H            105.362
  bond angle:     H          O          H            102.157
  bond angle:     H          O          H            100.534
  bond angle:     H          O          H            108.139




 Principal moments of inertia (u*A**2) and principal axes
 --------------------------------------------------------

   IA     351.790722          0.331577    0.890033    0.312886
   IB     547.497022          0.419830   -0.436203    0.795909
   IC     640.658378          0.844867   -0.132546   -0.518297


 Rotational constants
 --------------------

               A                   B                   C

           1436.5899            923.0717            788.8432 MHz
            0.047919            0.030790            0.026313 cm-1


@  Nuclear repulsion energy :  173.641199076492 Hartree

  Number of floating/multiple basis set orbitals :    1


                     .---------------------------------------.
                     | Starting in Integral Section (HERMIT) |
                     `---------------------------------------'



 ***************************************************************************************
 ****************** Output from **INTEGRALS input processing (HERMIT) ******************
 ***************************************************************************************



    *************************************************************************
    ****************** Output from HERMIT input processing ******************
    *************************************************************************


 Default print level:        1

 * Nuclear model: Point charge

 Calculation of one- and two-electron Hamiltonian integrals.

 The following one-electron property integrals are calculated as requested:
          - overlap integrals
          - dipole length integrals

 Center of mass  (bohr):     -0.487177322076     -1.012859775551     -0.115935313584
 Operator center (bohr):      0.000000000000      0.000000000000      0.000000000000
 Gauge origin    (bohr):      0.000000000000      0.000000000000      0.000000000000
 Dipole origin   (bohr):      0.000000000000      0.000000000000      0.000000000000
 
  *********************************** 
  QMMM electrostatic potential: 
  Multipole order                                    0
  Isotropic polarization  
  *********************************** 
 
  ---------------- 
  QMMM information 
  ---------------- 
 
  MM coordinates in au 
  -------------------- 
     1      8.559341      4.301185     10.463036
     2     10.221357      4.773051      9.951937
     3      7.521244      5.844052     10.915149
     4    -11.365603     -9.761565      3.566903
     5    -10.126525    -11.137194      3.931398
     6    -11.009527     -8.412035      4.695983
     7     -4.796284     -1.275393      6.689421
     8     -3.023794     -1.754879      6.716809
     9     -5.578061     -2.303735      5.334623
    10    -10.316986      5.202781      9.005150
    11     -9.817945      6.706787      9.947099
    12     -8.723072      4.451095      8.550053
    13      3.298789     -3.185337     -6.229813
    14      2.049797     -2.882520     -7.543482
    15      2.559916     -4.099765     -4.794056
    16    -10.517834      2.877529     -8.372732
    17    -12.052023      3.979935     -8.552163
    18     -9.926297      3.045851    -10.171833
    19      1.837020     -8.154694     11.402445
    20     -0.011612     -7.776316     11.220491
    21      2.205592     -8.854508      9.738067
    22      4.145545     -3.409389     10.163068
    23      5.130053     -2.329231     11.380923
    24      3.283938     -4.854310     10.988769
    25     -9.275004     -0.593227     -4.787493
    26     -9.896078      0.816993     -5.831228
    27     -9.580532     -2.074205     -5.796168
    28     -6.445550     -5.060605     -8.333590
    29     -5.171060     -5.304000     -6.947359
    30     -7.570959     -6.453638     -7.991242
    31     -5.465787      4.464128    -10.941932
    32     -4.126682      5.725827    -10.636032
    33     -5.034905      2.961900     -9.980978
    34      9.394297     -0.828197     -1.672149
    35     10.990914     -0.471591     -2.460907
    36      9.904404     -0.416745      0.199022
    37     11.592738      6.948580     -3.495791
    38     11.174827      8.697028     -2.673044
    39     13.313179      7.218827     -4.101817
    40     -9.984755      7.303002      3.196120
    41     -8.413129      7.973875      2.443896
    42     -9.797835      7.653032      5.012081
    43     -0.863792     -2.255575     -9.519446
    44     -0.911356     -2.889690    -11.240219
    45     -2.489436     -1.383024     -9.201745
    46     -6.019855     -9.812034      9.026738
    47     -6.151491    -11.007946      7.515509
    48     -6.914636    -10.625904     10.357768
    49     11.342008      3.032224      1.022718
    50     11.183065      4.373645     -0.213951
    51     11.964799      4.139024      2.374157
    52     -8.737595     -5.938062      6.542818
    53     -9.921822     -5.183989      7.817799
    54     -7.899027     -7.243144      7.438525
    55      2.870277     -9.850392      6.728302
    56      2.479684    -11.393299      5.900379
    57      1.999687     -8.537565      5.709055
    58      8.259993     11.170562      7.728976
    59      6.970614     12.281697      7.043414
    60      9.599145     12.198005      8.588790
    61     -1.111902      8.405398    -10.468646
    62     -2.223319      9.792880     -9.971310
    63     -0.155780      7.846033     -9.060307
    64     10.024572     -9.778590     -9.997524
    65      9.788354     -7.903009     -9.934492
    66      8.469724    -10.370059     -9.235137
    67      6.677761      6.766571      2.723931
    68      7.996935      7.933994      1.958121
    69      7.470785      5.406077      3.717048
    70      0.350973     -1.434521      6.907130
    71      1.580223     -1.884726      8.287740
    72      0.604223      0.256702      6.094433
    73     -4.304613    -11.495425     -7.217847
    74     -6.126622    -11.308824     -7.164392
    75     -4.097924    -13.194075     -6.291531
    76     -4.480427      0.939568     -7.518359
    77     -5.717389      0.394255     -6.329961
    78     -3.106931      1.732406     -6.471505
    79      9.180378     -6.238016     -3.903318
    80     10.855600     -6.665557     -3.054463
    81      9.026165     -4.644945     -3.289703
    82      5.151369      8.824543     10.844615
    83      4.832697     10.147393     12.046505
    84      6.486058      9.512182      9.708799
    85      2.794608      6.083059     -8.211134
    86      3.157863      5.330320     -9.867798
    87      4.505247      6.276087     -7.568431
    88     -3.050746     -6.711315     -4.710428
    89     -1.403501     -6.241525     -5.398481
    90     -3.420905     -8.477897     -5.348824
    91      8.411657      5.465918     -7.353813
    92      7.747046      3.993845     -6.512472
    93      9.403665      6.295940     -5.986027
    94      6.268968      0.999741     -4.680033
    95      5.096495     -0.418763     -4.755696
    96      7.591090      0.437339     -3.406150
    97      5.020107    -10.928418     -8.677607
    98      3.846443     -9.581860     -9.439993
    99      4.137748    -11.766361     -7.340093
   100     -3.682600     -8.818893      2.836078
   101     -2.204167     -8.088275      3.676627
   102     -4.396045     -7.259717      1.916101
   103     -7.001843     -0.812546     11.713350
   104     -6.197935     -1.505838     10.193806
   105     -7.308658     -2.258886     12.753750
   106      5.739013     -9.663330     -1.748900
   107      6.350963     -8.757458     -3.276434
   108      4.711873    -11.108693     -2.357309
   109     -2.647635      7.189790      4.915510
   110     -3.296170      5.677607      5.854128
   111     -1.427212      7.693740      6.291989
   112     -3.475607     -6.066525     10.887098
   113     -4.510508     -5.845692     12.514382
   114     -4.473220     -7.394251     10.037314
   115     -2.783559      8.206986     -4.243826
   116     -2.268078      6.434242     -4.242116
   117     -2.701097      9.025154     -2.571904
   118     -9.252441     -9.365373     -6.697836
   119    -10.962543     -9.413058     -7.603661
   120     -9.570796     -8.952698     -4.870801
   121      3.059610     10.234343     -4.007950
   122      3.468536      8.458395     -3.507931
   123      1.356430     10.605838     -3.381499
   124     -7.422238      7.419150     -6.763511
   125     -5.811666      7.597566     -5.804808
   126     -7.678037      5.808529     -7.692682
   127     -1.101563    -11.604833     -0.625155
   128     -2.256023    -10.465579      0.377798
   129      0.145679    -11.898126      0.744858
   130      1.054263      7.234302      8.550858
   131     -0.245857      7.223476      9.965155
   132      2.632765      8.020595      9.395439
   133      9.834363     10.560691     -0.663215
   134     10.334464     11.563975      0.880947
   135      8.393708     11.551820     -1.261262
   136      1.652125      9.347848      3.247651
   137      3.200850      8.475990      2.930189
   138      0.353447      8.074214      3.406112
   139      7.217055     -0.107737    -10.583761
   140      6.563501      0.582557     -8.982893
   141      7.816376      1.331858    -11.582394
   142     -8.531722     -1.064080      1.591183
   143     -9.412408      0.492451      1.096910
   144     -9.678733     -2.089415      2.730705
   145      5.457108      5.780920     -2.540399
   146      5.852550      5.480153     -0.724228
   147      5.611328      4.136405     -3.504951
   148     -8.918891      9.945062    -11.616608
   149     -8.060434      9.276679     -9.994200
   150    -10.331599     10.846229    -10.756204
   151     -9.720581     -7.780407     -1.378353
   152     -8.335085     -6.627619     -0.635555
   153    -10.512554     -8.537730      0.049210
   154    -11.531243     -2.330769     10.122033
   155    -10.214744     -1.309550     10.952057
   156    -13.015247     -2.055107     11.279594
   157      7.099671      2.362840      5.434828
   158      8.386434      0.882670      5.061289
   159      7.581895      2.917609      7.113984
   160      0.627922     -5.798373      4.093032
   161      0.625908     -4.142629      5.171213
   162      0.669589     -5.473395      2.212977
   163     -6.406708     10.661349      4.873143
   164     -5.097742      9.272508      5.013168
   165     -5.568775     12.023494      3.793104
   166     -5.032770      3.604747      7.504356
   167     -4.980394      1.838760      6.947476
   168     -5.139176      3.843962      9.315571
   169      7.600123     -5.875504      5.588207
   170      6.701729     -5.443254      7.089693
   171      6.522503     -7.129663      4.646273
   172     10.700336     -1.689780      4.636305
   173     11.487868     -1.862556      6.368056
   174      9.590218     -3.130961      4.645519
   175      9.424285     -4.645361     -8.685646
   176      8.888571     -4.824102     -6.854959
   177      8.857005     -2.951609     -9.245349
 
  MM charges 
  ---------- 
     1     -0.674440
     2      0.337220
     3      0.337220
     4     -0.674440
     5      0.337220
     6      0.337220
     7     -0.674440
     8      0.337220
     9      0.337220
    10     -0.674440
    11      0.337220
    12      0.337220
    13     -0.674440
    14      0.337220
    15      0.337220
    16     -0.674440
    17      0.337220
    18      0.337220
    19     -0.674440
    20      0.337220
    21      0.337220
    22     -0.674440
    23      0.337220
    24      0.337220
    25     -0.674440
    26      0.337220
    27      0.337220
    28     -0.674440
    29      0.337220
    30      0.337220
    31     -0.674440
    32      0.337220
    33      0.337220
    34     -0.674440
    35      0.337220
    36      0.337220
    37     -0.674440
    38      0.337220
    39      0.337220
    40     -0.674440
    41      0.337220
    42      0.337220
    43     -0.674440
    44      0.337220
    45      0.337220
    46     -0.674440
    47      0.337220
    48      0.337220
    49     -0.674440
    50      0.337220
    51      0.337220
    52     -0.674440
    53      0.337220
    54      0.337220
    55     -0.674440
    56      0.337220
    57      0.337220
    58     -0.674440
    59      0.337220
    60      0.337220
    61     -0.674440
    62      0.337220
    63      0.337220
    64     -0.674440
    65      0.337220
    66      0.337220
    67     -0.674440
    68      0.337220
    69      0.337220
    70     -0.674440
    71      0.337220
    72      0.337220
    73     -0.674440
    74      0.337220
    75      0.337220
    76     -0.674440
    77      0.337220
    78      0.337220
    79     -0.674440
    80      0.337220
    81      0.337220
    82     -0.674440
    83      0.337220
    84      0.337220
    85     -0.674440
    86      0.337220
    87      0.337220
    88     -0.674440
    89      0.337220
    90      0.337220
    91     -0.674440
    92      0.337220
    93      0.337220
    94     -0.674440
    95      0.337220
    96      0.337220
    97     -0.674440
    98      0.337220
    99      0.337220
   100     -0.674440
   101      0.337220
   102      0.337220
   103     -0.674440
   104      0.337220
   105      0.337220
   106     -0.674440
   107      0.337220
   108      0.337220
   109     -0.674440
   110      0.337220
   111      0.337220
   112     -0.674440
   113      0.337220
   114      0.337220
   115     -0.674440
   116      0.337220
   117      0.337220
   118     -0.674440
   119      0.337220
   120      0.337220
   121     -0.674440
   122      0.337220
   123      0.337220
   124     -0.674440
   125      0.337220
   126      0.337220
   127     -0.674440
   128      0.337220
   129      0.337220
   130     -0.674440
   131      0.337220
   132      0.337220
   133     -0.674440
   134      0.337220
   135      0.337220
   136     -0.674440
   137      0.337220
   138      0.337220
   139     -0.674440
   140      0.337220
   141      0.337220
   142     -0.674440
   143      0.337220
   144      0.337220
   145     -0.674440
   146      0.337220
   147      0.337220
   148     -0.674440
   149      0.337220
   150      0.337220
   151     -0.674440
   152      0.337220
   153      0.337220
   154     -0.674440
   155      0.337220
   156      0.337220
   157     -0.674440
   158      0.337220
   159      0.337220
   160     -0.674440
   161      0.337220
   162      0.337220
   163     -0.674440
   164      0.337220
   165      0.337220
   166     -0.674440
   167      0.337220
   168      0.337220
   169     -0.674440
   170      0.337220
   171      0.337220
   172     -0.674440
   173      0.337220
   174      0.337220
   175     -0.674440
   176      0.337220
   177      0.337220
 
  MM isotropic polarizabilities in au 
  ----------------------------------- 
     1      5.739350
     2      2.308390
     3      2.308390
     4      5.739350
     5      2.308390
     6      2.308390
     7      5.739350
     8      2.308390
     9      2.308390
    10      5.739350
    11      2.308390
    12      2.308390
    13      5.739350
    14      2.308390
    15      2.308390
    16      5.739350
    17      2.308390
    18      2.308390
    19      5.739350
    20      2.308390
    21      2.308390
    22      5.739350
    23      2.308390
    24      2.308390
    25      5.739350
    26      2.308390
    27      2.308390
    28      5.739350
    29      2.308390
    30      2.308390
    31      5.739350
    32      2.308390
    33      2.308390
    34      5.739350
    35      2.308390
    36      2.308390
    37      5.739350
    38      2.308390
    39      2.308390
    40      5.739350
    41      2.308390
    42      2.308390
    43      5.739350
    44      2.308390
    45      2.308390
    46      5.739350
    47      2.308390
    48      2.308390
    49      5.739350
    50      2.308390
    51      2.308390
    52      5.739350
    53      2.308390
    54      2.308390
    55      5.739350
    56      2.308390
    57      2.308390
    58      5.739350
    59      2.308390
    60      2.308390
    61      5.739350
    62      2.308390
    63      2.308390
    64      5.739350
    65      2.308390
    66      2.308390
    67      5.739350
    68      2.308390
    69      2.308390
    70      5.739350
    71      2.308390
    72      2.308390
    73      5.739350
    74      2.308390
    75      2.308390
    76      5.739350
    77      2.308390
    78      2.308390
    79      5.739350
    80      2.308390
    81      2.308390
    82      5.739350
    83      2.308390
    84      2.308390
    85      5.739350
    86      2.308390
    87      2.308390
    88      5.739350
    89      2.308390
    90      2.308390
    91      5.739350
    92      2.308390
    93      2.308390
    94      5.739350
    95      2.308390
    96      2.308390
    97      5.739350
    98      2.308390
    99      2.308390
   100      5.739350
   101      2.308390
   102      2.308390
   103      5.739350
   104      2.308390
   105      2.308390
   106      5.739350
   107      2.308390
   108      2.308390
   109      5.739350
   110      2.308390
   111      2.308390
   112      5.739350
   113      2.308390
   114      2.308390
   115      5.739350
   116      2.308390
   117      2.308390
   118      5.739350
   119      2.308390
   120      2.308390
   121      5.739350
   122      2.308390
   123      2.308390
   124      5.739350
   125      2.308390
   126      2.308390
   127      5.739350
   128      2.308390
   129      2.308390
   130      5.739350
   131      2.308390
   132      2.308390
   133      5.739350
   134      2.308390
   135      2.308390
   136      5.739350
   137      2.308390
   138      2.308390
   139      5.739350
   140      2.308390
   141      2.308390
   142      5.739350
   143      2.308390
   144      2.308390
   145      5.739350
   146      2.308390
   147      2.308390
   148      5.739350
   149      2.308390
   150      2.308390
   151      5.739350
   152      2.308390
   153      2.308390
   154      5.739350
   155      2.308390
   156      2.308390
   157      5.739350
   158      2.308390
   159      2.308390
   160      5.739350
   161      2.308390
   162      2.308390
   163      5.739350
   164      2.308390
   165      2.308390
   166      5.739350
   167      2.308390
   168      2.308390
   169      5.739350
   170      2.308390
   171      2.308390
   172      5.739350
   173      2.308390
   174      2.308390
   175      5.739350
   176      2.308390
   177      2.308390


     ************************************************************************
     ************************** Output from HERINT **************************
     ************************************************************************



                      Nuclear contribution to dipole moments
                      --------------------------------------

                 au               Debye          C m (/(10**-30)

      x    -22.56519131       -57.35499170      -191.31565912
      y    -50.61589096      -128.65275396      -429.13939469
      z     -4.75132139       -12.07665360       -40.28338030



 Threshold for neglecting two-electron integrals:  1.00D-12
 HERMIT - Number of two-electron integrals written:    24821101 ( 32.3% )
 HERMIT - Megabytes written:                            284.216

  Time used in TWOINT     is       5.02 seconds
  Total CPU  time used in HERMIT:   5.20 seconds
  Total wall time used in HERMIT:   6.03 seconds


                        .----------------------------------.
                        | End of Integral Section (HERMIT) |
                        `----------------------------------'



                   .--------------------------------------------.
                   | Starting in Wave Function Section (SIRIUS) |
                   `--------------------------------------------'

NCCEXCI for singlet:    1
 CCSD_INPUT: core-val requested
 Requested number of virtual orbs per sym
                     1
 Indices of requested virtual orbs
                     1
 CCSD_INPUT: core-val requested
 Requested number of core orbs per sym
                     1
 Indices of requested core orbs
                     1

 *** Output from Huckel module :

     Using EWMO model:          T
     Using EHT  model:          F
     Number of Huckel orbitals each symmetry:   36

 EWMO - Energy Weighted Maximum Overlap - is a Huckel type method,
        which normally is better than Extended Huckel Theory.
 Reference: Linderberg and Ohrn, Propagators in Quantum Chemistry (Wiley, 1973)

 Huckel EWMO eigenvalues for symmetry :  1
          -20.684628     -20.684370     -20.684262     -20.684103     -15.673959
           -1.688556      -1.592988      -1.587107      -1.567296      -1.471292
           -0.801969      -0.790209      -0.780388      -0.763841      -0.748755
           -0.729819      -0.698587      -0.690201      -0.677111      -0.657680
           -0.616361      -0.615529      -0.612633      -0.600289      -0.512982
           -0.260905      -0.246224      -0.245740      -0.225799      -0.185627
           -0.183111      -0.182097      -0.178236      -0.159748      -0.150094
           -0.143305

 **********************************************************************
 *SIRIUS* a direct, restricted step, second order MCSCF program       *
 **********************************************************************

 
     Date and time (Linux)  : Tue Dec  4 09:18:25 2018
     Host name              : n-62-29-6                               

 Title lines from ".mol" input file:
                                                                             
                                                                             

 Print level on unit LUPRI =   2 is   0
 Print level on unit LUW4  =   2 is  11

@    (Integral direct) CC calculation.

@    This is a combination run starting with
@              a restricted, closed shell Hartree-Fock calculation


 Initial molecular orbitals are obtained according to
 ".MOSTART EWMO  " input option

@    QM part is embedded in an environment :

@         Model: QMMM

     Wave function specification
     ============================

     For the specification of the Coupled Cluster: see later.

@    Wave function type        --- CC ---
@    Number of closed shell electrons          50
@    Number of electrons in active shells       0
@    Total charge of the molecule               0

@    Spin multiplicity and 2 M_S                1         0
@    Total number of symmetries                 1 (point group: C1 )
@    Reference state symmetry                   1 (irrep name : A  )

     Orbital specifications
     ======================
@    Abelian symmetry species          All |    1
@                                          |  A  
                                       --- |  ---
@    Occupied SCF orbitals              25 |   25
@    Secondary orbitals                132 |  132
@    Total number of orbitals          157 |  157
@    Number of basis functions         157 |  157

     Optimization information
     ========================
@    Number of configurations                 1
@    Number of orbital rotations           3300
     ------------------------------------------
@    Total number of variables             3301

     Maximum number of Fock   iterations      0
     Maximum number of DIIS   iterations     60
     Maximum number of QC-SCF iterations     60
     Threshold for SCF convergence     1.00D-07


 Changes of defaults for CC:
 ---------------------------


 -Implicit frozen core calculation
 -Excitation energies calculated
 -One-photon absorption strengths will be calculated
 -Oscillator strengths calculated
  
* Read MO coefficients from SIRIUS.RST with label "NEWORB  " and header info:  4Dec18  REORTHO 


 ***********************************************
 ***** DIIS acceleration of SCF iterations *****
 ***********************************************

 C1-DIIS algorithm; max error vectors =    8
 -----------------------------------------------------------------------------

 *** DIIS iteration number    1
 RDSUPM called. NFMAT, ISYMDM(1:NFMAT)                     1
                     1

Calculating AOSUPINT
     (Precalculated two-electron integrals are transformed to P-supermatrix elements.
      Threshold for discarding integrals :  1.00D-12 )
  CPU  time used in FORMSUP    is   3.91 seconds
  WALL time used in FORMSUP    is  14.07 seconds

 ITDIIS, energy, error norm, change in energy, scr.thr., difden:
@ DIIS iter.   1    -359.907589602        3.77504D+00   -3.60D+02  -20    F

 (DIIS_RED) Control Parameters C2DIIS =         F NEVC =    1


 (DIIS_RED) B matrix:

               Column   1
       1      14.25092968
    ==== End of matrix output ====

 DIIS C vector; C2DIIS = F, LAMBDA = -1.43D+01
    1.000000
* Read MO coefficients from SIRIUS.RST with label "NEWORB  " and header info:  4Dec18  DIIS   1
      Virial theorem: -V/T =      1.998614
@      MULPOP N      -0.34; H       0.16; H       0.16; H       0.16; O      -0.64; O      -0.63; O      -0.61; O      -0.84; H       0.33; H       0.33; 
@             H       0.32; H       0.32; H       0.31; H       0.33; H       0.33; H       0.32; 
   1  Level shift: doubly occupied orbital energies shifted by -2.00D-01

 DIIS Fock eigenvalues in symmetry 1
      -20.74176      -20.72441      -20.71196      -20.54267      -16.01222
       -1.56363       -1.54769       -1.52409       -1.46923       -1.45338
       -0.97160       -0.95175       -0.92990       -0.92083       -0.90091
       -0.87914       -0.81826       -0.79769       -0.78741       -0.77434
       -0.76819       -0.75975       -0.74236       -0.69644       -0.66374
        0.00000        0.09333        0.12942        0.15626        0.17262
        0.20812        0.22614        0.24165        0.24858        0.27165
        0.28748        0.33636        0.41239        0.43799        0.48930
        0.49139        0.52580        0.54706        0.56037        0.56527
        0.59586        0.60694        0.63825        0.79394        0.84614
        0.86583        0.93057        0.94281        0.95712        0.99503
        1.00265        1.03858        1.04302        1.05687        1.07391
        1.07977        1.10382        1.17696        1.20519        1.23325
        1.25535        1.30962        1.33970        1.37743        1.40485
        1.43389        1.44462        1.44565        1.46333        1.47493
        1.50740        1.51763        1.61376        1.62737        1.66199
        1.68076        1.70370        1.71843        1.75179        1.80911
        1.83298        1.84444        1.84930        1.89332        1.94455
        2.09541        2.11241        2.12889        2.13120        2.16520
        2.27442        2.28788        2.29687        2.34155        2.38111
        2.47249        2.52469        2.52845        2.57311        2.61923
        2.63850        2.67143        2.74324        2.75067        2.78138
        2.78275        2.83140        2.85551        2.89666        3.06929
        3.27077        3.30892        3.38418        3.39511        3.41148
        3.43622        3.46176        3.47169        3.48725        3.59928
        3.60478        3.60997        3.61346        3.73237        3.91473
        3.91947        3.95350        4.04810        4.15864        4.17341
        4.19484        4.24152        4.41977        4.96471        5.06992
        5.28722        5.29954        5.34029        5.42891        5.66794
        5.70522        5.76649        5.80156        5.99384        5.99664
        6.01898        6.30856       36.76136       51.51579       51.52347
       51.53051       51.76847
 Time used in FCKEIG, thr_jaco:   4.30D-02  5.40D-02  1.64D-04
 CPU and wall times used in FCKEIG, THR_FCKEIG:   4.30D-02  5.40D-02  3.78D-02
 -----------------------------------------------------------------------------

 *** DIIS iteration number    2
 RDSUPM called. NFMAT, ISYMDM(1:NFMAT)                     1
                     1

 ITDIIS, energy, error norm, change in energy, scr.thr., difden:
@ DIIS iter.   2    -360.690744151        9.37454D-01   -7.83D-01  -20    F

 (DIIS_RED) Control Parameters C2DIIS =         F NEVC =    2


 (DIIS_RED) B matrix:

               Column   1     Column   2
       1      14.25092968
       2       0.84402705     0.87882081
    ==== End of matrix output ====

 DIIS C vector; C2DIIS = F, LAMBDA = -8.79D-01
    0.002588    0.997412
* Read MO coefficients from SIRIUS.RST with label "NEWORB  " and header info:  4Dec18  DIIS   2
      Virial theorem: -V/T =      2.004401
@      MULPOP N      -0.66; H       0.23; H       0.24; H       0.22; O      -0.64; O      -0.56; O      -0.58; O      -0.65; H       0.35; H       0.30; 
@             H       0.31; H       0.27; H       0.28; H       0.31; H       0.25; H       0.32; 
   2  Level shift: doubly occupied orbital energies shifted by -5.00D-02

 DIIS Fock eigenvalues in symmetry 1
      -20.65361      -20.65054      -20.64864      -20.62379      -15.48578
       -1.40365       -1.39441       -1.38053       -1.36954       -1.16568
       -0.75442       -0.74938       -0.74884       -0.72878       -0.68355
       -0.67492       -0.65409       -0.64313       -0.63451       -0.63303
       -0.59828       -0.59470       -0.57154       -0.56996       -0.46579
        0.00000        0.13349        0.16056        0.18637        0.20346
        0.23621        0.24890        0.25984        0.27492        0.30297
        0.32047        0.35503        0.47262        0.50233        0.52456
        0.53635        0.56761        0.57987        0.59546        0.60586
        0.63188        0.65544        0.67263        0.88209        0.92707
        0.94740        0.95234        0.96430        0.98444        1.00224
        1.00827        1.06071        1.07040        1.07225        1.08710
        1.11440        1.12042        1.14836        1.27186        1.31378
        1.33127        1.34857        1.35916        1.42597        1.43656
        1.46676        1.49067        1.50590        1.52252        1.52940
        1.54905        1.55844        1.65731        1.67964        1.70189
        1.72701        1.75369        1.78792        1.82871        1.88040
        1.89606        1.90672        1.92166        1.97224        2.00930
        2.15727        2.17556        2.20378        2.22765        2.23689
        2.33748        2.35161        2.35507        2.37968        2.48048
        2.53484        2.58897        2.59095        2.64057        2.66000
        2.70282        2.75436        2.80888        2.83769        2.84213
        2.84423        2.92134        3.01995        3.03794        3.21225
        3.39840        3.41390        3.41624        3.43510        3.45888
        3.46372        3.47696        3.49199        3.50611        3.55446
        3.62344        3.62536        3.64052        3.67988        3.93294
        3.93704        3.97139        4.01060        4.17712        4.18735
        4.20940        4.22336        4.59357        5.18757        5.27298
        5.29504        5.30642        5.31120        5.33795        5.66238
        5.68598        5.69198        5.76645        6.00000        6.00879
        6.02908        6.21166       37.13094       51.45029       51.46170
       51.47092       51.51351
 Time used in FCKEIG, thr_jaco:   3.00D-02  4.00D-02  4.08D-05
 CPU and wall times used in FCKEIG, THR_FCKEIG:   3.00D-02  4.00D-02  9.37D-03
 -----------------------------------------------------------------------------

 *** DIIS iteration number    3
 RDSUPM called. NFMAT, ISYMDM(1:NFMAT)                     1
                     1

 ITDIIS, energy, error norm, change in energy, scr.thr., difden:
@ DIIS iter.   3    -360.751043568        3.47726D-01   -6.03D-02  -20    F

 (DIIS_RED) Control Parameters C2DIIS =         F NEVC =    3


 (DIIS_RED) B matrix:

               Column   1     Column   2     Column   3
       1      14.25092968
       2       0.84402705     0.87882081
       3       0.63265621     0.04855462     0.12091353
    ==== End of matrix output ====

 DIIS C vector; C2DIIS = F, LAMBDA = -9.32D-02
   -0.041060    0.093072    0.947988
* Read MO coefficients from SIRIUS.RST with label "NEWORB  " and header info:  4Dec18  DIIS   3
      Virial theorem: -V/T =      2.002275
@      MULPOP N      -0.58; H       0.20; H       0.22; H       0.19; O      -0.70; O      -0.62; O      -0.64; O      -0.73; H       0.39; H       0.33; 
@             H       0.34; H       0.29; H       0.31; H       0.35; H       0.30; H       0.36; 
   3  Level shift: doubly occupied orbital energies shifted by -2.50D-02

 DIIS Fock eigenvalues in symmetry 1
      -20.58472      -20.58065      -20.56315      -20.50292      -15.59960
       -1.36312       -1.35219       -1.33040       -1.31521       -1.17739
       -0.71315       -0.70580       -0.69332       -0.68918       -0.68056
       -0.65931       -0.61658       -0.60455       -0.59243       -0.57473
       -0.55009       -0.54318       -0.52315       -0.49592       -0.46352
        0.00000        0.13750        0.16509        0.19010        0.20646
        0.23926        0.25202        0.26474        0.27771        0.30592
        0.32091        0.35935        0.47432        0.50328        0.53357
        0.54374        0.57552        0.58837        0.60480        0.61416
        0.63931        0.66516        0.67598        0.88123        0.92700
        0.94617        0.96527        0.97758        1.00260        1.00929
        1.02220        1.07365        1.07972        1.08760        1.09909
        1.12635        1.12862        1.17297        1.27296        1.31902
        1.34253        1.34582        1.36416        1.42973        1.45501
        1.47465        1.50165        1.51778        1.53361        1.53956
        1.55952        1.57156        1.66990        1.69094        1.71366
        1.73649        1.76686        1.79098        1.83208        1.88694
        1.90459        1.91110        1.92636        1.97537        2.01421
        2.17075        2.18615        2.21043        2.22172        2.22970
        2.35271        2.36510        2.36819        2.40034        2.48401
        2.54389        2.59931        2.60221        2.64880        2.67340
        2.71022        2.75944        2.81769        2.84236        2.84848
        2.85236        2.91710        2.99161        3.01900        3.19086
        3.42295        3.42354        3.43336        3.44499        3.45855
        3.48211        3.49394        3.50194        3.51437        3.60212
        3.64560        3.64987        3.66311        3.72825        3.95658
        3.95907        3.99231        4.05455        4.20035        4.21312
        4.24015        4.26180        4.53988        5.13728        5.24929
        5.30552        5.32956        5.35885        5.38150        5.68876
        5.72310        5.75680        5.79423        6.03102        6.03666
        6.05504        6.28169       36.99642       51.49506       51.50085
       51.50699       51.63770
 Time used in FCKEIG, thr_jaco:   3.10D-02  3.50D-02  1.51D-05
 CPU and wall times used in FCKEIG, THR_FCKEIG:   3.10D-02  3.50D-02  3.48D-03
 -----------------------------------------------------------------------------

 *** DIIS iteration number    4
 RDSUPM called. NFMAT, ISYMDM(1:NFMAT)                     1
                     1

 ITDIIS, energy, error norm, change in energy, scr.thr., difden:
@ DIIS iter.   4    -360.759336905        1.16979D-01   -8.29D-03  -20    F

 (DIIS_RED) Control Parameters C2DIIS =         F NEVC =    4


 (DIIS_RED) B matrix:

               Column   1     Column   2     Column   3     Column   4
       1      14.25092968
       2       0.84402705     0.87882081
       3       0.63265621     0.04855462     0.12091353
       4      -0.00496981     0.08362442    -0.00914263     0.01368407
    ==== End of matrix output ====

 DIIS C vector; C2DIIS = F, LAMBDA = -3.87D-03
   -0.000164   -0.093853    0.142502    0.951515
* Read MO coefficients from SIRIUS.RST with label "NEWORB  " and header info:  4Dec18  DIIS   4
      Virial theorem: -V/T =      2.003162
@      MULPOP N      -0.65; H       0.22; H       0.24; H       0.21; O      -0.72; O      -0.63; O      -0.65; O      -0.72; H       0.40; H       0.34; 
@             H       0.34; H       0.29; H       0.31; H       0.35; H       0.30; H       0.36; 
   4  Level shift: doubly occupied orbital energies shifted by -1.25D-02

 DIIS Fock eigenvalues in symmetry 1
      -20.58368      -20.57936      -20.55948      -20.52783      -15.55144
       -1.35540       -1.34390       -1.32119       -1.31505       -1.15290
       -0.70410       -0.69610       -0.68869       -0.67913       -0.65738
       -0.63912       -0.60502       -0.59340       -0.58136       -0.56895
       -0.53835       -0.53111       -0.50987       -0.49238       -0.43959
        0.00000        0.13837        0.16418        0.18991        0.20622
        0.23970        0.25201        0.26457        0.27816        0.30689
        0.32318        0.36107        0.47830        0.50739        0.53346
        0.54522        0.57588        0.58791        0.60378        0.61178
        0.63842        0.66403        0.67836        0.88628        0.93204
        0.95234        0.96589        0.97827        1.00533        1.00734
        1.02078        1.07341        1.08079        1.08575        1.09846
        1.12580        1.12889        1.16623        1.27485        1.32059
        1.34125        1.35223        1.36565        1.43203        1.45208
        1.47468        1.50076        1.51595        1.53102        1.53793
        1.55823        1.57013        1.66793        1.68939        1.71203
        1.73528        1.76561        1.79582        1.83552        1.88751
        1.90339        1.91236        1.92647        1.97980        2.01683
        2.16842        2.18451        2.21148        2.22630        2.23683
        2.35001        2.36166        2.36576        2.39478        2.48889
        2.54641        2.59695        2.60048        2.64888        2.67107
        2.71222        2.76327        2.81648        2.84347        2.84760
        2.85273        2.92313        3.00490        3.02950        3.20145
        3.42059        3.43280        3.43714        3.44699        3.45502
        3.47846        3.49618        3.49915        3.51255        3.59054
        3.64371        3.64730        3.65998        3.71717        3.95371
        3.95551        3.99012        4.04486        4.19835        4.21044
        4.23601        4.25289        4.55677        5.15512        5.26828
        5.30025        5.32447        5.35022        5.36633        5.68488
        5.71798        5.73833        5.78868        6.02529        6.03035
        6.05052        6.26301       37.03147       51.48416       51.48969
       51.49837       51.60101
 Time used in FCKEIG, thr_jaco:   2.70D-02  3.20D-02  5.09D-06
 CPU and wall times used in FCKEIG, THR_FCKEIG:   2.70D-02  3.20D-02  1.17D-03
 -----------------------------------------------------------------------------

 *** DIIS iteration number    5
 RDSUPM called. NFMAT, ISYMDM(1:NFMAT)                     1
                     1

 ITDIIS, energy, error norm, change in energy, scr.thr., difden:
@ DIIS iter.   5    -360.760463044        2.37172D-02   -1.13D-03  -20    F

 (DIIS_RED) Control Parameters C2DIIS =         F NEVC =    5


 (DIIS_RED) B matrix:

               Column   1     Column   2     Column   3     Column   4     Column   5
       1      14.25092968
       2       0.84402705     0.87882081
       3       0.63265621     0.04855462     0.12091353
       4      -0.00496981     0.08362442    -0.00914263     0.01368407
       5       0.01399496     0.00619896     0.00480810     0.00080295     0.00056251
    ==== End of matrix output ====

 DIIS C vector; C2DIIS = F, LAMBDA = -3.17D-04
    0.001236    0.006399   -0.063034   -0.126979    1.182378
* Read MO coefficients from SIRIUS.RST with label "NEWORB  " and header info:  4Dec18  DIIS   5
      Virial theorem: -V/T =      2.002785
@      MULPOP N      -0.65; H       0.21; H       0.23; H       0.21; O      -0.73; O      -0.64; O      -0.66; O      -0.73; H       0.40; H       0.34; 
@             H       0.35; H       0.30; H       0.32; H       0.36; H       0.31; H       0.37; 

 DIIS Fock eigenvalues in symmetry 1
      -20.56899      -20.56503      -20.54532      -20.50926      -15.53512
       -1.34219       -1.33065       -1.30808       -1.30035       -1.13943
       -0.69139       -0.68327       -0.67501       -0.66661       -0.64428
       -0.62608       -0.59227       -0.58069       -0.56875       -0.55459
       -0.52430       -0.51706       -0.49580       -0.47702       -0.42547
        0.00000        0.13842        0.16400        0.18974        0.20621
        0.23983        0.25200        0.26455        0.27816        0.30691
        0.32339        0.36142        0.47853        0.50764        0.53350
        0.54542        0.57596        0.58788        0.60371        0.61146
        0.63827        0.66443        0.67876        0.88725        0.93283
        0.95307        0.96670        0.97910        1.00672        1.00829
        1.02201        1.07381        1.08142        1.08618        1.09867
        1.12599        1.12922        1.16721        1.27534        1.32091
        1.34153        1.35275        1.36616        1.43235        1.45290
        1.47469        1.50073        1.51571        1.53059        1.53747
        1.55798        1.57049        1.66816        1.68919        1.71219
        1.73487        1.76598        1.79600        1.83575        1.88733
        1.90286        1.91228        1.92618        1.98008        2.01702
        2.16822        2.18419        2.21115        2.22657        2.23723
        2.34991        2.36141        2.36548        2.39534        2.48930
        2.54692        2.59634        2.60009        2.64850        2.67120
        2.71209        2.76329        2.81587        2.84302        2.84697
        2.85251        2.92352        3.00579        3.03022        3.20223
        3.42133        3.43344        3.43846        3.44857        3.45582
        3.47906        3.49767        3.49981        3.51307        3.59270
        3.64421        3.64791        3.66051        3.71932        3.95433
        3.95610        3.99059        4.04699        4.19892        4.21110
        4.23702        4.25481        4.55874        5.15679        5.26991
        5.30154        5.32594        5.35254        5.36885        5.68573
        5.71898        5.74166        5.78972        6.02609        6.03119
        6.05114        6.26603       37.03521       51.48597       51.49183
       51.50001       51.60698
 Time used in FCKEIG, thr_jaco:   2.10D-02  3.00D-02  1.03D-06
 CPU and wall times used in FCKEIG, THR_FCKEIG:   2.10D-02  3.00D-02  2.37D-04
 -----------------------------------------------------------------------------

 *** DIIS iteration number    6
 RDSUPM called. NFMAT, ISYMDM(1:NFMAT)                     1
                     1

 ITDIIS, energy, error norm, change in energy, scr.thr., difden:
@ DIIS iter.   6    -360.760545946        7.76522D-03   -8.29D-05  -20    F

 (DIIS_RED) Control Parameters C2DIIS =         F NEVC =    6


 (DIIS_RED) B matrix:

               Column   1     Column   2     Column   3     Column   4     Column   5     Column   6
       1      14.25092968
       2       0.84402705     0.87882081
       3       0.63265621     0.04855462     0.12091353
       4      -0.00496981     0.08362442    -0.00914263     0.01368407
       5       0.01399496     0.00619896     0.00480810     0.00080295     0.00056251
       6      -0.00253146    -0.00041067     0.00055232     0.00019352     0.00006833     0.00006030
    ==== End of matrix output ====

 DIIS C vector; C2DIIS = F, LAMBDA = -3.36D-05
    0.000504    0.008349   -0.022899   -0.086364    0.159895    0.940515
* Read MO coefficients from SIRIUS.RST with label "NEWORB  " and header info:  4Dec18  DIIS   6
      Virial theorem: -V/T =      2.002928
@      MULPOP N      -0.64; H       0.21; H       0.23; H       0.21; O      -0.74; O      -0.64; O      -0.66; O      -0.73; H       0.41; H       0.34; 
@             H       0.35; H       0.30; H       0.32; H       0.36; H       0.31; H       0.37; 

 DIIS Fock eigenvalues in symmetry 1
      -20.57000      -20.56558      -20.54592      -20.51135      -15.53848
       -1.34248       -1.33075       -1.30821       -1.30087       -1.14052
       -0.69173       -0.68344       -0.67560       -0.66686       -0.64528
       -0.62693       -0.59284       -0.58109       -0.56909       -0.55521
       -0.52444       -0.51702       -0.49575       -0.47740       -0.42639
        0.00000        0.13831        0.16388        0.18962        0.20607
        0.23971        0.25188        0.26447        0.27801        0.30678
        0.32318        0.36125        0.47823        0.50727        0.53335
        0.54514        0.57572        0.58772        0.60358        0.61124
        0.63810        0.66421        0.67844        0.88673        0.93226
        0.95252        0.96661        0.97901        1.00640        1.00797
        1.02172        1.07357        1.08122        1.08596        1.09852
        1.12579        1.12892        1.16685        1.27490        1.32056
        1.34138        1.35223        1.36589        1.43196        1.45260
        1.47435        1.50055        1.51552        1.53032        1.53725
        1.55779        1.57025        1.66786        1.68903        1.71191
        1.73467        1.76575        1.79559        1.83537        1.88705
        1.90266        1.91192        1.92582        1.97969        2.01670
        2.16800        2.18383        2.21081        2.22592        2.23655
        2.34969        2.36108        2.36525        2.39495        2.48878
        2.54647        2.59606        2.59989        2.64821        2.67097
        2.71176        2.76293        2.81563        2.84265        2.84667
        2.85228        2.92292        3.00469        3.02929        3.20130
        3.42115        3.43318        3.43721        3.44766        3.45541
        3.47866        3.49667        3.49961        3.51283        3.59204
        3.64400        3.64773        3.66013        3.71871        3.95412
        3.95572        3.99036        4.04628        4.19871        4.21091
        4.23653        4.25411        4.55701        5.15513        5.26819
        5.30127        5.32533        5.35192        5.36811        5.68540
        5.71868        5.74056        5.78914        6.02577        6.03060
        6.05078        6.26497       37.03192       51.48542       51.49084
       51.49942       51.60492
 Time used in FCKEIG, thr_jaco:   2.50D-02  3.80D-02  3.38D-07
 CPU and wall times used in FCKEIG, THR_FCKEIG:   2.50D-02  3.80D-02  7.77D-05
 -----------------------------------------------------------------------------

 *** DIIS iteration number    7
 RDSUPM called. NFMAT, ISYMDM(1:NFMAT)                     1
                     1

 ITDIIS, energy, error norm, change in energy, scr.thr., difden:
@ DIIS iter.   7    -360.760552269        2.48530D-03   -6.32D-06  -20    F

 (DIIS_RED) Control Parameters C2DIIS =         F NEVC =    7


 (DIIS_RED) B matrix:

               Column   1     Column   2     Column   3     Column   4     Column   5     Column   6
       1      14.25092968
       2       0.84402705     0.87882081
       3       0.63265621     0.04855462     0.12091353
       4      -0.00496981     0.08362442    -0.00914263     0.01368407
       5       0.01399496     0.00619896     0.00480810     0.00080295     0.00056251
       6      -0.00253146    -0.00041067     0.00055232     0.00019352     0.00006833     0.00006030
       7       0.00092640     0.00000270     0.00008376    -0.00000551     0.00003598    -0.00000045

               Column   7
       7       0.00000618
    ==== End of matrix output ====

 DIIS C vector; C2DIIS = F, LAMBDA = -1.23D-06
   -0.000224   -0.001620    0.009619    0.026277   -0.168166    0.026366    1.107749
* Read MO coefficients from SIRIUS.RST with label "NEWORB  " and header info:  4Dec18  DIIS   7
      Virial theorem: -V/T =      2.002890
@      MULPOP N      -0.65; H       0.21; H       0.23; H       0.21; O      -0.74; O      -0.64; O      -0.66; O      -0.74; H       0.41; H       0.34; 
@             H       0.35; H       0.30; H       0.32; H       0.36; H       0.31; H       0.37; 

 DIIS Fock eigenvalues in symmetry 1
      -20.56977      -20.56542      -20.54575      -20.51069      -15.53785
       -1.34237       -1.33064       -1.30809       -1.30056       -1.14031
       -0.69167       -0.68337       -0.67538       -0.66680       -0.64514
       -0.62683       -0.59283       -0.58109       -0.56910       -0.55499
       -0.52430       -0.51689       -0.49559       -0.47707       -0.42615
        0.00000        0.13835        0.16389        0.18964        0.20612
        0.23976        0.25190        0.26449        0.27803        0.30681
        0.32322        0.36135        0.47829        0.50735        0.53340
        0.54522        0.57577        0.58777        0.60362        0.61124
        0.63813        0.66431        0.67854        0.88686        0.93239
        0.95264        0.96668        0.97908        1.00655        1.00812
        1.02188        1.07362        1.08131        1.08602        1.09859
        1.12585        1.12899        1.16703        1.27503        1.32064
        1.34146        1.35231        1.36600        1.43206        1.45278
        1.47440        1.50058        1.51552        1.53031        1.53726
        1.55782        1.57038        1.66795        1.68904        1.71199
        1.73469        1.76588        1.79564        1.83547        1.88708
        1.90267        1.91196        1.92584        1.97976        2.01681
        2.16802        2.18384        2.21084        2.22601        2.23666
        2.34972        2.36109        2.36528        2.39510        2.48887
        2.54660        2.59604        2.59990        2.64823        2.67110
        2.71178        2.76295        2.81562        2.84268        2.84667
        2.85236        2.92305        3.00488        3.02946        3.20145
        3.42125        3.43329        3.43747        3.44791        3.45552
        3.47876        3.49692        3.49970        3.51293        3.59235
        3.64411        3.64783        3.66023        3.71901        3.95421
        3.95581        3.99045        4.04659        4.19882        4.21102
        4.23669        4.25439        4.55737        5.15543        5.26850
        5.30140        5.32550        5.35218        5.36841        5.68551
        5.71879        5.74098        5.78928        6.02588        6.03073
        6.05090        6.26537       37.03254       51.48558       51.49107
       51.49958       51.60558
 Time used in FCKEIG, thr_jaco:   2.30D-02  5.80D-02  1.08D-07
 CPU and wall times used in FCKEIG, THR_FCKEIG:   2.30D-02  5.80D-02  2.49D-05
 -----------------------------------------------------------------------------

 *** DIIS iteration number    8
 RDSUPM called. NFMAT, ISYMDM(1:NFMAT)                     1
                     1

 ITDIIS, energy, error norm, change in energy, scr.thr., difden:
@ DIIS iter.   8    -360.760552877        3.46506D-04   -6.07D-07  -20    F

 (DIIS_RED) Control Parameters C2DIIS =         F NEVC =    8


 (DIIS_RED) B matrix:

               Column   1     Column   2     Column   3     Column   4     Column   5     Column   6
       1      14.25092968
       2       0.84402705     0.87882081
       3       0.63265621     0.04855462     0.12091353
       4      -0.00496981     0.08362442    -0.00914263     0.01368407
       5       0.01399496     0.00619896     0.00480810     0.00080295     0.00056251
       6      -0.00253146    -0.00041067     0.00055232     0.00019352     0.00006833     0.00006030
       7       0.00092640     0.00000270     0.00008376    -0.00000551     0.00003598    -0.00000045
       8      -0.00001478    -0.00000537    -0.00000384     0.00000381     0.00000074     0.00000136

               Column   7     Column   8
       7       0.00000618
       8       0.00000024     0.00000012
    ==== End of matrix output ====

 DIIS C vector; C2DIIS = F, LAMBDA = -6.31D-08
    0.000021    0.000119   -0.001070   -0.002841    0.025785   -0.035751   -0.180057    1.193795
* Read MO coefficients from SIRIUS.RST with label "NEWORB  " and header info:  4Dec18  DIIS   8
      Virial theorem: -V/T =      2.002909
@      MULPOP N      -0.65; H       0.21; H       0.23; H       0.21; O      -0.74; O      -0.64; O      -0.66; O      -0.74; H       0.41; H       0.34; 
@             H       0.35; H       0.30; H       0.32; H       0.36; H       0.31; H       0.37; 

 DIIS Fock eigenvalues in symmetry 1
      -20.56981      -20.56544      -20.54579      -20.51069      -15.53789
       -1.34238       -1.33064       -1.30811       -1.30056       -1.14032
       -0.69167       -0.68337       -0.67537       -0.66681       -0.64516
       -0.62685       -0.59285       -0.58112       -0.56913       -0.55499
       -0.52431       -0.51689       -0.49560       -0.47706       -0.42617
        0.00000        0.13835        0.16388        0.18964        0.20612
        0.23976        0.25190        0.26449        0.27803        0.30680
        0.32321        0.36134        0.47828        0.50734        0.53340
        0.54521        0.57576        0.58776        0.60361        0.61123
        0.63813        0.66431        0.67853        0.88685        0.93238
        0.95263        0.96667        0.97907        1.00655        1.00811
        1.02187        1.07361        1.08130        1.08601        1.09858
        1.12584        1.12898        1.16704        1.27502        1.32063
        1.34145        1.35230        1.36598        1.43204        1.45277
        1.47438        1.50057        1.51552        1.53030        1.53725
        1.55781        1.57037        1.66794        1.68904        1.71198
        1.73468        1.76588        1.79563        1.83545        1.88708
        1.90266        1.91195        1.92583        1.97975        2.01679
        2.16802        2.18383        2.21083        2.22599        2.23664
        2.34971        2.36108        2.36527        2.39511        2.48885
        2.54658        2.59603        2.59989        2.64823        2.67110
        2.71177        2.76294        2.81562        2.84267        2.84666
        2.85234        2.92303        3.00486        3.02944        3.20143
        3.42123        3.43326        3.43745        3.44790        3.45550
        3.47874        3.49691        3.49969        3.51291        3.59235
        3.64409        3.64782        3.66021        3.71901        3.95419
        3.95579        3.99043        4.04658        4.19880        4.21100
        4.23667        4.25439        4.55734        5.15540        5.26847
        5.30138        5.32547        5.35216        5.36840        5.68549
        5.71878        5.74097        5.78925        6.02587        6.03070
        6.05087        6.26537       37.03250       51.48555       51.49103
       51.49955       51.60558
 Time used in FCKEIG, thr_jaco:   2.30D-02  2.80D-02  1.51D-08
 CPU and wall times used in FCKEIG, THR_FCKEIG:   2.30D-02  2.80D-02  3.47D-06
 -----------------------------------------------------------------------------

 *** DIIS iteration number    9
 RDSUPM called. NFMAT, ISYMDM(1:NFMAT)                     1
                     1

 ITDIIS, energy, error norm, change in energy, scr.thr., difden:
@ DIIS iter.   9    -360.760552893        9.66809D-05   -1.66D-08  -20    F

 (DIIS_RED) Control Parameters C2DIIS =         F NEVC =    8


 (DIIS_RED) B matrix:

               Column   1     Column   2     Column   3     Column   4     Column   5     Column   6
       1       0.00000001
       2       0.00000660     0.87882081
       3       0.00000095     0.04855462     0.12091353
       4       0.00000026     0.08362442    -0.00914263     0.01368407
       5       0.00000028     0.00619896     0.00480810     0.00080295     0.00056251
[...]
 | 1 1 1 1 |  26   1  12   1 |     1478        1 |      1091504 |    0.074804  |
 | 1 1 1 1 |  29   1  12   1 |     1481        1 |      1095941 |    0.088242  |
 | 1 1 1 1 |  30   1  12   1 |     1482        1 |      1097422 |   -0.073485  |
 | 1 1 1 1 |  11   1  13   1 |     1595        1 |      1271216 |   -0.070365  |
 | 1 1 1 1 |   6   1  21   1 |     2646        1 |      3499336 |   -0.068488  |
 | 1 1 1 1 |  12   1  21   1 |     2652        1 |      3515227 |    0.129725  |
 | 1 1 1 1 |  24   1  21   1 |     2664        1 |      3547117 |    0.173723  |
 | 1 1 1 1 |  39   1  21   1 |     2679        1 |      3587182 |    0.065590  |
 | 1 1 1 1 | 113   1  21   1 |     2753        1 |      3788129 |    0.101435  |
 | 1 1 1 1 |   1  24  21   1 |     2641       24 |      3486144 |   -0.068917  |
 +=============================================================================+


          Norm of Printed Amplitude Vector :             0.8822

          Printed all single excitations greater than 0.379096

          Printed all double excitations greater than 0.065203



+======================================================================+
| contributions of excitation levels to right eigenvectors as computed |
| from the (RE|RE) self overlap                                        |
+----------------------------------------------------------------------+
| sym | multi | state |    E / eV  | % singles | % doubles | % triples |
+======================================================================+
|    1|   1   |   1   |  406.67920 |  88.2203  |  11.7797  |   0.0000  |
+======================================================================+





+======================================================================+
| contributions of excitation levels to excited states as computed     |
| from the (LE|RE) overlap                                             |
+----------------------------------------------------------------------+
| sym | multi | state |    E / eV  | % singles | % doubles | % triples |
+======================================================================+
|    1|   1   |   1   |  406.67920 |  78.9247  |  21.0753  |   0.0000  |
+======================================================================+



 --------------------------
 Symmetry class Nr.:     1
 Multiplicity      :     3
 --------------------------

 Length of Excitation vectors in this class is:   7689528
 No Excitation Energies calculated in this symmetry class
     

   *******************************************************************
   *                                                                 *
   *--------   OUTPUT FROM PROPERTY AND SYMMETRY ANALYSIS   ---------*
   *                                                                 *
   *******************************************************************



                         +-------------------------------+
                         ! REQUESTED PROPERTY OPERATORS: !
                         +-------------------------------+

             Index   Oper. Label  Symmetry  Transp.  PDBS  Atom
             --------------------------------------------------
                1     HAM0            1        1      T      0
                2     XDIPLEN         1        1      F      0
                3     YDIPLEN         1        1      F      0
                4     ZDIPLEN         1        1      F      0
             --------------------------------------------------




                         +-------------------------------+
                         ! REQUESTED EXPECTATION VALUES: !
                         +-------------------------------+

                       Index   Oper. Label  Symmetry
                       -----------------------------
                       -----------------------------




                       +------------------------------------+
                       ! REQUESTED EFFECTIVE FOCK MATRICES: !
                       +------------------------------------+

                       Index   Oper. Label  Symmetry
                       -----------------------------
                       -----------------------------




                        +----------------------------------+
                        ! REQUESTED FIRST ORDER M-VECTORS: !
                        +----------------------------------+

               Index   State Symmetry  Frequency
               --------------------------------------------------
                  1             1    1     1.494519D+01
               --------------------------------------------------


      

    *******************************************************************
    *          SOLVING COUPLED CLUSTER RESPONSE EQUATIONS             *
    *******************************************************************



 
 +======================================================================+
 !                     RHS & ETA VECTORS TO COMPUTE:                    !
 +======================================================================+
 | TYPE | # VEC. |  NEEDED FOR:                                         |
 +----------------------------------------------------------------------+
 +======================================================================+



 +======================================================================+
 !                       LINEAR EQUATIONS TO SOLVE:                     !
 +======================================================================+
 | TYPE | # VEC. |  EQUATION:                                           |
 +----------------------------------------------------------------------+
 |  M1  |    1   |  first-order ground - excited state multipliers      |
 +======================================================================+



 +======================================================================+
 !                F MATRIX TRANSFORMATIONS TO COMPUTE:                  !
 +======================================================================+
 | TYPE | # VEC. |  TRANSFORMED:                                        |
 +----------------------------------------------------------------------+
 |  FR  |    1   |  right eigenvectors (RE)                             |
 +======================================================================+





 Testing R1 list: 

 List nr.  Label     Symmetry      Frequency      T1-norm        T2-norm


 Testing L1 list: 

 List nr.  Label     Symmetry      Frequency      T1-norm        T2-norm
  Solvent 1-order response equations converged in                     0 
  solvent iterations
 SONIAPRI                     0
 CCEQ_STR: CVSEPARATION =  T
 CCEQ_STR: IONIZATION =  T
 CCEQ_STR: REMOVE_CORE =  F
 could not find required file CCM1_1___1
 IOPTSV is    33 ... program continues nevertheless.
 Vector nr.  1 of type M1  and symmetry  1 was not found on file.
     M1  start vector nr.  1 of symmetry  1 generated from gradient
 CCEQ_STR: freeze VALENCE OR VIRT
 CCEQ_SOL: CVSEPARA=     T
 CCEQ_SOL: LIONISAT=     T
 CCEQ_SOL: REMOVE_CORE =  F



 ----- COUPLED CLUSTER RESPONSE SOLVER -----

    Iter  #Vectors  time (min)   residual
    --------------------------------------
 CCRED CVS/IONIS sigma_                     1 
 project out valence occupied or virtual
      1       1         1.24     0.32E+00
 CCRED CVS/IONIS sigma_                     2 
 project out valence occupied or virtual
      2       1         1.22     0.71E-01
 CCRED CVS/IONIS sigma_                     3 
 project out valence occupied or virtual
                    -1  vectors with norm le:  1.000000000000000E-035  REMOVED

 CCORT,**WARNING**  number vectors added is zero after check for vector norm , NBADD :    0

 CCORT, number vectors added is zero , NBADD :    0

 CCORT, number vectors added is zero , NBADD :    0

 CCORT, number vectors added is zero , NBADD :    0

 *** MICROITERATIONS STOPPED DUE TO LINEAR DEPENDENCE BETWEEN ALL NEW TRIAL VECTORS
                     0  trial vectors converged
  LINEAR DEPENDENCE BETWEEN                     1  NON CONVERGED TRIAL VECTORS
      3       1         1.21     0.74E-02

 ***  CCEQ_SOL -MICROITERATIONS STOPPED  
     LINEAR DEPENDENCE BETWEEN ALL NEW TRIAL VECTORS
    --------------------------------------
    converged in  3 iterations
    threshold:    0.10E-08


         Routine          Time (min)
         ---------------------------
         CC_TRDRV            3.67
         CCRED               0.02
         CCNEX               0.04
         ---------------------------
         Total time          3.72


  Total CPU  time used in CCEQ_SOLV:  3 minutes 43 seconds
  Total wall time used in CCEQ_SOLV:  6 minutes 42 seconds


 xxxxxxxxxxxxxxxxxxxxxxxxxxxxxxxxxxxxx

 
 Solution of CC response equations completed.
 

 *******************************************************************
 *                                                                 *
 *--------  OUTPUT FROM COUPLED CLUSTER LINEAR RESPONSE   ---------*
 *                                                                 *
 *--------      CALCULATION OF SECOND ORDER RESIDUES      ---------*
 *                                                                 *
 *******************************************************************



                  +---------------------------------------------+
                  ! CC_SOPR: Calculation of CCSD       Residues !
                  +---------------------------------------------+

 Doing the Mf*CsiA
 Doing the Mf*CsiA
 Doing the Mf*CsiA


 CCSD  Right transition moments in atomic units:
 -----------------------------------------------

  1      14.945186  <XDIPLEN |f> =       0.00000001
  1      14.945186  <YDIPLEN |f> =      -0.00000001
  1      14.945186  <ZDIPLEN |f> =       0.00000001


 CCSD  Left  transition moments in atomic units:
 -----------------------------------------------

  1      14.945186  <f|XDIPLEN > =       0.00000000
  1      14.945186  <f|YDIPLEN > =      -0.00000000
  1      14.945186  <f|ZDIPLEN > =       0.00000001


 CCSD  linear response residue property in atomic units:
 -------------------------------------------------------

 RES{<<XDIPLEN ,XDIPLEN >>(14.945186)} =     0.00000000 (   0.00000001)
 RES{<<XDIPLEN ,YDIPLEN >>(14.945186)} =    -0.00000000 (  -0.00000001)
 RES{<<XDIPLEN ,ZDIPLEN >>(14.945186)} =     0.00000000 (   0.00000001)
 RES{<<YDIPLEN ,XDIPLEN >>(14.945186)} =    -0.00000000 (  -0.00000001)
 RES{<<YDIPLEN ,YDIPLEN >>(14.945186)} =     0.00000000 (   0.00000001)
 RES{<<YDIPLEN ,ZDIPLEN >>(14.945186)} =    -0.00000000 (  -0.00000001)
 RES{<<ZDIPLEN ,XDIPLEN >>(14.945186)} =     0.00000000 (   0.00000001)
 RES{<<ZDIPLEN ,YDIPLEN >>(14.945186)} =    -0.00000000 (  -0.00000001)
 RES{<<ZDIPLEN ,ZDIPLEN >>(14.945186)} =     0.00000000 (   0.00000001)


 CCSD  Transition strength matrix for state nr.  1 of symmetry 1
 CCSD  excitation energy:14.94518613

 Gauge: length

               Column   1     Column   2     Column   3
       1     2.601112D-17  -3.368767D-17   4.107422D-17
       2    -3.368767D-17   4.362418D-17  -5.319715D-17
       3     4.107422D-17  -5.319715D-17   6.486028D-17
    ==== End of matrix output ====

 Principal values of diagonalized transition strength matrix:

             a.u.               
 1       0.00000000
 2       0.00000000
 3       0.00000000

 Principal axis of diagonalized transition strength matrix:


               Column   1     Column   2     Column   3
       1       1.00000000     0.00000000     0.00000000
       2       0.00000000     1.00000000     0.00000000
       3       0.00000000     0.00000000     1.00000000
    ==== End of matrix output ====


 CCSD   oscillator strength matrix for state nr.  1 of symmetry 1
 CCSD  excitation energy:14.94518613


               Column   1     Column   2     Column   3
       1     2.591607D-16  -3.356456D-16   4.092413D-16
       2    -3.356456D-16   4.346476D-16  -5.300275D-16
       3     4.092413D-16  -5.300275D-16   6.462327D-16
    ==== End of matrix output ====

 Principal values of diagonalized oscillator strength matrix:

             a.u.               
 1       0.00000000
 2       0.00000000
 3       0.00000000

 Principal axis of diagonalized oscillator strength matrix:


               Column   1     Column   2     Column   3
       1       1.00000000     0.00000000     0.00000000
       2       0.00000000     1.00000000     0.00000000
       3       0.00000000     0.00000000     1.00000000
    ==== End of matrix output ====

  Total time for      9 linear response residues:       2.76 seconds.
  

 *******************************************************************************
 *******************************************************************************
 *                                                                             *
 *                                                                             *
 *                   SUMMARY OF COUPLED CLUSTER CALCULATION                    *
 *                                                                             *
 *                                                                             *
 *******************************************************************************
 *******************************************************************************

                                                                                
                                                                                
            Total SCF   energy:                  -360.7605528943                
            Total MP2   energy:                  -361.8627591315                
            Total CCSD  energy:                  -361.9025732288                
                                                                                
                                                                                
            Total SCF   energy:                  -360.7605528943                
            Total RSTAR energy:                  -361.9025732288                
            Total CCSD  energy:                  -361.9027157146                
                                                                                
                                                                                
            Total SCF   energy:                  -360.7605528943                
            Total RSTAR energy:                  -361.9027157146                
            Total CCSD  energy:                  -361.9027169783                
                                                                                
                                                                                
            Total SCF   energy:                  -360.7605528943                
            Total RSTAR energy:                  -361.9027169783                
            Total CCSD  energy:                  -361.9027170708                
                                                                                
                                                                                
            Total SCF   energy:                  -360.7605528943                
            Total RSTAR energy:                  -361.9027170708                
            Total CCSD  energy:                  -361.9027170749                
                                                                                
                                                                                
            Total SCF   energy:                  -360.7605528943                
            Total RSTAR energy:                  -361.9027170749                
            Total CCSD  energy:                  -361.9027170749                
            CCSD Total  energy:                  -362.3018487805                
            CCSD E(QM/MM)     :                    -0.3939842719                
                                                                                
                                                                                
                                                                                
 +=============================================================================+
 |  sym. | Exci.  |        CCSD       Excitation energies            | ||T1||  |
 |(spin, |        +------------------------------------------------------------+
 | spat) |        |     Hartree    |       eV.      |     cm-1       |    %    |
 +=============================================================================+
 | ^1A   |    1   |    14.9451861  |     406.67920  |   3280089.187  |  88.22  |
 +=============================================================================+
                                                                                
                                                                                
     Total energies in Hartree:                                                 
             1 ^1A       -346.9626783752                                        
                                                                                
                                                                                
 +=============================================================================+
 |  sym. | Exci.  |        CCSD       Length   Gauge Oscillator Strength       |
 |(spin, |        +------------------------------------------------------------+
 | spat) |        | Dipole Strength(a.u.) | Oscillator strength  | Direction   |
 +=============================================================================+
 | ^1A   |    1   |        0.0000000      |      0.0000000       |    -        |
 +=============================================================================+

  1 a.u. =        27.21138 eV.  
  1 a.u. =    219474.62934 cm-1.
  

 *******************************************************************************
 *******************************************************************************
 *                                                                             *
 *                                                                             *
 *                      END OF COUPLED CLUSTER CALCULATION                     *
 *                                                                             *
 *                                                                             *
 *******************************************************************************
 *******************************************************************************


 CPU and wall time for CC :    5530.135   12682.934

 
     Date and time (Linux)  : Tue Dec  4 12:54:21 2018
     Host name              : n-62-29-6                               


                      .-------------------------------------.
                      | End of Coupled Cluster Section (CC) |
                      `-------------------------------------'

  Total CPU  time used in DALTON:   1 hour  34 minutes  1 second 
  Total wall time used in DALTON:   3 hours 36 minutes  3 seconds

 
     Date and time (Linux)  : Tue Dec  4 12:54:21 2018
     Host name              : n-62-29-6                               
  

 +---------------------------------------------------------+ 
 | List of selected calculated molecular properties (a.u.) | 
 +---------------------------------------------------------+ 

  Properties are read from unit number                      4

 CCSD       properties :
 #  1 1 CCSD/MM  Ground state Energy =    -362.3018487805
 #  2 1 E_QM/MM  Ground state Energy =      -0.3939842719
 #  3 1 Sy: 1 Sp: 1 Exc:  1 E_tot:   -346.9626783752 w:     14.9451861334 E_grs:   -361.9078645086
 #  4 1 Exctot   Excited state Energy =    -346.9626783752
 #  5 1 |<O|XDIPLEN |i(14.945186)>| =     0.00000001
 #  7 1 |<O|YDIPLEN |i(14.945186)>| =     0.00000001
 #  9 1 |<O|ZDIPLEN |i(14.945186)>| =     0.00000001

 THE_END   
