

     ************************************************************************
     *************** Dalton - An Electronic Structure Program ***************
     ************************************************************************

    This is output from DALTON release Dalton2017.alpha (2016)
         ( Web site: http://daltonprogram.org )

   ----------------------------------------------------------------------------

    NOTE:
     
    Dalton is an experimental code for the evaluation of molecular
    properties using (MC)SCF, DFT, CI, and CC wave functions.
    The authors accept no responsibility for the performance of
    the code or for the correctness of the results.
     
    The code (in whole or part) is provided under a licence and
    is not to be reproduced for further distribution without
    the written permission of the authors or their representatives.
     
    See the home page "http://daltonprogram.org" for further information.
     
    If results obtained with this code are published,
    the appropriate citations would be both of:
     
       K. Aidas, C. Angeli, K. L. Bak, V. Bakken, R. Bast,
       L. Boman, O. Christiansen, R. Cimiraglia, S. Coriani,
       P. Dahle, E. K. Dalskov, U. Ekstroem,
       T. Enevoldsen, J. J. Eriksen, P. Ettenhuber, B. Fernandez,
       L. Ferrighi, H. Fliegl, L. Frediani, K. Hald, A. Halkier,
       C. Haettig, H. Heiberg, T. Helgaker, A. C. Hennum,
       H. Hettema, E. Hjertenaes, S. Hoest, I.-M. Hoeyvik,
       M. F. Iozzi, B. Jansik, H. J. Aa. Jensen, D. Jonsson,
       P. Joergensen, J. Kauczor, S. Kirpekar,
       T. Kjaergaard, W. Klopper, S. Knecht, R. Kobayashi, H. Koch,
       J. Kongsted, A. Krapp, K. Kristensen, A. Ligabue,
       O. B. Lutnaes, J. I. Melo, K. V. Mikkelsen, R. H. Myhre,
       C. Neiss, C. B. Nielsen, P. Norman, J. Olsen,
       J. M. H. Olsen, A. Osted, M. J. Packer, F. Pawlowski,
       T. B. Pedersen, P. F. Provasi, S. Reine, Z. Rinkevicius,
       T. A. Ruden, K. Ruud, V. Rybkin, P. Salek, C. C. M. Samson,
       A. Sanchez de Meras, T. Saue, S. P. A. Sauer,
       B. Schimmelpfennig, K. Sneskov, A. H. Steindal,
       K. O. Sylvester-Hvid, P. R. Taylor, A. M. Teale,
       E. I. Tellgren, D. P. Tew, A. J. Thorvaldsen, L. Thoegersen,
       O. Vahtras, M. A. Watson, D. J. D. Wilson, M. Ziolkowski
       and H. Agren,
       "The Dalton quantum chemistry program system",
       WIREs Comput. Mol. Sci. 2014, 4:269–284 (doi: 10.1002/wcms.1172)
     
    and
     
       Dalton, a Molecular Electronic Structure Program,
       Release Dalton2017.alpha (2016), see http://daltonprogram.org
   ----------------------------------------------------------------------------

    Authors in alphabetical order (major contribution(s) in parenthesis):

  Kestutis Aidas,           Vilnius University,           Lithuania   (QM/MM)
  Celestino Angeli,         University of Ferrara,        Italy       (NEVPT2)
  Keld L. Bak,              UNI-C,                        Denmark     (AOSOPPA, non-adiabatic coupling, magnetic properties)
  Vebjoern Bakken,          University of Oslo,           Norway      (DALTON; geometry optimizer, symmetry detection)
  Radovan Bast,             UiT The Arctic U. of Norway,  Norway      (DALTON installation and execution frameworks)
  Pablo Baudin,             University of Valencia,       Spain       (Cholesky excitation energies)
  Linus Boman,              NTNU,                         Norway      (Cholesky decomposition and subsystems)
  Ove Christiansen,         Aarhus University,            Denmark     (CC module)
  Renzo Cimiraglia,         University of Ferrara,        Italy       (NEVPT2)
  Sonia Coriani,            University of Trieste,        Italy       (CC module, MCD in RESPONS)
  Janusz Cukras,            University of Trieste,        Italy       (MChD in RESPONS)
  Paal Dahle,               University of Oslo,           Norway      (Parallelization)
  Erik K. Dalskov,          UNI-C,                        Denmark     (SOPPA)
  Thomas Enevoldsen,        Univ. of Southern Denmark,    Denmark     (SOPPA)
  Janus J. Eriksen,         Aarhus University,            Denmark     (Polarizable embedding model, TDA)
  Rasmus Faber,             University of Copenhagen,     Denmark     (Vib.avg. NMR with SOPPA, parallel AO-SOPPA)
  Berta Fernandez,          U. of Santiago de Compostela, Spain       (doublet spin, ESR in RESPONS)
  Lara Ferrighi,            Aarhus University,            Denmark     (PCM Cubic response)
  Heike Fliegl,             University of Oslo,           Norway      (CCSD(R12))
  Luca Frediani,            UiT The Arctic U. of Norway,  Norway      (PCM)
  Bin Gao,                  UiT The Arctic U. of Norway,  Norway      (Gen1Int library)
  Christof Haettig,         Ruhr-University Bochum,       Germany     (CC module)
  Kasper Hald,              Aarhus University,            Denmark     (CC module)
  Asger Halkier,            Aarhus University,            Denmark     (CC module)
  Frederik Beyer Hansen,    University of Copenhagen,     Denmark     (Parallel AO-SOPPA)
  Erik D. Hedegaard,        Univ. of Southern Denmark,    Denmark     (Polarizable embedding model, QM/MM)
  Hanne Heiberg,            University of Oslo,           Norway      (geometry analysis, selected one-electron integrals)
  Trygve Helgaker,          University of Oslo,           Norway      (DALTON; ABACUS, ERI, DFT modules, London, and much more)
  Alf Christian Hennum,     University of Oslo,           Norway      (Parity violation)
  Hinne Hettema,            University of Auckland,       New Zealand (quadratic response in RESPONS; SIRIUS supersymmetry)
  Eirik Hjertenaes,         NTNU,                         Norway      (Cholesky decomposition)
  Pi A. B. Haase,           University of Copenhagen,     Denmark     (Triplet AO-SOPPA)
  Maria Francesca Iozzi,    University of Oslo,           Norway      (RPA)
  Brano Jansik              Technical Univ. of Ostrava    Czech Rep.  (DFT cubic response)
  Hans Joergen Aa. Jensen,  Univ. of Southern Denmark,    Denmark     (DALTON; SIRIUS, RESPONS, ABACUS modules, London, and much more)
  Dan Jonsson,              UiT The Arctic U. of Norway,  Norway      (cubic response in RESPONS module)
  Poul Joergensen,          Aarhus University,            Denmark     (RESPONS, ABACUS, and CC modules)
  Maciej Kaminski,          University of Warsaw,         Poland      (CPPh in RESPONS)
  Joanna Kauczor,           Linkoeping University,        Sweden      (Complex polarization propagator (CPP) module)
  Sheela Kirpekar,          Univ. of Southern Denmark,    Denmark     (Mass-velocity & Darwin integrals)
  Wim Klopper,              KIT Karlsruhe,                Germany     (R12 code in CC, SIRIUS, and ABACUS modules)
  Stefan Knecht,            ETH Zurich,                   Switzerland (Parallel CI and MCSCF)
  Rika Kobayashi,           Australian National Univ.,    Australia   (DIIS in CC, London in MCSCF)
  Henrik Koch,              NTNU,                         Norway      (CC module, Cholesky decomposition)
  Jacob Kongsted,           Univ. of Southern Denmark,    Denmark     (Polarizable embedding model, QM/MM)
  Andrea Ligabue,           University of Modena,         Italy       (CTOCD, AOSOPPA)
  Nanna H. List             Univ. of Southern Denmark,    Denmark     (Polarizable embedding model)
  Ola B. Lutnaes,           University of Oslo,           Norway      (DFT Hessian)
  Juan I. Melo,             University of Buenos Aires,   Argentina   (LRESC, Relativistic Effects on NMR Shieldings)
  Kurt V. Mikkelsen,        University of Copenhagen,     Denmark     (MC-SCRF and QM/MM)
  Rolf H. Myhre,            NTNU,                         Norway      (Cholesky, subsystems and ECC2)
  Christian Neiss,          Univ. Erlangen-Nuernberg,     Germany     (CCSD(R12))
  Christian B. Nielsen,     University of Copenhagen,     Denmark     (QM/MM)
  Patrick Norman,           Linkoeping University,        Sweden      (Cubic response and complex frequency response in RESPONS)
  Jeppe Olsen,              Aarhus University,            Denmark     (SIRIUS CI/density modules)
  Jogvan Magnus H. Olsen,   Univ. of Southern Denmark,    Denmark     (Polarizable embedding model, QM/MM)
  Anders Osted,             Copenhagen University,        Denmark     (QM/MM)
  Martin J. Packer,         University of Sheffield,      UK          (SOPPA)
  Filip Pawlowski,          Kazimierz Wielki University,  Poland      (CC3)
  Morten N. Pedersen,       Univ. of Southern Denmark,    Denmark     (Polarizable embedding model)
  Thomas B. Pedersen,       University of Oslo,           Norway      (Cholesky decomposition)
  Patricio F. Provasi,      University of Northeastern,   Argentina   (Analysis of coupling constants in localized orbitals)
  Zilvinas Rinkevicius,     KTH Stockholm,                Sweden      (open-shell DFT, ESR)
  Elias Rudberg,            KTH Stockholm,                Sweden      (DFT grid and basis info)
  Torgeir A. Ruden,         University of Oslo,           Norway      (Numerical derivatives in ABACUS)
  Kenneth Ruud,             UiT The Arctic U. of Norway,  Norway      (DALTON; ABACUS magnetic properties and much more)
  Pawel Salek,              KTH Stockholm,                Sweden      (DALTON; DFT code)
  Claire C. M. Samson       University of Karlsruhe       Germany     (Boys localization, r12 integrals in ERI)
  Alfredo Sanchez de Meras, University of Valencia,       Spain       (CC module, Cholesky decomposition)
  Trond Saue,               Paul Sabatier University,     France      (direct Fock matrix construction)
  Stephan P. A. Sauer,      University of Copenhagen,     Denmark     (SOPPA(CCSD), SOPPA prop., AOSOPPA, vibrational g-factors)
  Bernd Schimmelpfennig,    Forschungszentrum Karlsruhe,  Germany     (AMFI module)
  Kristian Sneskov,         Aarhus University,            Denmark     (Polarizable embedding model, QM/MM)
  Arnfinn H. Steindal,      UiT The Arctic U. of Norway,  Norway      (parallel QM/MM, Polarizable embedding model)
  Casper Steinmann,         Univ. of Southern Denmark,    Denmark     (QFIT, Polarizable embedding model)
  K. O. Sylvester-Hvid,     University of Copenhagen,     Denmark     (MC-SCRF)
  Peter R. Taylor,          VLSCI/Univ. of Melbourne,     Australia   (Symmetry handling ABACUS, integral transformation)
  Andrew M. Teale,          University of Nottingham,     England     (DFT-AC, DFT-D)
  David P. Tew,             University of Bristol,        England     (CCSD(R12))
  Olav Vahtras,             KTH Stockholm,                Sweden      (triplet response, spin-orbit, ESR, TDDFT, open-shell DFT)
  David J. Wilson,          La Trobe University,          Australia   (DFT Hessian and DFT magnetizabilities)
  Hans Agren,               KTH Stockholm,                Sweden      (SIRIUS module, RESPONS, MC-SCRF solvation model)
 --------------------------------------------------------------------------------

     Date and time (Linux)  : Thu Nov 29 11:25:53 2018
     Host name              : n-62-29-7                               

 * Work memory size             :  1280000000 =  9.537 gigabytes.

 * Directories for basis set searches:
   1) /zhome/d7/7/119775/My_Codes/dalton-private/build2016/basis/diffs
   2) /zhome/37/3/129401/NH3NH4/CCSD/AIMD_SAMPLING/nh3_4h2o_nd
   3) /zhome/9a/4/124800/source/dalton/build-mlcc/basis


Compilation information
-----------------------

 Who compiled             | rfaber
 Host                     | hpclogin1
 System                   | Linux-2.6.32-696.1.1.el6.x86_64
 CMake generator          | Unix Makefiles
 Processor                | x86_64
 64-bit integers          | ON
 MPI                      | OFF
 Fortran compiler         | /opt/intel/2016update2/compilers_and_libraries_201
                          | 6.2.181/linux/bin/intel64/ifort
 Fortran compiler version | ifort (IFORT) 16.0.2 20160204
 C compiler               | /opt/intel/2016update2/compilers_and_libraries_201
                          | 6.2.181/linux/bin/intel64/icc
 C compiler version       | icc (ICC) 16.0.2 20160204
 C++ compiler             | /opt/intel/2016update2/compilers_and_libraries_201
                          | 6.2.181/linux/bin/intel64/icpc
 C++ compiler version     | icpc (ICC) 16.0.2 20160204
 Static linking           | OFF
 Last Git revision        | bb4d1599ca5680a9f3980451fc8bbefdba436d59
 Git branch               | mlcc
 Configuration time       | 2017-06-13 16:11:03.928841


   Content of the .dal input file
 ----------------------------------

**DALTON
.RUN WAVE FUNCTIONS
*QMMM
.QMMM
**INTEGRALS
.DIPLEN
**WAVE FUNCTIONS
.CC
*PRINT
!To check the origin of excit
.PRINTL
   0 11
*SCF INP
.THRESH
1.0D-7
*CC INP
.CCSD
.THRLEQ
 1.0D-9
.THRENR
 1.0D-10
.FROIMP
4
0
.PRINT
 1
.MAX IT
 1200
.MAXRED
 1200
.MXLRV
1199
*CCSLV
.CCMM
.MXSLIT
200
.MXINIT
4 5
*CCEXCI
.NCCEXC
 1
.IONISATION
1
1
.CVSEPARA
1
1
*CCLRSD
.DIPOLE
**END OF DALTON INPUT


   Content of the .mol file
 ----------------------------

ATOMBASIS


Atomtypes=5 Charge=0 Nosymm Angstrom
   7.00000    1    Basis=6-311G**
N          0.000000        0.000000        0.000000
   1.00000    3    Basis=6-311G**
H         -0.905534        0.039971        0.542438
H          0.112281       -1.005628       -0.179183
H          0.736909        0.345493        0.622782
   8.00000    4    Basis=6-311G**
O         -3.518181       -0.039978        0.978903
O         -0.336480        1.968728       -1.787694
O         -0.044862       -3.039086        0.526725
O          2.671626        1.055601       -0.133585
   1.00000    8    Basis=6-311G**
H         -4.488647        0.054530        1.189385
H         -3.376324        0.324563        0.046748
H          0.109391        1.897460       -2.703902
H          0.013333        1.085393       -1.261642
H          0.936968       -3.169432        0.692943
H         -0.300638       -3.821628       -0.104800
H          2.792527        1.993898        0.055705
H          2.868787        0.656297        0.769750
   0.00000    1    Basis=diffs
X          0.000000        0.000000        0.000000


       *******************************************************************
       *********** Output from DALTON general input processing ***********
       *******************************************************************

 --------------------------------------------------------------------------------
   Overall default print level:    0
   Print level for DALTON.STAT:    1

    HERMIT 1- and 2-electron integral sections will be executed
    "Old" integral transformation used (limited to max 255 basis functions)
    Wave function sections will be executed (SIRIUS module)
 --------------------------------------------------------------------------------


 Changes of defaults for *QMMM  :
 --------------------------------

 +------------------+
 |  WORD: | CHANGE: |
 +------------------+
 |   QMMM |       T |
 +------------------+
 


   ****************************************************************************
   *************** Output of molecule and basis set information ***************
   ****************************************************************************


    The two title cards from your ".mol" input:
    ------------------------------------------------------------------------
 1:                                                                         
 2:                                                                         
    ------------------------------------------------------------------------

  Coordinates are entered in Angstrom and converted to atomic units.
          - Conversion factor : 1 bohr = 0.52917721 A

  Atomic type no.    1
  --------------------
  Nuclear charge:   7.00000
  Number of symmetry independent centers:    1
  Number of basis sets to read;    2
  The basis set is "6-311G**" from the basis set library.
  Basis set file used for this atomic type with Z =   7 :
     "/zhome/9a/4/124800/source/dalton/build-mlcc/basis/6-311G**"

  Info about the basis set file: your basis has no documentation.
  Basis set: 6-311G**                                                                        

  Atomic type no.    2
  --------------------
  Nuclear charge:   1.00000
  Number of symmetry independent centers:    3
  Number of basis sets to read;    2
  The basis set is "6-311G**" from the basis set library.
  Basis set file used for this atomic type with Z =   1 :
     "/zhome/9a/4/124800/source/dalton/build-mlcc/basis/6-311G**"

  Info about the basis set file: your basis has no documentation.
  Basis set: 6-311G**                                                                        

  Atomic type no.    3
  --------------------
  Nuclear charge:   8.00000
  Number of symmetry independent centers:    4
  Number of basis sets to read;    2
  The basis set is "6-311G**" from the basis set library.
  Basis set file used for this atomic type with Z =   8 :
     "/zhome/9a/4/124800/source/dalton/build-mlcc/basis/6-311G**"

  Info about the basis set file: your basis has no documentation.
  Basis set: 6-311G**                                                                        

  Atomic type no.    4
  --------------------
  Nuclear charge:   1.00000
  Number of symmetry independent centers:    8
  Number of basis sets to read;    2
  The basis set is "6-311G**" from the basis set library.
  Basis set file used for this atomic type with Z =   1 :
     "/zhome/9a/4/124800/source/dalton/build-mlcc/basis/6-311G**"

  Info about the basis set file: your basis has no documentation.
  Basis set: 6-311G**                                                                        

  Atomic type no.    5
  --------------------
  Nuclear charge:   0.00000
  Number of symmetry independent centers:    1
  Number of basis sets to read;    2
  The basis set is "diffs" from the basis set library.
  Basis set file used for this atomic type with Z =   0 :
     "/zhome/9a/4/124800/source/dalton/build-mlcc/basis/diffs"

  Info about the basis set file: your basis has no documentation.
  Basis set: diffs                                                                           


                         SYMGRP: Point group information
                         -------------------------------

@    Point group: C1 


                                 Isotopic Masses
                                 ---------------

                           N          14.003074
                           H           1.007825
                           H           1.007825
                           H           1.007825
                           O          15.994915
                           O          15.994915
                           O          15.994915
                           O          15.994915
                           H           1.007825
                           H           1.007825
                           H           1.007825
                           H           1.007825
                           H           1.007825
                           H           1.007825
                           H           1.007825
                           H           1.007825

                       Total mass:    89.068809 amu
                       Natural abundance:  98.514 %

 Center-of-mass coordinates (a.u.):   -0.448788   -0.052767   -0.148105


  Atoms and basis sets
  --------------------

  Number of atom types :    5
  Total number of atoms:   17

  label    atoms   charge   prim   cont     basis
  ----------------------------------------------------------------------
  N           1    7.0000    31    18      [11s5p1d|4s3p1d]                                   
  H           3    1.0000     8     6      [5s1p|3s1p]                                        
  O           4    8.0000    31    18      [11s5p1d|4s3p1d]                                   
  H           8    1.0000     8     6      [5s1p|3s1p]                                        
  X           1    0.0000     1     1      [1s|1s]                                            
  ----------------------------------------------------------------------
  total:     17   50.0000   244   157
  ----------------------------------------------------------------------
  Spherical harmonic basis used.

  Threshold for neglecting AO integrals:  1.00D-12


  Cartesian Coordinates (a.u.)
  ----------------------------

  Total number of coordinates:   51
  N       :     1  x   0.0000000000    2  y   0.0000000000    3  z   0.0000000000
  H       :     4  x  -1.7112112569    5  y   0.0755342429    6  z   1.0250592598
  H       :     7  x   0.2121803390    8  y  -1.9003615036    9  z  -0.3386067963
  H       :    10  x   1.3925561890   11  y   0.6528871481   12  z   1.1768874156
  O       :    13  x  -6.6483985482   14  y  -0.0755474710   15  z   1.8498585729
  O       :    16  x  -0.6358550465   17  y   3.7203567346   18  z  -3.3782520553
  O       :    19  x  -0.0847768934   20  y  -5.7430402103   21  z   0.9953659932
  O       :    22  x   5.0486414484   23  y   1.9947967873   24  z  -0.2524390644
  H       :    25  x  -8.4823135018   26  y   0.1030467656   27  z   2.2476119072
  H       :    28  x  -6.3803276692   29  y   0.6133351803   30  z   0.0883409169
  H       :    31  x   0.2067190305   32  y   3.5856797331   33  z  -5.1096342488
  H       :    34  x   0.0251957184   35  y   2.0510955080   36  z  -2.3841578478
  H       :    37  x   1.7706129079   38  y  -5.9893584518   39  z   1.3094724902
  H       :    40  x  -0.5681234828   41  y  -7.2218302716   42  z  -0.1980432979
  H       :    43  x   5.2771112266   44  y   3.7679211412   45  z   0.1052671938
  H       :    46  x   5.4212217409   47  y   1.2402215867   48  z   1.4546166847
  X       :    49  x   0.0000000000   50  y   0.0000000000   51  z   0.0000000000

  Max    interatomic separation is    7.6198 Angstrom (   14.3994 Bohr)
  between atoms   15 and    9, "H     " and "H     ".

  Min HX interatomic separation is    0.9648 Angstrom (    1.8232 Bohr)

  Min YX interatomic separation is    2.6805 Angstrom (    5.0654 Bohr)


  Bond distances (Angstrom):
  --------------------------

                  atom 1     atom 2       distance
                  ------     ------       --------
  bond distance:  H          N            1.056328
  bond distance:  H          N            1.027619
  bond distance:  H          N            1.024821
  bond distance:  H          O            0.997516
  bond distance:  H          O            1.010904
  bond distance:  H          O            1.021429
  bond distance:  H          O            1.085993
  bond distance:  H          O            1.004295
  bond distance:  H          O            1.037602
  bond distance:  H          O            0.964805
  bond distance:  H          O            1.007140


  Bond angles (degrees):
  ----------------------

                  atom 1     atom 2     atom 3         angle
                  ------     ------     ------         -----
  bond angle:     H          N          H            102.723
  bond angle:     H          N          H            106.954
  bond angle:     H          N          H            110.935
  bond angle:     H          O          H            107.273
  bond angle:     H          O          H            103.718
  bond angle:     H          O          H            104.113
  bond angle:     H          O          H            100.666




 Principal moments of inertia (u*A**2) and principal axes
 --------------------------------------------------------

   IA     304.214698          0.847054    0.451581   -0.280309
   IB     440.738551         -0.519170    0.815942   -0.254365
   IC     664.996724          0.113849    0.360989    0.925595


 Rotational constants
 --------------------

               A                   B                   C

           1661.2577           1146.6639            759.9722 MHz
            0.055414            0.038249            0.025350 cm-1


@  Nuclear repulsion energy :  180.840925315063 Hartree

  Number of floating/multiple basis set orbitals :    1


                     .---------------------------------------.
                     | Starting in Integral Section (HERMIT) |
                     `---------------------------------------'



 ***************************************************************************************
 ****************** Output from **INTEGRALS input processing (HERMIT) ******************
 ***************************************************************************************



    *************************************************************************
    ****************** Output from HERMIT input processing ******************
    *************************************************************************


 Default print level:        1

 * Nuclear model: Point charge

 Calculation of one- and two-electron Hamiltonian integrals.

 The following one-electron property integrals are calculated as requested:
          - overlap integrals
          - dipole length integrals

 Center of mass  (bohr):     -0.448787845348     -0.052767016577     -0.148104972588
 Operator center (bohr):      0.000000000000      0.000000000000      0.000000000000
 Gauge origin    (bohr):      0.000000000000      0.000000000000      0.000000000000
 Dipole origin   (bohr):      0.000000000000      0.000000000000      0.000000000000
 
  *********************************** 
  QMMM electrostatic potential: 
  Multipole order                                    0
  Isotropic polarization  
  *********************************** 
 
  ---------------- 
  QMMM information 
  ---------------- 
 
  MM coordinates in au 
  -------------------- 
     1      8.586216      9.088063     -8.311524
     2      9.378255      8.146898     -9.809264
     3      6.878955      9.849466     -8.931443
     4     -8.622885     -7.665058      5.762979
     5     -7.256048     -9.032401      6.075927
     6     -8.362968     -6.535599      7.145606
     7     -8.049999     -4.014502      9.853637
     8     -7.429687     -4.871979     11.382523
     9     -9.998584     -3.702722     10.079863
    10     10.390349      6.768693     11.138135
    11     12.212559      7.177609     10.827050
    12     10.378846      5.018895     10.505830
    13     -1.179888     -3.047130     -5.392352
    14     -1.831534     -2.165594     -6.927536
    15     -2.575795     -3.581530     -4.382815
    16      8.485318      5.324662     -4.402941
    17      7.773336      5.669940     -2.788845
    18      8.434379      7.126679     -5.287569
    19     -0.502939     -7.114558    -10.554508
    20     -2.096506     -6.966377     -9.626868
    21     -0.908064     -7.997043    -12.187705
    22      8.578077     -8.080904    -11.443686
    23     10.248461     -8.998454    -11.117773
    24      7.733532     -7.747699     -9.820427
    25    -10.178110      4.207623     -4.674357
    26    -11.919068      4.989174     -4.651468
    27     -9.959053      3.408601     -6.480614
    28     -7.157563     -2.093792     -6.264831
    29     -6.191077     -0.859459     -5.493105
    30     -8.171321     -2.808605     -4.806996
    31     -4.439345     -6.782794     -2.671186
    32     -3.251962     -8.242999     -2.618372
    33     -5.332057     -6.668354     -1.068580
    34     -6.137927      2.799777     11.505280
    35     -5.247811      4.235103     12.402641
    36     -6.562478      3.333197      9.816269
    37     10.529465      0.762040     -1.244848
    38     11.322031      2.197474     -2.170384
    39      8.584803      1.163455     -1.110131
    40     11.015743     11.092122      1.306825
    41     11.162879     12.339460      2.743710
    42     10.804456     12.118804     -0.292764
    43      5.961629      7.034154      5.767896
    44      6.497547      7.225258      3.912963
    45      6.973537      5.670571      6.473886
    46     -1.580136      0.071596    -10.354660
    47     -0.273519     -0.624906    -11.494253
    48     -2.899651      0.870208    -11.340547
    49     -8.383526      9.382885     10.888460
    50     -7.115745      8.467999     11.935070
    51     -8.952449     10.586421     12.179071
    52     -9.804630      7.016436      2.162899
    53    -10.731825      8.517924      2.292327
    54     -8.575428      7.409406      3.483230
    55     10.416065     -3.259439     10.114761
    56      9.766237     -1.759894     11.031463
    57      9.460615     -4.736236     10.644374
    58     -1.437872     -9.126402      8.389311
    59      0.078609    -10.082753      7.640682
    60     -1.346318     -7.371018      7.466030
    61      7.039011     10.840134      8.608007
    62      6.873752      9.347814      7.467771
    63      8.169403     10.392827      9.867445
    64      0.488449      7.405808    -11.260453
    65      1.710484      8.806965    -10.944921
    66      1.315019      5.832454    -10.394544
    67      6.532127     -6.790725     -6.311593
    68      5.955090     -4.985387     -6.131145
    69      7.664614     -7.266003     -4.973241
    70      4.149308    -11.262794      0.269265
    71      2.457220    -10.720983     -0.088749
    72      4.772507    -11.017576      2.127501
    73      1.789363     -2.967662     10.233812
    74      1.143736     -4.598813     10.855175
    75      1.418045     -3.247466      8.471164
    76     -4.383711      7.005001     -9.597112
    77     -4.711153      7.492076     -7.801562
    78     -2.652951      7.455625    -10.088826
    79     -5.351833      1.435810     -2.819456
    80     -6.635197      2.854949     -3.036888
    81     -3.661766      2.234781     -2.993585
    82      5.346988     -3.490141      0.950914
    83      4.753262     -2.442384      2.330641
    84      6.866197     -4.527319      1.542400
    85      4.192335     11.272581     -9.902734
    86      2.988190     12.021098     -8.748381
    87      5.138606     12.637375    -10.790546
    88      4.171449      0.137001      4.467156
    89      5.552229      0.599863      5.612613
    90      2.670965      0.608671      5.514650
    91      1.439274      3.653818     -8.307892
    92      0.398377      2.305785     -9.290026
    93      3.273280      3.160376     -8.296907
    94     -8.263211    -10.035357     -5.444335
    95     -6.925742     -8.833009     -4.880463
    96     -7.417755    -11.730885     -5.218787
    97      6.916415      7.772508      0.538009
    98      5.645309      8.984291      0.055176
    99      8.498422      8.710324      0.672729
   100      4.290842     -2.656713     -4.244782
   101      2.495937     -3.019937     -4.367820
   102      4.893007     -2.522140     -2.458432
   103      1.969416     -9.264426     -6.667617
   104      1.045527     -8.263614     -7.803754
   105      3.513350     -8.357159     -6.059940
   106     -4.807643     -1.548780      6.516401
   107     -5.819160     -2.333339      7.875366
   108     -6.003924     -0.919645      5.200931
   109     -9.925666      1.658970     -8.957181
   110     -8.458076      1.851622    -10.278428
   111     -9.538005     -0.000480     -8.249921
   112     -0.345177      1.867741      7.254286
   113     -1.623018      0.544515      6.933885
   114     -1.233386      3.382993      6.570752
   115     -5.691534     -6.004920     -9.204576
   116     -5.977871     -4.483564     -7.995569
   117     -6.355621     -7.462451     -8.265862
   118     -6.420930      8.541356     -4.610083
   119     -7.564088      7.111850     -4.203771
   120     -5.209064      8.754689     -3.071536
   121     10.112716     -5.942877      2.601397
   122     11.862041     -5.450541      2.921001
   123      9.909529     -7.486630      3.634673
   124     -0.756998    -10.388788     -2.309871
   125     -1.075623    -12.272947     -2.017759
   126      0.140512    -10.228046     -3.920893
   127      9.737422     -9.072898     -2.533696
   128      9.434178     -7.817498     -1.313225
   129     11.405232     -8.762290     -3.082191
   130     -2.402547      8.059491     -1.264522
   131     -1.562276      6.490877     -1.789140
   132     -2.599640      8.187327      0.603295
   133      0.224781      7.652945      7.175636
   134      0.245254      7.694644      9.088073
   135      1.902529      6.910020      6.819528
   136     10.393513    -10.075542      5.750302
   137     11.729522     -9.045675      6.438206
   138      9.243391    -10.867437      7.037629
   139     -3.460124      8.790203      3.600410
   140     -1.971374      8.896443      4.795205
   141     -4.489018     10.128167      4.374142
   142      6.096810      1.792332     -7.203483
   143      5.595899      0.353332     -6.112026
   144      6.968499      2.890247     -5.923981
   145    -11.103842      2.176677      3.089404
   146    -10.645600      4.036217      2.969882
   147    -11.908370      1.643623      1.390415
   148    -10.937678    -10.924535     -9.639240
   149     -9.983325    -10.377569     -8.123666
   150    -12.100423    -12.190156     -8.786488
   151     -7.993298     -4.958751      1.717952
   152     -7.116111     -3.315477      2.049487
   153     -8.035939     -5.911738      3.295567
   154      9.208137      1.030882    -11.373521
   155     10.722499      1.391808    -10.215723
   156      7.760621      1.211222    -10.223258
   157      8.251106      2.078260      7.356547
   158      9.892603      1.841644      6.157724
   159      8.905032      1.519992      9.006473
   160     -1.253501     -4.891322      5.973377
   161     -2.603425     -3.505421      6.189471
   162     -0.798305     -4.911922      4.087944
   163     -5.694217    -11.372438      7.249762
   164     -6.524198    -12.080322      8.733390
   165     -4.173976    -10.372824      7.718681
   166     -5.814946      4.423305      6.533154
   167     -5.151820      6.137196      6.161832
   168     -5.999990      3.669149      4.856659
   169      2.934244    -10.997068      6.161378
   170      4.218398    -10.927557      7.454618
   171      2.239416    -12.740416      6.653680
   172      5.782209     -5.082895      6.755678
   173      4.708224     -3.671167      7.157948
   174      7.491780     -4.342092      7.040245
   175    -10.257046     -4.072957     -2.628411
   176     -9.513781     -4.704426     -0.921721
   177    -11.264444     -2.620128     -2.138811
 
  MM charges 
  ---------- 
     1     -0.674440
     2      0.337220
     3      0.337220
     4     -0.674440
     5      0.337220
     6      0.337220
     7     -0.674440
     8      0.337220
     9      0.337220
    10     -0.674440
    11      0.337220
    12      0.337220
    13     -0.674440
    14      0.337220
    15      0.337220
    16     -0.674440
    17      0.337220
    18      0.337220
    19     -0.674440
    20      0.337220
    21      0.337220
    22     -0.674440
    23      0.337220
    24      0.337220
    25     -0.674440
    26      0.337220
    27      0.337220
    28     -0.674440
    29      0.337220
    30      0.337220
    31     -0.674440
    32      0.337220
    33      0.337220
    34     -0.674440
    35      0.337220
    36      0.337220
    37     -0.674440
    38      0.337220
    39      0.337220
    40     -0.674440
    41      0.337220
    42      0.337220
    43     -0.674440
    44      0.337220
    45      0.337220
    46     -0.674440
    47      0.337220
    48      0.337220
    49     -0.674440
    50      0.337220
    51      0.337220
    52     -0.674440
    53      0.337220
    54      0.337220
    55     -0.674440
    56      0.337220
    57      0.337220
    58     -0.674440
    59      0.337220
    60      0.337220
    61     -0.674440
    62      0.337220
    63      0.337220
    64     -0.674440
    65      0.337220
    66      0.337220
    67     -0.674440
    68      0.337220
    69      0.337220
    70     -0.674440
    71      0.337220
    72      0.337220
    73     -0.674440
    74      0.337220
    75      0.337220
    76     -0.674440
    77      0.337220
    78      0.337220
    79     -0.674440
    80      0.337220
    81      0.337220
    82     -0.674440
    83      0.337220
    84      0.337220
    85     -0.674440
    86      0.337220
    87      0.337220
    88     -0.674440
    89      0.337220
    90      0.337220
    91     -0.674440
    92      0.337220
    93      0.337220
    94     -0.674440
    95      0.337220
    96      0.337220
    97     -0.674440
    98      0.337220
    99      0.337220
   100     -0.674440
   101      0.337220
   102      0.337220
   103     -0.674440
   104      0.337220
   105      0.337220
   106     -0.674440
   107      0.337220
   108      0.337220
   109     -0.674440
   110      0.337220
   111      0.337220
   112     -0.674440
   113      0.337220
   114      0.337220
   115     -0.674440
   116      0.337220
   117      0.337220
   118     -0.674440
   119      0.337220
   120      0.337220
   121     -0.674440
   122      0.337220
   123      0.337220
   124     -0.674440
   125      0.337220
   126      0.337220
   127     -0.674440
   128      0.337220
   129      0.337220
   130     -0.674440
   131      0.337220
   132      0.337220
   133     -0.674440
   134      0.337220
   135      0.337220
   136     -0.674440
   137      0.337220
   138      0.337220
   139     -0.674440
   140      0.337220
   141      0.337220
   142     -0.674440
   143      0.337220
   144      0.337220
   145     -0.674440
   146      0.337220
   147      0.337220
   148     -0.674440
   149      0.337220
   150      0.337220
   151     -0.674440
   152      0.337220
   153      0.337220
   154     -0.674440
   155      0.337220
   156      0.337220
   157     -0.674440
   158      0.337220
   159      0.337220
   160     -0.674440
   161      0.337220
   162      0.337220
   163     -0.674440
   164      0.337220
   165      0.337220
   166     -0.674440
   167      0.337220
   168      0.337220
   169     -0.674440
   170      0.337220
   171      0.337220
   172     -0.674440
   173      0.337220
   174      0.337220
   175     -0.674440
   176      0.337220
   177      0.337220
 
  MM isotropic polarizabilities in au 
  ----------------------------------- 
     1      5.739350
     2      2.308390
     3      2.308390
     4      5.739350
     5      2.308390
     6      2.308390
     7      5.739350
     8      2.308390
     9      2.308390
    10      5.739350
    11      2.308390
    12      2.308390
    13      5.739350
    14      2.308390
    15      2.308390
    16      5.739350
    17      2.308390
    18      2.308390
    19      5.739350
    20      2.308390
    21      2.308390
    22      5.739350
    23      2.308390
    24      2.308390
    25      5.739350
    26      2.308390
    27      2.308390
    28      5.739350
    29      2.308390
    30      2.308390
    31      5.739350
    32      2.308390
    33      2.308390
    34      5.739350
    35      2.308390
    36      2.308390
    37      5.739350
    38      2.308390
    39      2.308390
    40      5.739350
    41      2.308390
    42      2.308390
    43      5.739350
    44      2.308390
    45      2.308390
    46      5.739350
    47      2.308390
    48      2.308390
    49      5.739350
    50      2.308390
    51      2.308390
    52      5.739350
    53      2.308390
    54      2.308390
    55      5.739350
    56      2.308390
    57      2.308390
    58      5.739350
    59      2.308390
    60      2.308390
    61      5.739350
    62      2.308390
    63      2.308390
    64      5.739350
    65      2.308390
    66      2.308390
    67      5.739350
    68      2.308390
    69      2.308390
    70      5.739350
    71      2.308390
    72      2.308390
    73      5.739350
    74      2.308390
    75      2.308390
    76      5.739350
    77      2.308390
    78      2.308390
    79      5.739350
    80      2.308390
    81      2.308390
    82      5.739350
    83      2.308390
    84      2.308390
    85      5.739350
    86      2.308390
    87      2.308390
    88      5.739350
    89      2.308390
    90      2.308390
    91      5.739350
    92      2.308390
    93      2.308390
    94      5.739350
    95      2.308390
    96      2.308390
    97      5.739350
    98      2.308390
    99      2.308390
   100      5.739350
   101      2.308390
   102      2.308390
   103      5.739350
   104      2.308390
   105      2.308390
   106      5.739350
   107      2.308390
   108      2.308390
   109      5.739350
   110      2.308390
   111      2.308390
   112      5.739350
   113      2.308390
   114      2.308390
   115      5.739350
   116      2.308390
   117      2.308390
   118      5.739350
   119      2.308390
   120      2.308390
   121      5.739350
   122      2.308390
   123      2.308390
   124      5.739350
   125      2.308390
   126      2.308390
   127      5.739350
   128      2.308390
   129      2.308390
   130      5.739350
   131      2.308390
   132      2.308390
   133      5.739350
   134      2.308390
   135      2.308390
   136      5.739350
   137      2.308390
   138      2.308390
   139      5.739350
   140      2.308390
   141      2.308390
   142      5.739350
   143      2.308390
   144      2.308390
   145      5.739350
   146      2.308390
   147      2.308390
   148      5.739350
   149      2.308390
   150      2.308390
   151      5.739350
   152      2.308390
   153      2.308390
   154      5.739350
   155      2.308390
   156      2.308390
   157      5.739350
   158      2.308390
   159      2.308390
   160      5.739350
   161      2.308390
   162      2.308390
   163      5.739350
   164      2.308390
   165      2.308390
   166      5.739350
   167      2.308390
   168      2.308390
   169      5.739350
   170      2.308390
   171      2.308390
   172      5.739350
   173      2.308390
   174      2.308390
   175      5.739350
   176      2.308390
   177      2.308390


     ************************************************************************
     ************************** Output from HERINT **************************
     ************************************************************************



                      Nuclear contribution to dipole moments
                      --------------------------------------

                 au               Debye          C m (/(10**-30)

      x    -21.39949108       -54.39207743      -181.43244093
      y     -3.84930220        -9.78394965       -32.63574311
      z     -6.90691875       -17.55563523       -58.55929582



 Threshold for neglecting two-electron integrals:  1.00D-12
 HERMIT - Number of two-electron integrals written:    27793579 ( 36.1% )
 HERMIT - Megabytes written:                            318.252

  Time used in TWOINT     is       5.35 seconds
  Total CPU  time used in HERMIT:   5.55 seconds
  Total wall time used in HERMIT:   8.28 seconds


                        .----------------------------------.
                        | End of Integral Section (HERMIT) |
                        `----------------------------------'



                   .--------------------------------------------.
                   | Starting in Wave Function Section (SIRIUS) |
                   `--------------------------------------------'

NCCEXCI for singlet:    1
 CCSD_INPUT: core-val requested
 Requested number of virtual orbs per sym
                     1
 Indices of requested virtual orbs
                     1
 CCSD_INPUT: core-val requested
 Requested number of core orbs per sym
                     1
 Indices of requested core orbs
                     1

 *** Output from Huckel module :

     Using EWMO model:          T
     Using EHT  model:          F
     Number of Huckel orbitals each symmetry:   36

 EWMO - Energy Weighted Maximum Overlap - is a Huckel type method,
        which normally is better than Extended Huckel Theory.
 Reference: Linderberg and Ohrn, Propagators in Quantum Chemistry (Wiley, 1973)

 Huckel EWMO eigenvalues for symmetry :  1
          -20.684594     -20.684281     -20.684090     -20.683695     -15.673547
           -1.712488      -1.591532      -1.579405      -1.565919      -1.440727
           -0.812345      -0.805009      -0.777489      -0.773057      -0.733484
           -0.724458      -0.692312      -0.688115      -0.685303      -0.673130
           -0.616113      -0.612303      -0.599752      -0.582868      -0.509778
           -0.261289      -0.249581      -0.243957      -0.231708      -0.189541
           -0.187662      -0.182426      -0.177398      -0.165713      -0.155859
           -0.144874

 **********************************************************************
 *SIRIUS* a direct, restricted step, second order MCSCF program       *
 **********************************************************************

 
     Date and time (Linux)  : Thu Nov 29 11:26:04 2018
     Host name              : n-62-29-7                               

 Title lines from ".mol" input file:
                                                                             
                                                                             

 Print level on unit LUPRI =   2 is   0
 Print level on unit LUW4  =   2 is  11

@    (Integral direct) CC calculation.

@    This is a combination run starting with
@              a restricted, closed shell Hartree-Fock calculation


 Initial molecular orbitals are obtained according to
 ".MOSTART EWMO  " input option

@    QM part is embedded in an environment :

@         Model: QMMM

     Wave function specification
     ============================

     For the specification of the Coupled Cluster: see later.

@    Wave function type        --- CC ---
@    Number of closed shell electrons          50
@    Number of electrons in active shells       0
@    Total charge of the molecule               0

@    Spin multiplicity and 2 M_S                1         0
@    Total number of symmetries                 1 (point group: C1 )
@    Reference state symmetry                   1 (irrep name : A  )

     Orbital specifications
     ======================
@    Abelian symmetry species          All |    1
@                                          |  A  
                                       --- |  ---
@    Occupied SCF orbitals              25 |   25
@    Secondary orbitals                132 |  132
@    Total number of orbitals          157 |  157
@    Number of basis functions         157 |  157

     Optimization information
     ========================
@    Number of configurations                 1
@    Number of orbital rotations           3300
     ------------------------------------------
@    Total number of variables             3301

     Maximum number of Fock   iterations      0
     Maximum number of DIIS   iterations     60
     Maximum number of QC-SCF iterations     60
     Threshold for SCF convergence     1.00D-07


 Changes of defaults for CC:
 ---------------------------


 -Implicit frozen core calculation
 -Excitation energies calculated
 -One-photon absorption strengths will be calculated
 -Oscillator strengths calculated
  
* Read MO coefficients from SIRIUS.RST with label "NEWORB  " and header info: 29Nov18  REORTHO 


 ***********************************************
 ***** DIIS acceleration of SCF iterations *****
 ***********************************************

 C1-DIIS algorithm; max error vectors =    8
 -----------------------------------------------------------------------------

 *** DIIS iteration number    1
 RDSUPM called. NFMAT, ISYMDM(1:NFMAT)                     1
                     1

Calculating AOSUPINT
     (Precalculated two-electron integrals are transformed to P-supermatrix elements.
      Threshold for discarding integrals :  1.00D-12 )
  CPU  time used in FORMSUP    is   3.80 seconds
  WALL time used in FORMSUP    is  24.74 seconds

 ITDIIS, energy, error norm, change in energy, scr.thr., difden:
@ DIIS iter.   1    -359.924500977        3.75647D+00   -3.60D+02  -20    F

 (DIIS_RED) Control Parameters C2DIIS =         F NEVC =    1


 (DIIS_RED) B matrix:

               Column   1
       1      14.11109644
    ==== End of matrix output ====

 DIIS C vector; C2DIIS = F, LAMBDA = -1.41D+01
    1.000000
* Read MO coefficients from SIRIUS.RST with label "NEWORB  " and header info: 29Nov18  DIIS   1
      Virial theorem: -V/T =      1.998093
@      MULPOP N      -0.30; H       0.15; H       0.16; H       0.17; O      -0.63; O      -0.88; O      -0.61; O      -0.63; H       0.31; H       0.33; 
@             H       0.32; H       0.31; H       0.33; H       0.32; H       0.33; H       0.34; 
   1  Level shift: doubly occupied orbital energies shifted by -2.00D-01

 DIIS Fock eigenvalues in symmetry 1
      -20.72566      -20.71933      -20.70878      -20.44110      -15.99650
       -1.55304       -1.54112       -1.53336       -1.43247       -1.37649
       -0.94632       -0.92875       -0.92253       -0.91341       -0.90895
       -0.83166       -0.79725       -0.79472       -0.78727       -0.75878
       -0.74610       -0.74323       -0.70308       -0.63970       -0.59853
        0.00000        0.10666        0.13869        0.14948        0.19499
        0.22279        0.24775        0.24778        0.26191        0.28510
        0.29006        0.39483        0.42400        0.44971        0.51117
        0.52176        0.53470        0.55425        0.56460        0.56927
        0.57755        0.62173        0.65580        0.82114        0.83751
        0.89946        0.93961        0.95442        0.98322        1.01145
        1.02501        1.05079        1.07087        1.08060        1.09242
        1.11319        1.14259        1.17149        1.22007        1.25509
        1.28429        1.32258        1.36530        1.39062        1.42276
        1.45488        1.45886        1.46339        1.49553        1.51062
        1.57690        1.58035        1.61109        1.65313        1.67394
        1.68093        1.71368        1.76417        1.77942        1.81918
        1.83284        1.87315        1.89603        1.92241        2.03009
        2.09229        2.12245        2.14491        2.16831        2.18272
        2.25104        2.27738        2.28852        2.30347        2.41165
        2.43274        2.55473        2.57306        2.59350        2.63953
        2.68745        2.72298        2.76089        2.76924        2.77603
        2.81873        2.86058        2.88255        2.96041        3.09663
        3.29009        3.32251        3.38871        3.39572        3.44844
        3.45306        3.46396        3.48586        3.52682        3.58602
        3.59030        3.59562        3.64996        3.71825        3.93096
        3.95349        3.96229        4.05176        4.15635        4.16935
        4.22759        4.27035        4.49450        4.91621        5.04175
        5.28888        5.36793        5.39664        5.50663        5.68292
        5.73751        5.77950        5.83349        5.98232        6.04613
        6.06101        6.16294       36.74536       51.52196       51.52574
       51.55884       51.81073
 Time used in FCKEIG, thr_jaco:   4.60D-02  6.20D-02  1.63D-04
 CPU and wall times used in FCKEIG, THR_FCKEIG:   4.60D-02  6.20D-02  3.76D-02
 -----------------------------------------------------------------------------

 *** DIIS iteration number    2
 RDSUPM called. NFMAT, ISYMDM(1:NFMAT)                     1
                     1

 ITDIIS, energy, error norm, change in energy, scr.thr., difden:
@ DIIS iter.   2    -360.694514192        9.74053D-01   -7.70D-01  -20    F

 (DIIS_RED) Control Parameters C2DIIS =         F NEVC =    2


 (DIIS_RED) B matrix:

               Column   1     Column   2
       1      14.11109644
       2       0.61081491     0.94877962
    ==== End of matrix output ====

 DIIS C vector; C2DIIS = F, LAMBDA = -9.41D-01
    0.024423    0.975577
* Read MO coefficients from SIRIUS.RST with label "NEWORB  " and header info: 29Nov18  DIIS   2
      Virial theorem: -V/T =      2.005549
@      MULPOP N      -0.64; H       0.22; H       0.25; H       0.23; O      -0.64; O      -0.71; O      -0.57; O      -0.50; H       0.30; H       0.36; 
@             H       0.27; H       0.33; H       0.28; H       0.31; H       0.24; H       0.28; 
   2  Level shift: doubly occupied orbital energies shifted by -1.00D-01

 DIIS Fock eigenvalues in symmetry 1
      -20.71862      -20.69427      -20.69207      -20.67801      -15.52405
       -1.44930       -1.43502       -1.43172       -1.38909       -1.19125
       -0.80272       -0.80075       -0.79078       -0.74958       -0.71271
       -0.70014       -0.69461       -0.69051       -0.67678       -0.66608
       -0.63664       -0.62707       -0.62283       -0.60169       -0.49714
        0.00000        0.14614        0.16862        0.17725        0.23184
        0.23797        0.26010        0.26401        0.29262        0.32155
        0.32979        0.40617        0.48944        0.49654        0.54706
        0.56074        0.56665        0.58763        0.59947        0.60472
        0.61319        0.65763        0.68440        0.91428        0.91898
        0.95590        0.97416        0.98147        0.99595        1.00563
        1.02800        1.05021        1.06808        1.09043        1.10558
        1.12412        1.15453        1.17616        1.27659        1.28870
        1.33479        1.37105        1.42302        1.43806        1.47203
        1.50990        1.51058        1.52321        1.53981        1.55056
        1.56978        1.60782        1.61686        1.70940        1.72457
        1.73105        1.75208        1.83246        1.85065        1.87770
        1.88759        1.93873        1.95325        2.00151        2.08687
        2.15951        2.19545        2.20666        2.22623        2.26758
        2.27520        2.31141        2.34026        2.36800        2.46529
        2.52128        2.62332        2.62829        2.65658        2.72253
        2.72459        2.79846        2.82150        2.82860        2.84891
        2.90217        2.96775        3.02950        3.07636        3.22502
        3.40835        3.40938        3.41063        3.44835        3.46355
        3.47394        3.48585        3.49284        3.49849        3.51477
        3.60971        3.61916        3.62402        3.66551        3.94406
        3.96128        3.97105        3.98419        4.16993        4.18270
        4.19081        4.23707        4.66822        5.14240        5.25963
        5.28862        5.30578        5.36339        5.38610        5.64697
        5.68206        5.72696        5.76350        5.98429        5.99083
        6.06012        6.06281       37.11109       51.43878       51.44982
       51.47596       51.47988
 Time used in FCKEIG, thr_jaco:   3.00D-02  7.70D-02  4.24D-05
 CPU and wall times used in FCKEIG, THR_FCKEIG:   3.00D-02  7.70D-02  9.74D-03
 -----------------------------------------------------------------------------

 *** DIIS iteration number    3
 RDSUPM called. NFMAT, ISYMDM(1:NFMAT)                     1
                     1

 ITDIIS, energy, error norm, change in energy, scr.thr., difden:
@ DIIS iter.   3    -360.755011553        3.79410D-01   -6.05D-02  -20    F

 (DIIS_RED) Control Parameters C2DIIS =         F NEVC =    3


 (DIIS_RED) B matrix:

               Column   1     Column   2     Column   3
       1      14.11109644
       2       0.61081491     0.94877962
       3       0.72830993     0.01618231     0.14395180
    ==== End of matrix output ====

 DIIS C vector; C2DIIS = F, LAMBDA = -1.02D-01
   -0.045756    0.120939    0.924817
* Read MO coefficients from SIRIUS.RST with label "NEWORB  " and header info: 29Nov18  DIIS   3
      Virial theorem: -V/T =      2.002531
@      MULPOP N      -0.57; H       0.18; H       0.23; H       0.20; O      -0.71; O      -0.82; O      -0.62; O      -0.54; H       0.33; H       0.39; 
@             H       0.34; H       0.38; H       0.30; H       0.34; H       0.26; H       0.31; 
   3  Level shift: doubly occupied orbital energies shifted by -5.00D-02

 DIIS Fock eigenvalues in symmetry 1
      -20.60130      -20.60052      -20.59713      -20.50497      -15.59726
       -1.38258       -1.37234       -1.36420       -1.28591       -1.17211
       -0.73707       -0.73464       -0.72268       -0.68115       -0.65890
       -0.64887       -0.62755       -0.62548       -0.62250       -0.57130
       -0.56458       -0.55538       -0.55177       -0.49094       -0.45980
        0.00000        0.15156        0.17410        0.18294        0.23685
        0.24251        0.26588        0.26909        0.29791        0.32318
        0.33040        0.41463        0.49112        0.50281        0.55825
        0.56906        0.57382        0.59844        0.60841        0.61451
        0.62233        0.66992        0.69021        0.91118        0.91809
        0.97040        0.98358        0.99109        1.01193        1.02872
        1.04765        1.06190        1.08567        1.10337        1.11946
        1.13678        1.17731        1.18317        1.28303        1.29759
        1.34413        1.37437        1.43244        1.44506        1.48121
        1.52252        1.52341        1.53649        1.55190        1.56235
        1.59318        1.62194        1.62958        1.71880        1.73571
        1.74268        1.76252        1.83898        1.85597        1.88728
        1.89581        1.94758        1.96319        2.00697        2.09430
        2.17232        2.20194        2.21170        2.23903        2.26839
        2.29270        2.32778        2.35405        2.38555        2.48432
        2.52508        2.63537        2.63989        2.66713        2.72960
        2.73569        2.80729        2.83210        2.83942        2.85795
        2.91027        2.95119        3.01029        3.06995        3.21194
        3.42893        3.43049        3.43471        3.47068        3.48293
        3.49467        3.49738        3.50626        3.52278        3.54039
        3.63505        3.64178        3.68130        3.69063        3.96797
        3.98781        4.00201        4.02492        4.19624        4.21219
        4.24247        4.26231        4.62298        5.09571        5.22004
        5.31140        5.38760        5.39784        5.41956        5.70408
        5.73884        5.75689        5.79417        6.01523        6.08062
        6.08391        6.09446       36.99174       51.49280       51.50361
       51.52334       51.60238
 Time used in FCKEIG, thr_jaco:   3.00D-02  5.80D-02  1.65D-05
 CPU and wall times used in FCKEIG, THR_FCKEIG:   3.00D-02  5.80D-02  3.79D-03
 -----------------------------------------------------------------------------

 *** DIIS iteration number    4
 RDSUPM called. NFMAT, ISYMDM(1:NFMAT)                     1
                     1

 ITDIIS, energy, error norm, change in energy, scr.thr., difden:
@ DIIS iter.   4    -360.764548816        1.11119D-01   -9.54D-03  -20    F

 (DIIS_RED) Control Parameters C2DIIS =         F NEVC =    4


 (DIIS_RED) B matrix:

               Column   1     Column   2     Column   3     Column   4
       1      14.11109644
       2       0.61081491     0.94877962
       3       0.72830993     0.01618231     0.14395180
       4       0.01276206     0.08794087    -0.00561486     0.01234750
    ==== End of matrix output ====

 DIIS C vector; C2DIIS = F, LAMBDA = -4.06D-03
   -0.001000   -0.089935    0.082720    1.008215
* Read MO coefficients from SIRIUS.RST with label "NEWORB  " and header info: 29Nov18  DIIS   4
      Virial theorem: -V/T =      2.003665
@      MULPOP N      -0.63; H       0.19; H       0.25; H       0.22; O      -0.73; O      -0.80; O      -0.63; O      -0.55; H       0.33; H       0.40; 
@             H       0.34; H       0.38; H       0.31; H       0.35; H       0.26; H       0.31; 
   4  Level shift: doubly occupied orbital energies shifted by -2.50D-02

 DIIS Fock eigenvalues in symmetry 1
      -20.58492      -20.57971      -20.57887      -20.52020      -15.54828
       -1.36091       -1.34888       -1.34261       -1.27372       -1.13856
       -0.71328       -0.71153       -0.69992       -0.65312       -0.63543
       -0.61828       -0.60269       -0.60078       -0.59618       -0.55452
       -0.53683       -0.52928       -0.52598       -0.47545       -0.42825
        0.00000        0.15151        0.17346        0.18250        0.23713
        0.24217        0.26534        0.26887        0.29827        0.32612
        0.33272        0.41533        0.49538        0.50490        0.55811
        0.57111        0.57416        0.59878        0.60784        0.61330
        0.62118        0.66790        0.69219        0.91693        0.92266
        0.97304        0.98651        0.99315        1.01257        1.02658
        1.04483        1.06247        1.08475        1.10331        1.11874
        1.13686        1.17380        1.18401        1.28438        1.29750
        1.34543        1.37817        1.43340        1.44715        1.48252
        1.52109        1.52201        1.53518        1.55106        1.56172
        1.58962        1.62006        1.62770        1.71854        1.73477
        1.74182        1.76312        1.84147        1.85814        1.88705
        1.89572        1.94785        1.96411        2.01099        2.09706
        2.17119        2.20681        2.21053        2.23779        2.27440
        2.28701        2.32517        2.35241        2.38291        2.48430
        2.52954        2.63425        2.63887        2.66625        2.73195
        2.73557        2.80839        2.83085        2.84061        2.85830
        2.91189        2.95955        3.01995        3.07623        3.21940
        3.43046        3.43085        3.43705        3.47477        3.47760
        3.49504        3.49898        3.50655        3.52191        3.52835
        3.63338        3.64199        3.67038        3.68904        3.96595
        3.98609        4.00154        4.01505        4.19463        4.21248
        4.23120        4.26112        4.63506        5.10927        5.23261
        5.31075        5.37659        5.38803        5.41308        5.70323
        5.71917        5.75341        5.79113        6.01086        6.06126
        6.08207        6.09021       37.01544       51.48446       51.50044
       51.51570       51.56320
 Time used in FCKEIG, thr_jaco:   2.60D-02  3.30D-02  4.84D-06
 CPU and wall times used in FCKEIG, THR_FCKEIG:   2.60D-02  3.30D-02  1.11D-03
 -----------------------------------------------------------------------------

 *** DIIS iteration number    5
 RDSUPM called. NFMAT, ISYMDM(1:NFMAT)                     1
                     1

 ITDIIS, energy, error norm, change in energy, scr.thr., difden:
@ DIIS iter.   5    -360.765734665        2.49382D-02   -1.19D-03  -20    F

 (DIIS_RED) Control Parameters C2DIIS =         F NEVC =    5


 (DIIS_RED) B matrix:

               Column   1     Column   2     Column   3     Column   4     Column   5
       1      14.11109644
       2       0.61081491     0.94877962
       3       0.72830993     0.01618231     0.14395180
       4       0.01276206     0.08794087    -0.00561486     0.01234750
       5       0.01380148     0.00640640     0.00507243     0.00109596     0.00062191
    ==== End of matrix output ====

 DIIS C vector; C2DIIS = F, LAMBDA = -3.73D-04
    0.001483    0.004735   -0.052210   -0.133463    1.179454
* Read MO coefficients from SIRIUS.RST with label "NEWORB  " and header info: 29Nov18  DIIS   5
      Virial theorem: -V/T =      2.003289
@      MULPOP N      -0.63; H       0.19; H       0.25; H       0.22; O      -0.74; O      -0.82; O      -0.64; O      -0.56; H       0.34; H       0.41; 
@             H       0.35; H       0.39; H       0.31; H       0.35; H       0.27; H       0.32; 

 DIIS Fock eigenvalues in symmetry 1
      -20.55857      -20.55503      -20.55341      -20.48874      -15.51720
       -1.33591       -1.32353       -1.31714       -1.24650       -1.11173
       -0.68848       -0.68674       -0.67486       -0.62699       -0.60915
       -0.59233       -0.57807       -0.57578       -0.57075       -0.52783
       -0.51052       -0.50323       -0.49991       -0.44748       -0.40121
        0.00000        0.15143        0.17329        0.18240        0.23726
        0.24209        0.26540        0.26882        0.29835        0.32659
        0.33303        0.41567        0.49593        0.50513        0.55813
        0.57131        0.57430        0.59892        0.60768        0.61308
        0.62093        0.66801        0.69266        0.91796        0.92363
        0.97407        0.98751        0.99391        1.01292        1.02753
        1.04635        1.06288        1.08537        1.10366        1.11894
        1.13717        1.17455        1.18442        1.28479        1.29790
        1.34583        1.37891        1.43353        1.44769        1.48271
        1.52068        1.52165        1.53500        1.55091        1.56152
        1.59041        1.62011        1.62799        1.71836        1.73440
        1.74164        1.76328        1.84175        1.85839        1.88672
        1.89555        1.94772        1.96425        2.01161        2.09747
        2.17081        2.20709        2.21064        2.23736        2.27525
        2.28718        2.32488        2.35202        2.38255        2.48497
        2.53019        2.63379        2.63846        2.66576        2.73177
        2.73567        2.80812        2.83019        2.84046        2.85812
        2.91157        2.96102        3.02146        3.07736        3.22072
        3.43100        3.43130        3.43877        3.47626        3.47893
        3.49596        3.49993        3.50677        3.52202        3.53053
        3.63375        3.64224        3.67251        3.68888        3.96628
        3.98602        4.00180        4.01718        4.19506        4.21274
        4.23360        4.26094        4.63809        5.11214        5.23537
        5.31132        5.37948        5.38954        5.41368        5.70362
        5.72260        5.75405        5.79095        6.01132        6.06446
        6.08215        6.08991       37.02138       51.48578       51.50090
       51.51548       51.56946
 Time used in FCKEIG, thr_jaco:   2.60D-02  1.34D-01  1.09D-06
 CPU and wall times used in FCKEIG, THR_FCKEIG:   2.60D-02  1.34D-01  2.49D-04
 -----------------------------------------------------------------------------

 *** DIIS iteration number    6
 RDSUPM called. NFMAT, ISYMDM(1:NFMAT)                     1
                     1

 ITDIIS, energy, error norm, change in energy, scr.thr., difden:
@ DIIS iter.   6    -360.765829233        8.88224D-03   -9.46D-05  -20    F

 (DIIS_RED) Control Parameters C2DIIS =         F NEVC =    6


 (DIIS_RED) B matrix:

               Column   1     Column   2     Column   3     Column   4     Column   5     Column   6
       1      14.11109644
       2       0.61081491     0.94877962
       3       0.72830993     0.01618231     0.14395180
       4       0.01276206     0.08794087    -0.00561486     0.01234750
       5       0.01380148     0.00640640     0.00507243     0.00109596     0.00062191
       6      -0.00110044    -0.00044515     0.00068202     0.00025691     0.00007217     0.00007889
    ==== End of matrix output ====

 DIIS C vector; C2DIIS = F, LAMBDA = -4.17D-05
    0.000577    0.008948   -0.019162   -0.106448    0.199538    0.916548
* Read MO coefficients from SIRIUS.RST with label "NEWORB  " and header info: 29Nov18  DIIS   6
      Virial theorem: -V/T =      2.003409
@      MULPOP N      -0.63; H       0.19; H       0.25; H       0.22; O      -0.75; O      -0.83; O      -0.64; O      -0.56; H       0.34; H       0.41; 
@             H       0.35; H       0.39; H       0.31; H       0.35; H       0.27; H       0.32; 

 DIIS Fock eigenvalues in symmetry 1
      -20.55897      -20.55438      -20.55313      -20.49104      -15.52103
       -1.33563       -1.32332       -1.31721       -1.24712       -1.11292
       -0.68848       -0.68664       -0.67503       -0.62784       -0.60995
       -0.59302       -0.57810       -0.57602       -0.57110       -0.52859
       -0.51011       -0.50302       -0.49976       -0.44790       -0.40227
        0.00000        0.15135        0.17323        0.18235        0.23711
        0.24203        0.26526        0.26878        0.29831        0.32641
        0.33282        0.41542        0.49559        0.50490        0.55803
        0.57118        0.57412        0.59875        0.60762        0.61297
        0.62082        0.66773        0.69233        0.91742        0.92307
        0.97416        0.98708        0.99376        1.01295        1.02738
        1.04593        1.06275        1.08529        1.10352        1.11889
        1.13708        1.17419        1.18422        1.28456        1.29773
        1.34578        1.37851        1.43335        1.44733        1.48252
        1.52049        1.52153        1.53485        1.55071        1.56148
        1.59003        1.61980        1.62760        1.71808        1.73432
        1.74147        1.76297        1.84145        1.85800        1.88650
        1.89527        1.94751        1.96396        2.01125        2.09709
        2.17055        2.20675        2.21028        2.23727        2.27458
        2.28669        2.32466        2.35194        2.38253        2.48453
        2.52974        2.63366        2.63830        2.66548        2.73147
        2.73539        2.80782        2.82999        2.84021        2.85785
        2.91129        2.95996        3.02037        3.07654        3.21986
        3.43084        3.43134        3.43785        3.47583        3.47811
        3.49550        3.49932        3.50688        3.52208        3.52978
        3.63360        3.64238        3.67180        3.68909        3.96611
        3.98619        4.00187        4.01643        4.19492        4.21288
        4.23276        4.26119        4.63612        5.11024        5.23357
        5.31157        5.37871        5.38907        5.41379        5.70375
        5.72141        5.75384        5.79126        6.01106        6.06325
        6.08228        6.09018       37.01763       51.48538       51.50117
       51.51608       51.56723
 Time used in FCKEIG, thr_jaco:   2.60D-02  9.00D-02  3.87D-07
 CPU and wall times used in FCKEIG, THR_FCKEIG:   2.60D-02  9.00D-02  8.88D-05
 -----------------------------------------------------------------------------

 *** DIIS iteration number    7
 RDSUPM called. NFMAT, ISYMDM(1:NFMAT)                     1
                     1

 ITDIIS, energy, error norm, change in energy, scr.thr., difden:
@ DIIS iter.   7    -360.765837332        2.57787D-03   -8.10D-06  -20    F

 (DIIS_RED) Control Parameters C2DIIS =         F NEVC =    7


 (DIIS_RED) B matrix:

               Column   1     Column   2     Column   3     Column   4     Column   5     Column   6
       1      14.11109644
       2       0.61081491     0.94877962
       3       0.72830993     0.01618231     0.14395180
       4       0.01276206     0.08794087    -0.00561486     0.01234750
       5       0.01380148     0.00640640     0.00507243     0.00109596     0.00062191
       6      -0.00110044    -0.00044515     0.00068202     0.00025691     0.00007217     0.00007889
       7       0.00051988    -0.00009181     0.00009763     0.00000167     0.00004137     0.00000089

               Column   7
       7       0.00000665
    ==== End of matrix output ====

 DIIS C vector; C2DIIS = F, LAMBDA = -1.60D-06
   -0.000235   -0.001365    0.007465    0.028015   -0.163033   -0.010151    1.139304
* Read MO coefficients from SIRIUS.RST with label "NEWORB  " and header info: 29Nov18  DIIS   7
      Virial theorem: -V/T =      2.003388
@      MULPOP N      -0.63; H       0.19; H       0.25; H       0.22; O      -0.75; O      -0.83; O      -0.65; O      -0.56; H       0.34; H       0.42; 
@             H       0.36; H       0.39; H       0.31; H       0.36; H       0.27; H       0.32; 

 DIIS Fock eigenvalues in symmetry 1
      -20.55896      -20.55462      -20.55324      -20.49038      -15.52041
       -1.33565       -1.32329       -1.31717       -1.24681       -1.11270
       -0.68850       -0.68668       -0.67503       -0.62769       -0.60977
       -0.59296       -0.57821       -0.57610       -0.57113       -0.52841
       -0.51004       -0.50297       -0.49969       -0.44755       -0.40203
        0.00000        0.15137        0.17324        0.18236        0.23716
        0.24204        0.26529        0.26879        0.29834        0.32645
        0.33286        0.41552        0.49568        0.50495        0.55807
        0.57122        0.57416        0.59881        0.60763        0.61297
        0.62081        0.66780        0.69241        0.91752        0.92316
        0.97424        0.98719        0.99380        1.01295        1.02748
        1.04611        1.06279        1.08534        1.10357        1.11893
        1.13709        1.17431        1.18428        1.28460        1.29781
        1.34583        1.37860        1.43337        1.44742        1.48256
        1.52045        1.52152        1.53484        1.55071        1.56147
        1.59019        1.61988        1.62771        1.71808        1.73432
        1.74150        1.76305        1.84151        1.85807        1.88649
        1.89530        1.94752        1.96401        2.01133        2.09721
        2.17053        2.20678        2.21030        2.23726        2.27469
        2.28677        2.32463        2.35193        2.38248        2.48469
        2.52980        2.63364        2.63828        2.66545        2.73150
        2.73544        2.80780        2.82997        2.84021        2.85786
        2.91141        2.96015        3.02056        3.07670        3.22001
        3.43087        3.43136        3.43805        3.47600        3.47827
        3.49560        3.49942        3.50689        3.52207        3.53007
        3.63363        3.64240        3.67210        3.68906        3.96612
        3.98615        4.00189        4.01671        4.19495        4.21289
        4.23308        4.26115        4.63649        5.11055        5.23387
        5.31155        5.37900        5.38918        5.41377        5.70374
        5.72181        5.75385        5.79117        6.01107        6.06365
        6.08226        6.09009       37.01823       51.48539       51.50107
       51.51585       51.56787
 Time used in FCKEIG, thr_jaco:   3.10D-02  7.30D-02  1.12D-07
 CPU and wall times used in FCKEIG, THR_FCKEIG:   3.10D-02  7.30D-02  2.58D-05
 -----------------------------------------------------------------------------

 *** DIIS iteration number    8
 RDSUPM called. NFMAT, ISYMDM(1:NFMAT)                     1
                     1

 ITDIIS, energy, error norm, change in energy, scr.thr., difden:
@ DIIS iter.   8    -360.765838097        4.18935D-04   -7.65D-07  -20    F

 (DIIS_RED) Control Parameters C2DIIS =         F NEVC =    8


 (DIIS_RED) B matrix:

               Column   1     Column   2     Column   3     Column   4     Column   5     Column   6
       1      14.11109644
       2       0.61081491     0.94877962
       3       0.72830993     0.01618231     0.14395180
       4       0.01276206     0.08794087    -0.00561486     0.01234750
       5       0.01380148     0.00640640     0.00507243     0.00109596     0.00062191
       6      -0.00110044    -0.00044515     0.00068202     0.00025691     0.00007217     0.00007889
       7       0.00051988    -0.00009181     0.00009763     0.00000167     0.00004137     0.00000089
       8       0.00012431     0.00000318    -0.00000162     0.00000350     0.00000125     0.00000169

               Column   7     Column   8
       7       0.00000665
       8       0.00000040     0.00000018
    ==== End of matrix output ====

 DIIS C vector; C2DIIS = F, LAMBDA = -1.12D-07
   -0.000013   -0.000132    0.000013    0.000520    0.009342   -0.032871   -0.105109    1.128251
* Read MO coefficients from SIRIUS.RST with label "NEWORB  " and header info: 29Nov18  DIIS   8
      Virial theorem: -V/T =      2.003401
@      MULPOP N      -0.63; H       0.19; H       0.25; H       0.22; O      -0.75; O      -0.83; O      -0.65; O      -0.56; H       0.34; H       0.42; 
@             H       0.36; H       0.39; H       0.31; H       0.36; H       0.27; H       0.32; 

 DIIS Fock eigenvalues in symmetry 1
      -20.55893      -20.55450      -20.55318      -20.49043      -15.52041
       -1.33561       -1.32326       -1.31716       -1.24683       -1.11270
       -0.68848       -0.68664       -0.67501       -0.62769       -0.60977
       -0.59296       -0.57821       -0.57611       -0.57113       -0.52843
       -0.51002       -0.50294       -0.49967       -0.44755       -0.40204
        0.00000        0.15137        0.17324        0.18236        0.23716
        0.24204        0.26529        0.26879        0.29835        0.32645
        0.33286        0.41552        0.49568        0.50495        0.55807
        0.57123        0.57417        0.59881        0.60763        0.61297
        0.62082        0.66780        0.69241        0.91752        0.92316
        0.97425        0.98719        0.99380        1.01296        1.02749
        1.04611        1.06280        1.08535        1.10358        1.11895
        1.13710        1.17431        1.18429        1.28461        1.29781
        1.34584        1.37860        1.43337        1.44742        1.48256
        1.52045        1.52152        1.53484        1.55071        1.56148
        1.59018        1.61988        1.62771        1.71808        1.73432
        1.74150        1.76305        1.84150        1.85806        1.88649
        1.89530        1.94752        1.96401        2.01133        2.09719
        2.17052        2.20679        2.21031        2.23726        2.27468
        2.28677        2.32463        2.35193        2.38250        2.48467
        2.52980        2.63364        2.63828        2.66545        2.73150
        2.73543        2.80780        2.82997        2.84020        2.85786
        2.91138        2.96014        3.02056        3.07669        3.22000
        3.43088        3.43137        3.43805        3.47600        3.47827
        3.49561        3.49942        3.50691        3.52210        3.53006
        3.63364        3.64242        3.67208        3.68910        3.96612
        3.98618        4.00190        4.01669        4.19496        4.21291
        4.23306        4.26120        4.63648        5.11054        5.23387
        5.31158        5.37899        5.38919        5.41382        5.70376
        5.72178        5.75387        5.79123        6.01109        6.06362
        6.08229        6.09015       37.01824       51.48543       51.50112
       51.51597       51.56783
 Time used in FCKEIG, thr_jaco:   2.30D-02  3.20D-02  1.82D-08
 CPU and wall times used in FCKEIG, THR_FCKEIG:   2.30D-02  3.20D-02  4.19D-06
 -----------------------------------------------------------------------------

 *** DIIS iteration number    9
 RDSUPM called. NFMAT, ISYMDM(1:NFMAT)                     1
                     1

 ITDIIS, energy, error norm, change in energy, scr.thr., difden:
@ DIIS iter.   9    -360.765838119        1.43861D-04   -2.21D-08  -20    F

 (DIIS_RED) Control Parameters C2DIIS =         F NEVC =    8


 (DIIS_RED) B matrix:

               Column   1     Column   2     Column   3     Column   4     Column   5     Column   6
       1       0.00000002
       2      -0.00000307     0.94877962
       3      -0.00000161     0.01618231     0.14395180
       4       0.00000035     0.08794087    -0.00561486     0.01234750
       5       0.00000006     0.00640640     0.00507243     0.00109596     0.00062191
[...]
 | 1 1 1 1 |  12   1  21   1 |     2652        1 |      3515227 |   -0.128497  |
 | 1 1 1 1 |  24   1  21   1 |     2664        1 |      3547117 |    0.072846  |
 | 1 1 1 1 |  25   1  21   1 |     2665        1 |      3549781 |    0.153125  |
 | 1 1 1 1 |  28   1  21   1 |     2668        1 |      3557779 |   -0.087397  |
 | 1 1 1 1 | 113   1  21   1 |     2753        1 |      3788129 |    0.096260  |
 +=============================================================================+


          Norm of Printed Amplitude Vector :             0.8406

          Printed all single excitations greater than 0.377497

          Printed all double excitations greater than 0.065573



+======================================================================+
| contributions of excitation levels to right eigenvectors as computed |
| from the (RE|RE) self overlap                                        |
+----------------------------------------------------------------------+
| sym | multi | state |    E / eV  | % singles | % doubles | % triples |
+======================================================================+
|    1|   1   |   1   |  406.08532 |  88.0491  |  11.9509  |   0.0000  |
+======================================================================+





+======================================================================+
| contributions of excitation levels to excited states as computed     |
| from the (LE|RE) overlap                                             |
+----------------------------------------------------------------------+
| sym | multi | state |    E / eV  | % singles | % doubles | % triples |
+======================================================================+
|    1|   1   |   1   |  406.08532 |  78.6250  |  21.3750  |   0.0000  |
+======================================================================+



 --------------------------
 Symmetry class Nr.:     1
 Multiplicity      :     3
 --------------------------

 Length of Excitation vectors in this class is:   7689528
 No Excitation Energies calculated in this symmetry class
     

   *******************************************************************
   *                                                                 *
   *--------   OUTPUT FROM PROPERTY AND SYMMETRY ANALYSIS   ---------*
   *                                                                 *
   *******************************************************************



                         +-------------------------------+
                         ! REQUESTED PROPERTY OPERATORS: !
                         +-------------------------------+

             Index   Oper. Label  Symmetry  Transp.  PDBS  Atom
             --------------------------------------------------
                1     HAM0            1        1      T      0
                2     XDIPLEN         1        1      F      0
                3     YDIPLEN         1        1      F      0
                4     ZDIPLEN         1        1      F      0
             --------------------------------------------------




                         +-------------------------------+
                         ! REQUESTED EXPECTATION VALUES: !
                         +-------------------------------+

                       Index   Oper. Label  Symmetry
                       -----------------------------
                       -----------------------------




                       +------------------------------------+
                       ! REQUESTED EFFECTIVE FOCK MATRICES: !
                       +------------------------------------+

                       Index   Oper. Label  Symmetry
                       -----------------------------
                       -----------------------------




                        +----------------------------------+
                        ! REQUESTED FIRST ORDER M-VECTORS: !
                        +----------------------------------+

               Index   State Symmetry  Frequency
               --------------------------------------------------
                  1             1    1     1.492336D+01
               --------------------------------------------------


      

    *******************************************************************
    *          SOLVING COUPLED CLUSTER RESPONSE EQUATIONS             *
    *******************************************************************



 
 +======================================================================+
 !                     RHS & ETA VECTORS TO COMPUTE:                    !
 +======================================================================+
 | TYPE | # VEC. |  NEEDED FOR:                                         |
 +----------------------------------------------------------------------+
 +======================================================================+



 +======================================================================+
 !                       LINEAR EQUATIONS TO SOLVE:                     !
 +======================================================================+
 | TYPE | # VEC. |  EQUATION:                                           |
 +----------------------------------------------------------------------+
 |  M1  |    1   |  first-order ground - excited state multipliers      |
 +======================================================================+



 +======================================================================+
 !                F MATRIX TRANSFORMATIONS TO COMPUTE:                  !
 +======================================================================+
 | TYPE | # VEC. |  TRANSFORMED:                                        |
 +----------------------------------------------------------------------+
 |  FR  |    1   |  right eigenvectors (RE)                             |
 +======================================================================+





 Testing R1 list: 

 List nr.  Label     Symmetry      Frequency      T1-norm        T2-norm


 Testing L1 list: 

 List nr.  Label     Symmetry      Frequency      T1-norm        T2-norm
  Solvent 1-order response equations converged in                     0 
  solvent iterations
 SONIAPRI                     0
 CCEQ_STR: CVSEPARATION =  T
 CCEQ_STR: IONIZATION =  T
 CCEQ_STR: REMOVE_CORE =  F
 could not find required file CCM1_1___1
 IOPTSV is    33 ... program continues nevertheless.
 Vector nr.  1 of type M1  and symmetry  1 was not found on file.
     M1  start vector nr.  1 of symmetry  1 generated from gradient
 CCEQ_STR: freeze VALENCE OR VIRT
 CCEQ_SOL: CVSEPARA=     T
 CCEQ_SOL: LIONISAT=     T
 CCEQ_SOL: REMOVE_CORE =  F



 ----- COUPLED CLUSTER RESPONSE SOLVER -----

    Iter  #Vectors  time (min)   residual
    --------------------------------------
 CCRED CVS/IONIS sigma_                     1 
 project out valence occupied or virtual
      1       1         1.60     0.35E+00
 CCRED CVS/IONIS sigma_                     2 
 project out valence occupied or virtual
      2       1         1.99     0.75E-01
 CCRED CVS/IONIS sigma_                     3 
 project out valence occupied or virtual
                    -1  vectors with norm le:  1.000000000000000E-035  REMOVED

 CCORT,**WARNING**  number vectors added is zero after check for vector norm , NBADD :    0

 CCORT, number vectors added is zero , NBADD :    0

 CCORT, number vectors added is zero , NBADD :    0

 CCORT, number vectors added is zero , NBADD :    0

 *** MICROITERATIONS STOPPED DUE TO LINEAR DEPENDENCE BETWEEN ALL NEW TRIAL VECTORS
                     0  trial vectors converged
  LINEAR DEPENDENCE BETWEEN                     1  NON CONVERGED TRIAL VECTORS
      3       1         2.00     0.80E-02

 ***  CCEQ_SOL -MICROITERATIONS STOPPED  
     LINEAR DEPENDENCE BETWEEN ALL NEW TRIAL VECTORS
    --------------------------------------
    converged in  3 iterations
    threshold:    0.10E-08


         Routine          Time (min)
         ---------------------------
         CC_TRDRV            5.58
         CCRED               0.03
         CCNEX               0.05
         ---------------------------
         Total time          5.66


  Total CPU  time used in CCEQ_SOLV:  5 minutes 40 seconds
  Total wall time used in CCEQ_SOLV: 12 minutes  7 seconds


 xxxxxxxxxxxxxxxxxxxxxxxxxxxxxxxxxxxxx

 
 Solution of CC response equations completed.
 

 *******************************************************************
 *                                                                 *
 *--------  OUTPUT FROM COUPLED CLUSTER LINEAR RESPONSE   ---------*
 *                                                                 *
 *--------      CALCULATION OF SECOND ORDER RESIDUES      ---------*
 *                                                                 *
 *******************************************************************



                  +---------------------------------------------+
                  ! CC_SOPR: Calculation of CCSD       Residues !
                  +---------------------------------------------+

 Doing the Mf*CsiA
 Doing the Mf*CsiA
 Doing the Mf*CsiA


 CCSD  Right transition moments in atomic units:
 -----------------------------------------------

  1      14.923361  <XDIPLEN |f> =       0.00000000
  1      14.923361  <YDIPLEN |f> =       0.00000000
  1      14.923361  <ZDIPLEN |f> =      -0.00000002


 CCSD  Left  transition moments in atomic units:
 -----------------------------------------------

  1      14.923361  <f|XDIPLEN > =       0.00000000
  1      14.923361  <f|YDIPLEN > =       0.00000000
  1      14.923361  <f|ZDIPLEN > =      -0.00000001


 CCSD  linear response residue property in atomic units:
 -------------------------------------------------------

 RES{<<XDIPLEN ,XDIPLEN >>(14.923361)} =     0.00000000 (   0.00000000)
 RES{<<XDIPLEN ,YDIPLEN >>(14.923361)} =     0.00000000 (   0.00000000)
 RES{<<XDIPLEN ,ZDIPLEN >>(14.923361)} =    -0.00000000 (  -0.00000000)
 RES{<<YDIPLEN ,XDIPLEN >>(14.923361)} =     0.00000000 (   0.00000000)
 RES{<<YDIPLEN ,YDIPLEN >>(14.923361)} =     0.00000000 (   0.00000000)
 RES{<<YDIPLEN ,ZDIPLEN >>(14.923361)} =    -0.00000000 (  -0.00000000)
 RES{<<ZDIPLEN ,XDIPLEN >>(14.923361)} =    -0.00000000 (  -0.00000000)
 RES{<<ZDIPLEN ,YDIPLEN >>(14.923361)} =    -0.00000000 (  -0.00000000)
 RES{<<ZDIPLEN ,ZDIPLEN >>(14.923361)} =     0.00000000 (   0.00000001)


 CCSD  Transition strength matrix for state nr.  1 of symmetry 1
 CCSD  excitation energy:14.92336147

 Gauge: length

               Column   1     Column   2     Column   3
       1     4.179265D-19   2.705313D-19  -7.036379D-18
       2     2.705313D-19   1.750170D-19  -4.557436D-18
       3    -7.036379D-18  -4.557436D-18   1.183985D-16
    ==== End of matrix output ====

 Principal values of diagonalized transition strength matrix:

             a.u.               
 1       0.00000000
 2       0.00000000
 3       0.00000000

 Principal axis of diagonalized transition strength matrix:


               Column   1     Column   2     Column   3
       1       1.00000000     0.00000000     0.00000000
       2       0.00000000     1.00000000     0.00000000
       3       0.00000000     0.00000000     1.00000000
    ==== End of matrix output ====


 CCSD   oscillator strength matrix for state nr.  1 of symmetry 1
 CCSD  excitation energy:14.92336147


               Column   1     Column   2     Column   3
       1     4.157912D-18   2.691491D-18  -7.000429D-17
       2     2.691491D-18   1.741228D-18  -4.534151D-17
       3    -7.000429D-17  -4.534151D-17   1.177935D-15
    ==== End of matrix output ====

 Principal values of diagonalized oscillator strength matrix:

             a.u.               
 1       0.00000000
 2       0.00000000
 3       0.00000000

 Principal axis of diagonalized oscillator strength matrix:


               Column   1     Column   2     Column   3
       1       1.00000000     0.00000000     0.00000000
       2       0.00000000     1.00000000     0.00000000
       3       0.00000000     0.00000000     1.00000000
    ==== End of matrix output ====

  Total time for      9 linear response residues:       4.22 seconds.
  

 *******************************************************************************
 *******************************************************************************
 *                                                                             *
 *                                                                             *
 *                   SUMMARY OF COUPLED CLUSTER CALCULATION                    *
 *                                                                             *
 *                                                                             *
 *******************************************************************************
 *******************************************************************************

                                                                                
                                                                                
            Total SCF   energy:                  -360.7658381214                
            Total MP2   energy:                  -361.8764415108                
            Total CCSD  energy:                  -361.9152521192                
                                                                                
                                                                                
            Total SCF   energy:                  -360.7658381214                
            Total RSTAR energy:                  -361.9152521192                
            Total CCSD  energy:                  -361.9154147588                
                                                                                
                                                                                
            Total SCF   energy:                  -360.7658381214                
            Total RSTAR energy:                  -361.9154147588                
            Total CCSD  energy:                  -361.9154175765                
                                                                                
                                                                                
            Total SCF   energy:                  -360.7658381214                
            Total RSTAR energy:                  -361.9154175765                
            Total CCSD  energy:                  -361.9154177740                
                                                                                
                                                                                
            Total SCF   energy:                  -360.7658381214                
            Total RSTAR energy:                  -361.9154177740                
            Total CCSD  energy:                  -361.9154177864                
                                                                                
                                                                                
            Total SCF   energy:                  -360.7658381214                
            Total RSTAR energy:                  -361.9154177864                
            Total CCSD  energy:                  -361.9154177872                
                                                                                
                                                                                
            Total SCF   energy:                  -360.7658381214                
            Total RSTAR energy:                  -361.9154177872                
            Total CCSD  energy:                  -361.9154177872                
            CCSD Total  energy:                  -362.3408285707                
            CCSD E(QM/MM)     :                    -0.4200232434                
                                                                                
                                                                                
                                                                                
 +=============================================================================+
 |  sym. | Exci.  |        CCSD       Excitation energies            | ||T1||  |
 |(spin, |        +------------------------------------------------------------+
 | spat) |        |     Hartree    |       eV.      |     cm-1       |    %    |
 +=============================================================================+
 | ^1A   |    1   |    14.9233615  |     406.08532  |   3275299.226  |  88.05  |
 +=============================================================================+
                                                                                
                                                                                
     Total energies in Hartree:                                                 
             1 ^1A       -346.9974438609                                        
                                                                                
                                                                                
 +=============================================================================+
 |  sym. | Exci.  |        CCSD       Length   Gauge Oscillator Strength       |
 |(spin, |        +------------------------------------------------------------+
 | spat) |        | Dipole Strength(a.u.) | Oscillator strength  | Direction   |
 +=============================================================================+
 | ^1A   |    1   |        0.0000000      |      0.0000000       |    -        |
 +=============================================================================+

  1 a.u. =        27.21138 eV.  
  1 a.u. =    219474.62934 cm-1.
  

 *******************************************************************************
 *******************************************************************************
 *                                                                             *
 *                                                                             *
 *                      END OF COUPLED CLUSTER CALCULATION                     *
 *                                                                             *
 *                                                                             *
 *******************************************************************************
 *******************************************************************************


 CPU and wall time for CC :    7904.481   12021.195

 
     Date and time (Linux)  : Thu Nov 29 14:50:48 2018
     Host name              : n-62-29-7                               


                      .-------------------------------------.
                      | End of Coupled Cluster Section (CC) |
                      `-------------------------------------'

  Total CPU  time used in DALTON:   2 hours 13 minutes 51 seconds
  Total wall time used in DALTON:   3 hours 24 minutes 54 seconds

 
     Date and time (Linux)  : Thu Nov 29 14:50:48 2018
     Host name              : n-62-29-7                               
  

 +---------------------------------------------------------+ 
 | List of selected calculated molecular properties (a.u.) | 
 +---------------------------------------------------------+ 

  Properties are read from unit number                      4

 CCSD       properties :
 #  1 1 CCSD/MM  Ground state Energy =    -362.3408285707
 #  2 1 E_QM/MM  Ground state Energy =      -0.4200232434
 #  3 1 Sy: 1 Sp: 1 Exc:  1 E_tot:   -346.9974438609 w:     14.9233614664 E_grs:   -361.9208053273
 #  4 1 Exctot   Excited state Energy =    -346.9974438609
 #  5 1 |<O|XDIPLEN |i(14.923361)>| =     0.00000000
 #  7 1 |<O|YDIPLEN |i(14.923361)>| =     0.00000000
 #  9 1 |<O|ZDIPLEN |i(14.923361)>| =     0.00000001

 THE_END   
