

     ************************************************************************
     *************** Dalton - An Electronic Structure Program ***************
     ************************************************************************

    This is output from DALTON release Dalton2017.alpha (2016)
         ( Web site: http://daltonprogram.org )

   ----------------------------------------------------------------------------

    NOTE:
     
    Dalton is an experimental code for the evaluation of molecular
    properties using (MC)SCF, DFT, CI, and CC wave functions.
    The authors accept no responsibility for the performance of
    the code or for the correctness of the results.
     
    The code (in whole or part) is provided under a licence and
    is not to be reproduced for further distribution without
    the written permission of the authors or their representatives.
     
    See the home page "http://daltonprogram.org" for further information.
     
    If results obtained with this code are published,
    the appropriate citations would be both of:
     
       K. Aidas, C. Angeli, K. L. Bak, V. Bakken, R. Bast,
       L. Boman, O. Christiansen, R. Cimiraglia, S. Coriani,
       P. Dahle, E. K. Dalskov, U. Ekstroem,
       T. Enevoldsen, J. J. Eriksen, P. Ettenhuber, B. Fernandez,
       L. Ferrighi, H. Fliegl, L. Frediani, K. Hald, A. Halkier,
       C. Haettig, H. Heiberg, T. Helgaker, A. C. Hennum,
       H. Hettema, E. Hjertenaes, S. Hoest, I.-M. Hoeyvik,
       M. F. Iozzi, B. Jansik, H. J. Aa. Jensen, D. Jonsson,
       P. Joergensen, J. Kauczor, S. Kirpekar,
       T. Kjaergaard, W. Klopper, S. Knecht, R. Kobayashi, H. Koch,
       J. Kongsted, A. Krapp, K. Kristensen, A. Ligabue,
       O. B. Lutnaes, J. I. Melo, K. V. Mikkelsen, R. H. Myhre,
       C. Neiss, C. B. Nielsen, P. Norman, J. Olsen,
       J. M. H. Olsen, A. Osted, M. J. Packer, F. Pawlowski,
       T. B. Pedersen, P. F. Provasi, S. Reine, Z. Rinkevicius,
       T. A. Ruden, K. Ruud, V. Rybkin, P. Salek, C. C. M. Samson,
       A. Sanchez de Meras, T. Saue, S. P. A. Sauer,
       B. Schimmelpfennig, K. Sneskov, A. H. Steindal,
       K. O. Sylvester-Hvid, P. R. Taylor, A. M. Teale,
       E. I. Tellgren, D. P. Tew, A. J. Thorvaldsen, L. Thoegersen,
       O. Vahtras, M. A. Watson, D. J. D. Wilson, M. Ziolkowski
       and H. Agren,
       "The Dalton quantum chemistry program system",
       WIREs Comput. Mol. Sci. 2014, 4:269–284 (doi: 10.1002/wcms.1172)
     
    and
     
       Dalton, a Molecular Electronic Structure Program,
       Release Dalton2017.alpha (2016), see http://daltonprogram.org
   ----------------------------------------------------------------------------

    Authors in alphabetical order (major contribution(s) in parenthesis):

  Kestutis Aidas,           Vilnius University,           Lithuania   (QM/MM)
  Celestino Angeli,         University of Ferrara,        Italy       (NEVPT2)
  Keld L. Bak,              UNI-C,                        Denmark     (AOSOPPA, non-adiabatic coupling, magnetic properties)
  Vebjoern Bakken,          University of Oslo,           Norway      (DALTON; geometry optimizer, symmetry detection)
  Radovan Bast,             UiT The Arctic U. of Norway,  Norway      (DALTON installation and execution frameworks)
  Pablo Baudin,             University of Valencia,       Spain       (Cholesky excitation energies)
  Linus Boman,              NTNU,                         Norway      (Cholesky decomposition and subsystems)
  Ove Christiansen,         Aarhus University,            Denmark     (CC module)
  Renzo Cimiraglia,         University of Ferrara,        Italy       (NEVPT2)
  Sonia Coriani,            University of Trieste,        Italy       (CC module, MCD in RESPONS)
  Janusz Cukras,            University of Trieste,        Italy       (MChD in RESPONS)
  Paal Dahle,               University of Oslo,           Norway      (Parallelization)
  Erik K. Dalskov,          UNI-C,                        Denmark     (SOPPA)
  Thomas Enevoldsen,        Univ. of Southern Denmark,    Denmark     (SOPPA)
  Janus J. Eriksen,         Aarhus University,            Denmark     (Polarizable embedding model, TDA)
  Rasmus Faber,             University of Copenhagen,     Denmark     (Vib.avg. NMR with SOPPA, parallel AO-SOPPA)
  Berta Fernandez,          U. of Santiago de Compostela, Spain       (doublet spin, ESR in RESPONS)
  Lara Ferrighi,            Aarhus University,            Denmark     (PCM Cubic response)
  Heike Fliegl,             University of Oslo,           Norway      (CCSD(R12))
  Luca Frediani,            UiT The Arctic U. of Norway,  Norway      (PCM)
  Bin Gao,                  UiT The Arctic U. of Norway,  Norway      (Gen1Int library)
  Christof Haettig,         Ruhr-University Bochum,       Germany     (CC module)
  Kasper Hald,              Aarhus University,            Denmark     (CC module)
  Asger Halkier,            Aarhus University,            Denmark     (CC module)
  Frederik Beyer Hansen,    University of Copenhagen,     Denmark     (Parallel AO-SOPPA)
  Erik D. Hedegaard,        Univ. of Southern Denmark,    Denmark     (Polarizable embedding model, QM/MM)
  Hanne Heiberg,            University of Oslo,           Norway      (geometry analysis, selected one-electron integrals)
  Trygve Helgaker,          University of Oslo,           Norway      (DALTON; ABACUS, ERI, DFT modules, London, and much more)
  Alf Christian Hennum,     University of Oslo,           Norway      (Parity violation)
  Hinne Hettema,            University of Auckland,       New Zealand (quadratic response in RESPONS; SIRIUS supersymmetry)
  Eirik Hjertenaes,         NTNU,                         Norway      (Cholesky decomposition)
  Pi A. B. Haase,           University of Copenhagen,     Denmark     (Triplet AO-SOPPA)
  Maria Francesca Iozzi,    University of Oslo,           Norway      (RPA)
  Brano Jansik              Technical Univ. of Ostrava    Czech Rep.  (DFT cubic response)
  Hans Joergen Aa. Jensen,  Univ. of Southern Denmark,    Denmark     (DALTON; SIRIUS, RESPONS, ABACUS modules, London, and much more)
  Dan Jonsson,              UiT The Arctic U. of Norway,  Norway      (cubic response in RESPONS module)
  Poul Joergensen,          Aarhus University,            Denmark     (RESPONS, ABACUS, and CC modules)
  Maciej Kaminski,          University of Warsaw,         Poland      (CPPh in RESPONS)
  Joanna Kauczor,           Linkoeping University,        Sweden      (Complex polarization propagator (CPP) module)
  Sheela Kirpekar,          Univ. of Southern Denmark,    Denmark     (Mass-velocity & Darwin integrals)
  Wim Klopper,              KIT Karlsruhe,                Germany     (R12 code in CC, SIRIUS, and ABACUS modules)
  Stefan Knecht,            ETH Zurich,                   Switzerland (Parallel CI and MCSCF)
  Rika Kobayashi,           Australian National Univ.,    Australia   (DIIS in CC, London in MCSCF)
  Henrik Koch,              NTNU,                         Norway      (CC module, Cholesky decomposition)
  Jacob Kongsted,           Univ. of Southern Denmark,    Denmark     (Polarizable embedding model, QM/MM)
  Andrea Ligabue,           University of Modena,         Italy       (CTOCD, AOSOPPA)
  Nanna H. List             Univ. of Southern Denmark,    Denmark     (Polarizable embedding model)
  Ola B. Lutnaes,           University of Oslo,           Norway      (DFT Hessian)
  Juan I. Melo,             University of Buenos Aires,   Argentina   (LRESC, Relativistic Effects on NMR Shieldings)
  Kurt V. Mikkelsen,        University of Copenhagen,     Denmark     (MC-SCRF and QM/MM)
  Rolf H. Myhre,            NTNU,                         Norway      (Cholesky, subsystems and ECC2)
  Christian Neiss,          Univ. Erlangen-Nuernberg,     Germany     (CCSD(R12))
  Christian B. Nielsen,     University of Copenhagen,     Denmark     (QM/MM)
  Patrick Norman,           Linkoeping University,        Sweden      (Cubic response and complex frequency response in RESPONS)
  Jeppe Olsen,              Aarhus University,            Denmark     (SIRIUS CI/density modules)
  Jogvan Magnus H. Olsen,   Univ. of Southern Denmark,    Denmark     (Polarizable embedding model, QM/MM)
  Anders Osted,             Copenhagen University,        Denmark     (QM/MM)
  Martin J. Packer,         University of Sheffield,      UK          (SOPPA)
  Filip Pawlowski,          Kazimierz Wielki University,  Poland      (CC3)
  Morten N. Pedersen,       Univ. of Southern Denmark,    Denmark     (Polarizable embedding model)
  Thomas B. Pedersen,       University of Oslo,           Norway      (Cholesky decomposition)
  Patricio F. Provasi,      University of Northeastern,   Argentina   (Analysis of coupling constants in localized orbitals)
  Zilvinas Rinkevicius,     KTH Stockholm,                Sweden      (open-shell DFT, ESR)
  Elias Rudberg,            KTH Stockholm,                Sweden      (DFT grid and basis info)
  Torgeir A. Ruden,         University of Oslo,           Norway      (Numerical derivatives in ABACUS)
  Kenneth Ruud,             UiT The Arctic U. of Norway,  Norway      (DALTON; ABACUS magnetic properties and much more)
  Pawel Salek,              KTH Stockholm,                Sweden      (DALTON; DFT code)
  Claire C. M. Samson       University of Karlsruhe       Germany     (Boys localization, r12 integrals in ERI)
  Alfredo Sanchez de Meras, University of Valencia,       Spain       (CC module, Cholesky decomposition)
  Trond Saue,               Paul Sabatier University,     France      (direct Fock matrix construction)
  Stephan P. A. Sauer,      University of Copenhagen,     Denmark     (SOPPA(CCSD), SOPPA prop., AOSOPPA, vibrational g-factors)
  Bernd Schimmelpfennig,    Forschungszentrum Karlsruhe,  Germany     (AMFI module)
  Kristian Sneskov,         Aarhus University,            Denmark     (Polarizable embedding model, QM/MM)
  Arnfinn H. Steindal,      UiT The Arctic U. of Norway,  Norway      (parallel QM/MM, Polarizable embedding model)
  Casper Steinmann,         Univ. of Southern Denmark,    Denmark     (QFIT, Polarizable embedding model)
  K. O. Sylvester-Hvid,     University of Copenhagen,     Denmark     (MC-SCRF)
  Peter R. Taylor,          VLSCI/Univ. of Melbourne,     Australia   (Symmetry handling ABACUS, integral transformation)
  Andrew M. Teale,          University of Nottingham,     England     (DFT-AC, DFT-D)
  David P. Tew,             University of Bristol,        England     (CCSD(R12))
  Olav Vahtras,             KTH Stockholm,                Sweden      (triplet response, spin-orbit, ESR, TDDFT, open-shell DFT)
  David J. Wilson,          La Trobe University,          Australia   (DFT Hessian and DFT magnetizabilities)
  Hans Agren,               KTH Stockholm,                Sweden      (SIRIUS module, RESPONS, MC-SCRF solvation model)
 --------------------------------------------------------------------------------

     Date and time (Linux)  : Tue Dec  4 09:19:12 2018
     Host name              : n-62-24-3                               

 * Work memory size             :  1280000000 =  9.537 gigabytes.

 * Directories for basis set searches:
   1) /zhome/d7/7/119775/My_Codes/dalton-private/build2016/basis/diffs
   2) /zhome/37/3/129401/NH3NH4/CCSD/AIMD_SAMPLING/nh3_4h2o_nd
   3) /zhome/9a/4/124800/source/dalton/build-mlcc/basis


Compilation information
-----------------------

 Who compiled             | rfaber
 Host                     | hpclogin1
 System                   | Linux-2.6.32-696.1.1.el6.x86_64
 CMake generator          | Unix Makefiles
 Processor                | x86_64
 64-bit integers          | ON
 MPI                      | OFF
 Fortran compiler         | /opt/intel/2016update2/compilers_and_libraries_201
                          | 6.2.181/linux/bin/intel64/ifort
 Fortran compiler version | ifort (IFORT) 16.0.2 20160204
 C compiler               | /opt/intel/2016update2/compilers_and_libraries_201
                          | 6.2.181/linux/bin/intel64/icc
 C compiler version       | icc (ICC) 16.0.2 20160204
 C++ compiler             | /opt/intel/2016update2/compilers_and_libraries_201
                          | 6.2.181/linux/bin/intel64/icpc
 C++ compiler version     | icpc (ICC) 16.0.2 20160204
 Static linking           | OFF
 Last Git revision        | bb4d1599ca5680a9f3980451fc8bbefdba436d59
 Git branch               | mlcc
 Configuration time       | 2017-06-13 16:11:03.928841


   Content of the .dal input file
 ----------------------------------

**DALTON
.RUN WAVE FUNCTIONS
*QMMM
.QMMM
**INTEGRALS
.DIPLEN
**WAVE FUNCTIONS
.CC
*PRINT
!To check the origin of excit
.PRINTL
   0 11
*SCF INP
.THRESH
1.0D-7
*CC INP
.CCSD
.THRLEQ
 1.0D-9
.THRENR
 1.0D-10
.FROIMP
4
0
.PRINT
 1
.MAX IT
 1200
.MAXRED
 1200
.MXLRV
1199
*CCSLV
.CCMM
.MXSLIT
200
.MXINIT
4 5
*CCEXCI
.NCCEXC
 1
.IONISATION
1
1
.CVSEPARA
1
1
*CCLRSD
.DIPOLE
**END OF DALTON INPUT


   Content of the .mol file
 ----------------------------

ATOMBASIS


Atomtypes=5 Charge=0 Nosymm Angstrom
   7.00000    1    Basis=6-311G**
N          0.000000        0.000000        0.000000
   1.00000    3    Basis=6-311G**
H          0.589275        0.350387        0.748236
H         -0.976070       -0.185427        0.357617
H          0.397430       -0.924057       -0.256031
   8.00000    4    Basis=6-311G**
O         -3.414240       -0.212963        0.359389
O         -0.242646       -1.586978       -2.925857
O         -0.659113        1.492829       -2.335210
O          0.462000        0.856211        2.964724
   1.00000    8    Basis=6-311G**
H         -4.165116        0.281116        0.738249
H         -3.195994        0.305692       -0.494429
H         -0.633386       -1.680110       -3.847246
H         -0.701529       -2.223874       -2.364952
H         -0.287000        1.437667       -3.313128
H         -0.170920        0.957933       -1.621758
H         -0.152366        0.221273        3.401248
H          0.816156        1.407692        3.711498
   0.00000    1    Basis=diffs
X          0.000000        0.000000        0.000000


       *******************************************************************
       *********** Output from DALTON general input processing ***********
       *******************************************************************

 --------------------------------------------------------------------------------
   Overall default print level:    0
   Print level for DALTON.STAT:    1

    HERMIT 1- and 2-electron integral sections will be executed
    "Old" integral transformation used (limited to max 255 basis functions)
    Wave function sections will be executed (SIRIUS module)
 --------------------------------------------------------------------------------


 Changes of defaults for *QMMM  :
 --------------------------------

 +------------------+
 |  WORD: | CHANGE: |
 +------------------+
 |   QMMM |       T |
 +------------------+
 


   ****************************************************************************
   *************** Output of molecule and basis set information ***************
   ****************************************************************************


    The two title cards from your ".mol" input:
    ------------------------------------------------------------------------
 1:                                                                         
 2:                                                                         
    ------------------------------------------------------------------------

  Coordinates are entered in Angstrom and converted to atomic units.
          - Conversion factor : 1 bohr = 0.52917721 A

  Atomic type no.    1
  --------------------
  Nuclear charge:   7.00000
  Number of symmetry independent centers:    1
  Number of basis sets to read;    2
  The basis set is "6-311G**" from the basis set library.
  Basis set file used for this atomic type with Z =   7 :
     "/zhome/9a/4/124800/source/dalton/build-mlcc/basis/6-311G**"

  Info about the basis set file: your basis has no documentation.
  Basis set: 6-311G**                                                                        

  Atomic type no.    2
  --------------------
  Nuclear charge:   1.00000
  Number of symmetry independent centers:    3
  Number of basis sets to read;    2
  The basis set is "6-311G**" from the basis set library.
  Basis set file used for this atomic type with Z =   1 :
     "/zhome/9a/4/124800/source/dalton/build-mlcc/basis/6-311G**"

  Info about the basis set file: your basis has no documentation.
  Basis set: 6-311G**                                                                        

  Atomic type no.    3
  --------------------
  Nuclear charge:   8.00000
  Number of symmetry independent centers:    4
  Number of basis sets to read;    2
  The basis set is "6-311G**" from the basis set library.
  Basis set file used for this atomic type with Z =   8 :
     "/zhome/9a/4/124800/source/dalton/build-mlcc/basis/6-311G**"

  Info about the basis set file: your basis has no documentation.
  Basis set: 6-311G**                                                                        

  Atomic type no.    4
  --------------------
  Nuclear charge:   1.00000
  Number of symmetry independent centers:    8
  Number of basis sets to read;    2
  The basis set is "6-311G**" from the basis set library.
  Basis set file used for this atomic type with Z =   1 :
     "/zhome/9a/4/124800/source/dalton/build-mlcc/basis/6-311G**"

  Info about the basis set file: your basis has no documentation.
  Basis set: 6-311G**                                                                        

  Atomic type no.    5
  --------------------
  Nuclear charge:   0.00000
  Number of symmetry independent centers:    1
  Number of basis sets to read;    2
  The basis set is "diffs" from the basis set library.
  Basis set file used for this atomic type with Z =   0 :
     "/zhome/9a/4/124800/source/dalton/build-mlcc/basis/diffs"

  Info about the basis set file: your basis has no documentation.
  Basis set: diffs                                                                           


                         SYMGRP: Point group information
                         -------------------------------

@    Point group: C1 


                                 Isotopic Masses
                                 ---------------

                           N          14.003074
                           H           1.007825
                           H           1.007825
                           H           1.007825
                           O          15.994915
                           O          15.994915
                           O          15.994915
                           O          15.994915
                           H           1.007825
                           H           1.007825
                           H           1.007825
                           H           1.007825
                           H           1.007825
                           H           1.007825
                           H           1.007825
                           H           1.007825

                       Total mass:    89.068809 amu
                       Natural abundance:  98.514 %

 Center-of-mass coordinates (a.u.):   -1.489190    0.185234   -0.720196


  Atoms and basis sets
  --------------------

  Number of atom types :    5
  Total number of atoms:   17

  label    atoms   charge   prim   cont     basis
  ----------------------------------------------------------------------
  N           1    7.0000    31    18      [11s5p1d|4s3p1d]                                   
  H           3    1.0000     8     6      [5s1p|3s1p]                                        
  O           4    8.0000    31    18      [11s5p1d|4s3p1d]                                   
  H           8    1.0000     8     6      [5s1p|3s1p]                                        
  X           1    0.0000     1     1      [1s|1s]                                            
  ----------------------------------------------------------------------
  total:     17   50.0000   244   157
  ----------------------------------------------------------------------
  Spherical harmonic basis used.

  Threshold for neglecting AO integrals:  1.00D-12


  Cartesian Coordinates (a.u.)
  ----------------------------

  Total number of coordinates:   51
  N       :     1  x   0.0000000000    2  y   0.0000000000    3  z   0.0000000000
  H       :     4  x   1.1135683623    5  y   0.6621354678    6  z   1.4139611169
  H       :     7  x  -1.8445049788    8  y  -0.3504062462    9  z   0.6757981876
  H       :    10  x   0.7510338539   11  y  -1.7462146539   12  z  -0.4838284695
  O       :    13  x  -6.4519785250   14  y  -0.4024417448   15  z   0.6791467823
  O       :    16  x  -0.4585344853   17  y  -2.9989537864   18  z  -5.5290684109
  O       :    19  x  -1.2455430554   20  y   2.8210379614   21  z  -4.4129073443
  O       :    22  x   0.8730534697   23  y   1.6180042952   24  z   5.6025163962
  H       :    25  x  -7.8709285188   26  y   0.5312322494   27  z   1.3950884221
  H       :    28  x  -6.0395533571   29  y   0.5776741586   30  z  -0.9343353983
  H       :    31  x  -1.1969260714   32  y  -3.1749477599   33  z  -7.2702412755
  H       :    34  x  -1.3256976787   35  y  -4.2025127965   36  z  -4.4691115788
  H       :    37  x  -0.5423513979   38  y   2.7167968889   39  z  -6.2609045370
  H       :    40  x  -0.3229919893   41  y   1.8102310161   42  z  -3.0646784610
  H       :    43  x  -0.2879300108   44  y   0.4181453689   45  z   6.4274272032
  H       :    46  x   1.5423113153   47  y   2.6601523483   48  z   7.0137147335
  X       :    49  x   0.0000000000   50  y   0.0000000000   51  z   0.0000000000

  Max    interatomic separation is    8.2928 Angstrom (   15.6711 Bohr)
  between atoms   16 and   11, "H     " and "H     ".

  Min HX interatomic separation is    0.9648 Angstrom (    1.8232 Bohr)

  Min YX interatomic separation is    2.8489 Angstrom (    5.3836 Bohr)


  Bond distances (Angstrom):
  --------------------------

                  atom 1     atom 2       distance
                  ------     ------       --------
  bond distance:  H          N            1.014827
  bond distance:  H          N            1.055929
  bond distance:  H          N            1.037971
  bond distance:  H          O            0.975430
  bond distance:  H          O            1.022565
  bond distance:  H          O            1.005141
  bond distance:  H          O            0.964792
  bond distance:  H          O            1.047776
  bond distance:  H          O            1.016592
  bond distance:  H          O            0.985467
  bond distance:  H          O            0.993594


  Bond angles (degrees):
  ----------------------

                  atom 1     atom 2     atom 3         angle
                  ------     ------     ------         -----
  bond angle:     H          N          H            110.345
  bond angle:     H          N          H            105.481
  bond angle:     H          N          H            106.328
  bond angle:     H          O          H            103.397
  bond angle:     H          O          H            106.671
  bond angle:     H          O          H            117.179
  bond angle:     H          O          H            104.294




 Principal moments of inertia (u*A**2) and principal axes
 --------------------------------------------------------

   IA     257.065994          0.080677    0.218601    0.972474
   IB     516.891381          0.987562    0.114567   -0.107682
   IC     606.506605         -0.134953    0.969065   -0.206639


 Rotational constants
 --------------------

               A                   B                   C

           1965.9504            977.7277            833.2622 MHz
            0.065577            0.032613            0.027795 cm-1


@  Nuclear repulsion energy :  181.063423848193 Hartree

  Number of floating/multiple basis set orbitals :    1


                     .---------------------------------------.
                     | Starting in Integral Section (HERMIT) |
                     `---------------------------------------'



 ***************************************************************************************
 ****************** Output from **INTEGRALS input processing (HERMIT) ******************
 ***************************************************************************************



    *************************************************************************
    ****************** Output from HERMIT input processing ******************
    *************************************************************************


 Default print level:        1

 * Nuclear model: Point charge

 Calculation of one- and two-electron Hamiltonian integrals.

 The following one-electron property integrals are calculated as requested:
          - overlap integrals
          - dipole length integrals

 Center of mass  (bohr):     -1.489189840948      0.185234233954     -0.720195809298
 Operator center (bohr):      0.000000000000      0.000000000000      0.000000000000
 Gauge origin    (bohr):      0.000000000000      0.000000000000      0.000000000000
 Dipole origin   (bohr):      0.000000000000      0.000000000000      0.000000000000
 
  *********************************** 
  QMMM electrostatic potential: 
  Multipole order                                    0
  Isotropic polarization  
  *********************************** 
 
  ---------------- 
  QMMM information 
  ---------------- 
 
  MM coordinates in au 
  -------------------- 
     1     10.046922      8.775773     -9.660620
     2     10.549234      7.976587    -11.365661
     3      8.679278     10.006892    -10.097574
     4     -6.311022     -8.557086      3.870972
     5     -5.266391    -10.166795      3.965265
     6     -6.536325     -8.019329      5.620295
     7     -7.679305     -4.555478      7.796082
     8     -7.291196     -5.518516      9.280574
     9     -9.596335     -4.311722      7.779460
    10    -11.194208      6.756774      8.944009
    11     -9.488147      6.845608      8.077228
    12    -12.001934      5.527177      7.899641
    13      8.694074      5.584007     -6.222615
    14      8.136191      6.616691     -4.886269
    15      8.950484      6.592466     -7.733978
    16     -0.899461     -7.974295    -10.553795
    17     -2.350604     -6.904706    -10.258516
    18     -1.148783     -9.074454    -11.984919
    19      6.811219     -6.747462      9.641407
    20      7.362825     -6.819300     11.518945
    21      5.377822     -5.475258      9.704919
    22     -9.888723      3.993553     -6.503644
    23    -11.537910      4.739870     -6.248251
    24     -9.973986      3.092514     -8.260106
    25     -8.138287     -2.170636     -7.120257
    26     -7.666577     -0.919208     -5.809502
    27     -9.714111     -2.962851     -6.678086
    28     -4.000609     -8.432474     -3.951242
    29     -2.383474     -9.223400     -3.304496
    30     -4.749186     -7.377682     -2.609198
    31     -5.913197      3.299277     10.416913
    32     -5.095407      4.823384     11.253194
    33     -6.462138      3.972654      8.831310
    34     10.629522      0.582423     -2.735464
    35     11.869757      1.494303     -3.701690
    36      9.036513      1.489314     -2.613327
    37     10.799979     10.184067     -1.549458
    38     11.576795     11.074111     -0.060467
    39     11.586476     11.101372     -3.019678
    40      6.527923      7.186239      4.824637
    41      5.507558      8.090311      3.610035
    42      7.876558      6.342866      3.886003
    43     -1.492364     -0.176752     11.446808
    44     -0.120430     -1.344960     10.654091
    45     -2.456638      0.104177      9.941859
    46     -7.037089     10.016869      8.779365
    47     -6.238065      9.122700     10.266151
    48     -7.801317     11.450446      9.666125
    49    -10.056767      5.733930     -0.010165
    50    -10.812469      7.334927     -0.692896
    51     -8.959278      6.115235      1.549324
    52     10.933961     -3.742393      8.375761
    53     10.320144     -2.332563      9.413578
    54      9.895592     -5.260189      8.738594
    55      0.766828    -10.089478      7.304285
    56      2.543093    -10.509916      7.544257
    57      0.611993     -8.412989      6.667383
    58      9.235772     11.110590      7.283622
    59      8.195308      9.830832      6.377510
    60     10.573014     10.077329      8.149493
    61      1.002779      8.220976    -10.078049
    62      2.452764      9.055515    -10.677535
    63      1.569635      6.491196     -9.646137
    64      8.550123     -6.898266     -9.349928
    65      8.803867     -5.451433     -8.042262
    66      9.586144     -8.314037     -8.517047
    67      2.868132     10.086338      2.684360
    68      3.792678     11.662352      3.220262
    69      1.986593     10.654094      1.175827
    70      2.208081     -4.104973      9.821651
    71      1.363934     -5.553794     10.569225
    72      2.020590     -4.414395      7.876331
    73     -4.016813      7.394731    -10.997520
    74     -4.665163      7.642527     -9.230507
    75     -2.251459      7.904337    -10.921105
    76     -5.966128      1.033525     -4.317376
    77     -7.246121      2.403112     -4.581261
    78     -4.168862      1.779162     -4.596774
    79      5.376233     -5.985957     -1.580079
    80      7.094720     -5.421343     -0.837358
    81      4.751851     -4.625626     -2.787261
    82      4.961107    -11.417451    -10.897803
    83      5.031857    -10.377212     -9.251253
    84      5.508818    -10.235987    -12.263667
    85      5.726174      0.570505      3.901506
    86      3.993133      0.551569      4.510691
    87      6.677907      1.766926      5.003870
    88      1.449550      3.351930     -9.013209
    89      0.737817      2.469541    -10.492307
    90      3.132797      2.584270     -8.833585
    91     -7.004253    -10.573337     -7.755264
    92     -5.738671     -9.742343     -6.692584
    93     -6.755512    -12.428908     -7.523712
    94      6.012447      7.596937     -1.957855
    95      4.600328      8.671522     -1.588577
    96      7.405073      8.634480     -1.073803
    97      4.556999     -1.988461     -4.773125
    98      2.736522     -2.115974     -5.156590
    99      4.917789     -0.476183     -3.651641
   100      2.500514     -9.285687     -6.603816
   101      1.131184     -8.980307     -7.836532
   102      3.387498     -7.733347     -6.464294
   103     -3.635293     -1.786931      5.726218
   104     -5.194738     -2.529890      6.553438
   105     -4.237972     -1.068665      4.039063
   106     -9.640205      1.181680    -10.683911
   107     -8.260195      1.839102    -11.817147
   108     -9.109179     -0.083775     -9.517094
   109      0.905387     -7.036161      0.645884
   110      2.595998     -6.661387     -0.118318
   111      0.165740     -8.485492     -0.126277
   112     -3.932539     -3.968943     -9.388286
   113     -3.695839     -2.528890    -10.605710
   114     -5.403379     -3.621823     -8.216306
   115     -6.329337      8.030435     -6.213588
   116     -7.902290      6.998327     -6.313280
   117     -5.457765      7.881526     -4.573088
   118     11.538214     -6.926294     -1.211745
   119     12.958255     -5.827341     -1.140518
   120     11.590066     -7.825443      0.371084
   121      0.598034     11.626064     -1.988961
   122     -0.626047     10.307322     -2.342236
   123      1.352105     12.094597     -3.635104
   124     11.602370     -9.981299     -5.582533
   125     11.836630     -8.580685     -4.238011
   126     13.270541    -10.186253     -6.586584
   127     -2.477140      7.397584     -2.415404
   128     -1.637737      5.999599     -3.386127
   129     -2.255868      6.818285     -0.719519
   130      3.567824      4.603150      9.111589
   131      2.603901      5.392740     10.427955
   132      4.142830      5.944940      8.046609
   133    -11.681323     -9.844936      2.851812
   134    -10.014233     -9.383093      3.477960
   135    -12.647480    -10.573690      4.311297
   136     -2.376816      6.026577      2.743194
   137     -0.844033      5.382516      3.480208
   138     -2.569117      7.759934      3.584028
   139      6.125893      1.377856     -8.649182
   140      5.853379     -0.307753     -7.744674
   141      6.634505      2.467047     -7.264891
   142    -11.246272      1.615495      2.358108
   143    -11.260734      3.206699      1.249863
   144    -11.702016      0.371460      1.105127
   145      6.276946      2.289751     -1.501609
   146      5.788998      4.149217     -1.605817
   147      6.319666      1.819810      0.296343
   148     -8.831353     -8.241445     11.460439
   149     -7.870439     -9.077967     12.753454
   150    -10.499727     -7.646359     12.121966
   151     -6.616936     -5.368209     -0.343191
   152     -6.140773     -3.694853      0.216255
   153     -6.421146     -6.435823      1.146682
   154      9.046100      0.730899     10.821439
   155     10.638174      1.107610     11.799153
   156      7.573926      1.108220     11.970548
   157      9.646782      3.174447      6.423888
   158     10.648388      1.991684      5.451091
   159      9.262536      2.180092      8.082576
   160      0.003933     -5.287890      5.312831
   161     -1.437724     -4.094897      5.322157
   162      0.312447     -5.865804      3.556667
   163     -3.338222     10.547688      5.066142
   164     -4.530989     10.538681      6.653151
   165     -1.527532     10.953506      5.548022
   166     -6.830389      4.879010      5.242628
   167     -5.201379      4.935730      4.273619
   168     -7.866216      3.540158      4.431049
   169      5.644449     -9.313145      4.394494
   170      5.697313     -7.354587      4.303101
   171      6.974938     -9.579636      5.648951
   172      7.922363     -4.084722      3.138618
   173      7.110093     -2.471027      3.179695
   174      9.067271     -4.345573      4.652356
   175     10.150001     -3.778069     -5.405603
   176     10.130055     -4.824894     -3.861994
   177      9.674557     -2.067357     -4.709330
 
  MM charges 
  ---------- 
     1     -0.674440
     2      0.337220
     3      0.337220
     4     -0.674440
     5      0.337220
     6      0.337220
     7     -0.674440
     8      0.337220
     9      0.337220
    10     -0.674440
    11      0.337220
    12      0.337220
    13     -0.674440
    14      0.337220
    15      0.337220
    16     -0.674440
    17      0.337220
    18      0.337220
    19     -0.674440
    20      0.337220
    21      0.337220
    22     -0.674440
    23      0.337220
    24      0.337220
    25     -0.674440
    26      0.337220
    27      0.337220
    28     -0.674440
    29      0.337220
    30      0.337220
    31     -0.674440
    32      0.337220
    33      0.337220
    34     -0.674440
    35      0.337220
    36      0.337220
    37     -0.674440
    38      0.337220
    39      0.337220
    40     -0.674440
    41      0.337220
    42      0.337220
    43     -0.674440
    44      0.337220
    45      0.337220
    46     -0.674440
    47      0.337220
    48      0.337220
    49     -0.674440
    50      0.337220
    51      0.337220
    52     -0.674440
    53      0.337220
    54      0.337220
    55     -0.674440
    56      0.337220
    57      0.337220
    58     -0.674440
    59      0.337220
    60      0.337220
    61     -0.674440
    62      0.337220
    63      0.337220
    64     -0.674440
    65      0.337220
    66      0.337220
    67     -0.674440
    68      0.337220
    69      0.337220
    70     -0.674440
    71      0.337220
    72      0.337220
    73     -0.674440
    74      0.337220
    75      0.337220
    76     -0.674440
    77      0.337220
    78      0.337220
    79     -0.674440
    80      0.337220
    81      0.337220
    82     -0.674440
    83      0.337220
    84      0.337220
    85     -0.674440
    86      0.337220
    87      0.337220
    88     -0.674440
    89      0.337220
    90      0.337220
    91     -0.674440
    92      0.337220
    93      0.337220
    94     -0.674440
    95      0.337220
    96      0.337220
    97     -0.674440
    98      0.337220
    99      0.337220
   100     -0.674440
   101      0.337220
   102      0.337220
   103     -0.674440
   104      0.337220
   105      0.337220
   106     -0.674440
   107      0.337220
   108      0.337220
   109     -0.674440
   110      0.337220
   111      0.337220
   112     -0.674440
   113      0.337220
   114      0.337220
   115     -0.674440
   116      0.337220
   117      0.337220
   118     -0.674440
   119      0.337220
   120      0.337220
   121     -0.674440
   122      0.337220
   123      0.337220
   124     -0.674440
   125      0.337220
   126      0.337220
   127     -0.674440
   128      0.337220
   129      0.337220
   130     -0.674440
   131      0.337220
   132      0.337220
   133     -0.674440
   134      0.337220
   135      0.337220
   136     -0.674440
   137      0.337220
   138      0.337220
   139     -0.674440
   140      0.337220
   141      0.337220
   142     -0.674440
   143      0.337220
   144      0.337220
   145     -0.674440
   146      0.337220
   147      0.337220
   148     -0.674440
   149      0.337220
   150      0.337220
   151     -0.674440
   152      0.337220
   153      0.337220
   154     -0.674440
   155      0.337220
   156      0.337220
   157     -0.674440
   158      0.337220
   159      0.337220
   160     -0.674440
   161      0.337220
   162      0.337220
   163     -0.674440
   164      0.337220
   165      0.337220
   166     -0.674440
   167      0.337220
   168      0.337220
   169     -0.674440
   170      0.337220
   171      0.337220
   172     -0.674440
   173      0.337220
   174      0.337220
   175     -0.674440
   176      0.337220
   177      0.337220
 
  MM isotropic polarizabilities in au 
  ----------------------------------- 
     1      5.739350
     2      2.308390
     3      2.308390
     4      5.739350
     5      2.308390
     6      2.308390
     7      5.739350
     8      2.308390
     9      2.308390
    10      5.739350
    11      2.308390
    12      2.308390
    13      5.739350
    14      2.308390
    15      2.308390
    16      5.739350
    17      2.308390
    18      2.308390
    19      5.739350
    20      2.308390
    21      2.308390
    22      5.739350
    23      2.308390
    24      2.308390
    25      5.739350
    26      2.308390
    27      2.308390
    28      5.739350
    29      2.308390
    30      2.308390
    31      5.739350
    32      2.308390
    33      2.308390
    34      5.739350
    35      2.308390
    36      2.308390
    37      5.739350
    38      2.308390
    39      2.308390
    40      5.739350
    41      2.308390
    42      2.308390
    43      5.739350
    44      2.308390
    45      2.308390
    46      5.739350
    47      2.308390
    48      2.308390
    49      5.739350
    50      2.308390
    51      2.308390
    52      5.739350
    53      2.308390
    54      2.308390
    55      5.739350
    56      2.308390
    57      2.308390
    58      5.739350
    59      2.308390
    60      2.308390
    61      5.739350
    62      2.308390
    63      2.308390
    64      5.739350
    65      2.308390
    66      2.308390
    67      5.739350
    68      2.308390
    69      2.308390
    70      5.739350
    71      2.308390
    72      2.308390
    73      5.739350
    74      2.308390
    75      2.308390
    76      5.739350
    77      2.308390
    78      2.308390
    79      5.739350
    80      2.308390
    81      2.308390
    82      5.739350
    83      2.308390
    84      2.308390
    85      5.739350
    86      2.308390
    87      2.308390
    88      5.739350
    89      2.308390
    90      2.308390
    91      5.739350
    92      2.308390
    93      2.308390
    94      5.739350
    95      2.308390
    96      2.308390
    97      5.739350
    98      2.308390
    99      2.308390
   100      5.739350
   101      2.308390
   102      2.308390
   103      5.739350
   104      2.308390
   105      2.308390
   106      5.739350
   107      2.308390
   108      2.308390
   109      5.739350
   110      2.308390
   111      2.308390
   112      5.739350
   113      2.308390
   114      2.308390
   115      5.739350
   116      2.308390
   117      2.308390
   118      5.739350
   119      2.308390
   120      2.308390
   121      5.739350
   122      2.308390
   123      2.308390
   124      5.739350
   125      2.308390
   126      2.308390
   127      5.739350
   128      2.308390
   129      2.308390
   130      5.739350
   131      2.308390
   132      2.308390
   133      5.739350
   134      2.308390
   135      2.308390
   136      5.739350
   137      2.308390
   138      2.308390
   139      5.739350
   140      2.308390
   141      2.308390
   142      5.739350
   143      2.308390
   144      2.308390
   145      5.739350
   146      2.308390
   147      2.308390
   148      5.739350
   149      2.308390
   150      2.308390
   151      5.739350
   152      2.308390
   153      2.308390
   154      5.739350
   155      2.308390
   156      2.308390
   157      5.739350
   158      2.308390
   159      2.308390
   160      5.739350
   161      2.308390
   162      2.308390
   163      5.739350
   164      2.308390
   165      2.308390
   166      5.739350
   167      2.308390
   168      2.308390
   169      5.739350
   170      2.308390
   171      2.308390
   172      5.739350
   173      2.308390
   174      2.308390
   175      5.739350
   176      2.308390
   177      2.308390


     ************************************************************************
     ************************** Output from HERINT **************************
     ************************************************************************



                      Nuclear contribution to dipole moments
                      --------------------------------------

                 au               Debye          C m (/(10**-30)

      x    -74.28799124      -188.82122744      -629.83981885
      y      8.20345985        20.85111377        69.55182900
      z    -34.83961067       -88.55345178      -295.38252021



 Threshold for neglecting two-electron integrals:  1.00D-12
 HERMIT - Number of two-electron integrals written:    27967832 ( 36.4% )
 HERMIT - Megabytes written:                            320.251

  Time used in TWOINT     is       5.72 seconds
  Total CPU  time used in HERMIT:   5.89 seconds
  Total wall time used in HERMIT:   9.18 seconds


                        .----------------------------------.
                        | End of Integral Section (HERMIT) |
                        `----------------------------------'



                   .--------------------------------------------.
                   | Starting in Wave Function Section (SIRIUS) |
                   `--------------------------------------------'

NCCEXCI for singlet:    1
 CCSD_INPUT: core-val requested
 Requested number of virtual orbs per sym
                     1
 Indices of requested virtual orbs
                     1
 CCSD_INPUT: core-val requested
 Requested number of core orbs per sym
                     1
 Indices of requested core orbs
                     1

 *** Output from Huckel module :

     Using EWMO model:          T
     Using EHT  model:          F
     Number of Huckel orbitals each symmetry:   36

 EWMO - Energy Weighted Maximum Overlap - is a Huckel type method,
        which normally is better than Extended Huckel Theory.
 Reference: Linderberg and Ohrn, Propagators in Quantum Chemistry (Wiley, 1973)

 Huckel EWMO eigenvalues for symmetry :  1
          -20.684654     -20.684497     -20.684369     -20.683844     -15.673413
           -1.672191      -1.601538      -1.587350      -1.558930      -1.465622
           -0.827835      -0.792954      -0.788768      -0.777049      -0.738706
           -0.715565      -0.694158      -0.681811      -0.666319      -0.652453
           -0.625554      -0.615386      -0.607608      -0.595817      -0.520047
           -0.264648      -0.243902      -0.241915      -0.234488      -0.189584
           -0.180675      -0.178527      -0.175848      -0.167021      -0.155986
           -0.146766

 **********************************************************************
 *SIRIUS* a direct, restricted step, second order MCSCF program       *
 **********************************************************************

 
     Date and time (Linux)  : Tue Dec  4 09:19:22 2018
     Host name              : n-62-24-3                               

 Title lines from ".mol" input file:
                                                                             
                                                                             

 Print level on unit LUPRI =   2 is   0
 Print level on unit LUW4  =   2 is  11

@    (Integral direct) CC calculation.

@    This is a combination run starting with
@              a restricted, closed shell Hartree-Fock calculation


 Initial molecular orbitals are obtained according to
 ".MOSTART EWMO  " input option

@    QM part is embedded in an environment :

@         Model: QMMM

     Wave function specification
     ============================

     For the specification of the Coupled Cluster: see later.

@    Wave function type        --- CC ---
@    Number of closed shell electrons          50
@    Number of electrons in active shells       0
@    Total charge of the molecule               0

@    Spin multiplicity and 2 M_S                1         0
@    Total number of symmetries                 1 (point group: C1 )
@    Reference state symmetry                   1 (irrep name : A  )

     Orbital specifications
     ======================
@    Abelian symmetry species          All |    1
@                                          |  A  
                                       --- |  ---
@    Occupied SCF orbitals              25 |   25
@    Secondary orbitals                132 |  132
@    Total number of orbitals          157 |  157
@    Number of basis functions         157 |  157

     Optimization information
     ========================
@    Number of configurations                 1
@    Number of orbital rotations           3300
     ------------------------------------------
@    Total number of variables             3301

     Maximum number of Fock   iterations      0
     Maximum number of DIIS   iterations     60
     Maximum number of QC-SCF iterations     60
     Threshold for SCF convergence     1.00D-07


 Changes of defaults for CC:
 ---------------------------


 -Implicit frozen core calculation
 -Excitation energies calculated
 -One-photon absorption strengths will be calculated
 -Oscillator strengths calculated
  
* Read MO coefficients from SIRIUS.RST with label "NEWORB  " and header info:  4Dec18  REORTHO 


 ***********************************************
 ***** DIIS acceleration of SCF iterations *****
 ***********************************************

 C1-DIIS algorithm; max error vectors =    8
 -----------------------------------------------------------------------------

 *** DIIS iteration number    1
 RDSUPM called. NFMAT, ISYMDM(1:NFMAT)                     1
                     1

Calculating AOSUPINT
     (Precalculated two-electron integrals are transformed to P-supermatrix elements.
      Threshold for discarding integrals :  1.00D-12 )
  CPU  time used in FORMSUP    is   2.51 seconds
  WALL time used in FORMSUP    is  27.01 seconds

 ITDIIS, energy, error norm, change in energy, scr.thr., difden:
@ DIIS iter.   1    -359.928574936        3.69860D+00   -3.60D+02  -20    F

 (DIIS_RED) Control Parameters C2DIIS =         F NEVC =    1


 (DIIS_RED) B matrix:

               Column   1
       1      13.67963952
    ==== End of matrix output ====

 DIIS C vector; C2DIIS = F, LAMBDA = -1.37D+01
    1.000000
* Read MO coefficients from SIRIUS.RST with label "NEWORB  " and header info:  4Dec18  DIIS   1
      Virial theorem: -V/T =      1.998896
@      MULPOP N      -0.36; H       0.15; H       0.15; H       0.17; O      -0.63; O      -0.63; O      -0.79; O      -0.60; H       0.32; H       0.33; 
@             H       0.31; H       0.33; H       0.31; H       0.31; H       0.32; H       0.31; 
   1  Level shift: doubly occupied orbital energies shifted by -2.00D-01

 DIIS Fock eigenvalues in symmetry 1
      -20.74940      -20.73883      -20.70849      -20.58597      -15.98576
       -1.57444       -1.56149       -1.53289       -1.46871       -1.43380
       -0.95447       -0.94930       -0.93789       -0.92709       -0.91885
       -0.88651       -0.81995       -0.81817       -0.78611       -0.78051
       -0.76792       -0.75521       -0.73443       -0.72178       -0.69433
        0.00000        0.09004        0.12797        0.14300        0.18325
        0.19562        0.21818        0.23701        0.25206        0.25800
        0.27145        0.32737        0.42011        0.42924        0.47475
        0.51578        0.53381        0.54548        0.55526        0.56261
        0.58903        0.59226        0.61182        0.81065        0.83396
        0.86070        0.91653        0.93057        0.94985        0.95841
        0.98938        1.01724        1.04041        1.06350        1.08009
        1.10724        1.11267        1.14278        1.21683        1.24473
        1.26628        1.30829        1.33886        1.34917        1.42854
        1.43121        1.43487        1.45445        1.46320        1.47629
        1.50238        1.53108        1.62637        1.63798        1.65904
        1.69463        1.70992        1.72178        1.74730        1.80382
        1.82899        1.85005        1.87596        1.90267        1.92227
        2.05046        2.12114        2.13916        2.14664        2.20391
        2.23755        2.27267        2.27767        2.31530        2.35260
        2.45085        2.52192        2.53122        2.57971        2.64009
        2.65601        2.71773        2.73634        2.74242        2.76044
        2.77491        2.80322        2.83607        2.86878        3.04600
        3.26459        3.29853        3.39077        3.39212        3.39317
        3.42419        3.44644        3.45431        3.50396        3.54583
        3.55755        3.59796        3.61651        3.63931        3.91894
        3.93576        3.98470        4.09348        4.13233        4.17272
        4.17925        4.20358        4.38095        4.93813        5.01085
        5.27149        5.31496        5.31834        5.42187        5.64388
        5.70588        5.73161        5.74736        6.02691        6.03492
        6.10683        6.14101       36.74921       51.51691       51.52008
       51.56068       51.67782
 Time used in FCKEIG, thr_jaco:   4.20D-02  6.40D-02  1.61D-04
 CPU and wall times used in FCKEIG, THR_FCKEIG:   4.20D-02  6.40D-02  3.70D-02
 -----------------------------------------------------------------------------

 *** DIIS iteration number    2
 RDSUPM called. NFMAT, ISYMDM(1:NFMAT)                     1
                     1

 ITDIIS, energy, error norm, change in energy, scr.thr., difden:
@ DIIS iter.   2    -360.686964780        9.06578D-01   -7.58D-01  -20    F

 (DIIS_RED) Control Parameters C2DIIS =         F NEVC =    2


 (DIIS_RED) B matrix:

               Column   1     Column   2
       1      13.67963952
       2       0.93327545     0.82188386
    ==== End of matrix output ====

 DIIS C vector; C2DIIS = F, LAMBDA = -8.21D-01
   -0.008816    1.008816
* Read MO coefficients from SIRIUS.RST with label "NEWORB  " and header info:  4Dec18  DIIS   2
      Virial theorem: -V/T =      2.004692
@      MULPOP N      -0.64; H       0.22; H       0.22; H       0.23; O      -0.58; O      -0.57; O      -0.71; O      -0.56; H       0.28; H       0.32; 
@             H       0.30; H       0.27; H       0.31; H       0.32; H       0.29; H       0.29; 
   2  Level shift: doubly occupied orbital energies shifted by -5.00D-02

 DIIS Fock eigenvalues in symmetry 1
      -20.69135      -20.65412      -20.65336      -20.61147      -15.50224
       -1.41317       -1.40582       -1.38850       -1.37380       -1.15990
       -0.77358       -0.76662       -0.76369       -0.74412       -0.68544
       -0.67048       -0.65698       -0.64938       -0.64165       -0.62751
       -0.60607       -0.60355       -0.59718       -0.55887       -0.47502
        0.00000        0.12897        0.15714        0.17000        0.20721
        0.22402        0.23753        0.25810        0.27755        0.29498
        0.29999        0.34388        0.47507        0.48497        0.51447
        0.54600        0.56261        0.57847        0.58707        0.59585
        0.61589        0.63024        0.67373        0.88130        0.91135
        0.92887        0.93245        0.94905        0.95795        0.98630
        1.00267        1.04532        1.06137        1.08612        1.09032
        1.12242        1.12774        1.17377        1.25754        1.31306
        1.32187        1.35105        1.36343        1.40614        1.44327
        1.47474        1.49362        1.51210        1.51882        1.52915
        1.54521        1.55323        1.67743        1.68334        1.69519
        1.74446        1.76347        1.77698        1.80507        1.86789
        1.89440        1.90990        1.94803        1.95175        1.98945
        2.16156        2.18928        2.19643        2.22619        2.23446
        2.25689        2.33488        2.34302        2.37975        2.42883
        2.52001        2.58527        2.59272        2.63833        2.71273
        2.72906        2.74812        2.79401        2.80677        2.82580
        2.83788        2.90599        2.98475        2.99859        3.17211
        3.32770        3.40628        3.41770        3.43375        3.44564
        3.45865        3.47068        3.47447        3.50200        3.50867
        3.52852        3.62131        3.64738        3.66727        3.93641
        3.96028        4.00673        4.05068        4.07975        4.19672
        4.19794        4.22292        4.57170        5.14737        5.21547
        5.26106        5.27334        5.31452        5.35663        5.52826
        5.70094        5.72743        5.74480        6.03544        6.03988
        6.05294        6.12512       37.07700       51.42630       51.45831
       51.46503       51.51162
 Time used in FCKEIG, thr_jaco:   2.70D-02  5.30D-02  3.95D-05
 CPU and wall times used in FCKEIG, THR_FCKEIG:   2.70D-02  5.30D-02  9.07D-03
 -----------------------------------------------------------------------------

 *** DIIS iteration number    3
 RDSUPM called. NFMAT, ISYMDM(1:NFMAT)                     1
                     1

 ITDIIS, energy, error norm, change in energy, scr.thr., difden:
@ DIIS iter.   3    -360.745891392        3.35830D-01   -5.89D-02  -20    F

 (DIIS_RED) Control Parameters C2DIIS =         F NEVC =    3


 (DIIS_RED) B matrix:

               Column   1     Column   2     Column   3
       1      13.67963952
       2       0.93327545     0.82188386
       3       0.59255007     0.06238304     0.11278164
    ==== End of matrix output ====

 DIIS C vector; C2DIIS = F, LAMBDA = -8.92D-02
   -0.040593    0.081832    0.958761
* Read MO coefficients from SIRIUS.RST with label "NEWORB  " and header info:  4Dec18  DIIS   3
      Virial theorem: -V/T =      2.002598
@      MULPOP N      -0.57; H       0.20; H       0.19; H       0.21; O      -0.64; O      -0.62; O      -0.80; O      -0.61; H       0.30; H       0.35; 
@             H       0.33; H       0.29; H       0.37; H       0.36; H       0.31; H       0.32; 
   3  Level shift: doubly occupied orbital energies shifted by -2.50D-02

 DIIS Fock eigenvalues in symmetry 1
      -20.59094      -20.58830      -20.55589      -20.53856      -15.60654
       -1.37319       -1.36537       -1.33833       -1.32027       -1.16904
       -0.73279       -0.72334       -0.71013       -0.70612       -0.66926
       -0.65232       -0.62338       -0.61586       -0.59299       -0.57724
       -0.55684       -0.54880       -0.53169       -0.51093       -0.47388
        0.00000        0.13337        0.16193        0.17436        0.21165
        0.22587        0.24209        0.26234        0.28121        0.29651
        0.30148        0.35045        0.47612        0.48705        0.52249
        0.55694        0.57169        0.58982        0.59596        0.60405
        0.62248        0.63649        0.67456        0.88986        0.90623
        0.92999        0.94632        0.96636        0.97223        0.99165
        1.01314        1.05538        1.07694        1.09366        1.10214
        1.13788        1.14140        1.18150        1.26192        1.32139
        1.33146        1.35023        1.37135        1.40750        1.45996
        1.48627        1.50477        1.51984        1.52933        1.53921
        1.55509        1.56415        1.69058        1.69528        1.70596
        1.75633        1.77197        1.78014        1.80895        1.87477
        1.90268        1.91681        1.95279        1.95780        1.99441
        2.15019        2.20174        2.20932        2.21779        2.25262
        2.26758        2.34880        2.35670        2.39122        2.44066
        2.52611        2.59582        2.60332        2.64704        2.72090
        2.73562        2.75851        2.80355        2.81412        2.83311
        2.84389        2.89854        2.95843        2.97981        3.15388
        3.37740        3.39712        3.43245        3.43564        3.44035
        3.46526        3.49310        3.49677        3.54304        3.54683
        3.55567        3.64445        3.66907        3.68531        3.95863
        3.98167        4.02510        4.09704        4.13169        4.22012
        4.22189        4.24329        4.51301        5.09506        5.16768
        5.29975        5.31835        5.33986        5.39806        5.60196
        5.72866        5.75208        5.77109        6.06513        6.08013
        6.11178        6.14733       36.95169       51.49830       51.50332
       51.53780       51.55757
 Time used in FCKEIG, thr_jaco:   2.40D-02  5.40D-02  1.46D-05
 CPU and wall times used in FCKEIG, THR_FCKEIG:   2.40D-02  5.40D-02  3.36D-03
 -----------------------------------------------------------------------------

 *** DIIS iteration number    4
 RDSUPM called. NFMAT, ISYMDM(1:NFMAT)                     1
                     1

 ITDIIS, energy, error norm, change in energy, scr.thr., difden:
@ DIIS iter.   4    -360.753794596        1.18727D-01   -7.90D-03  -20    F

 (DIIS_RED) Control Parameters C2DIIS =         F NEVC =    4


 (DIIS_RED) B matrix:

               Column   1     Column   2     Column   3     Column   4
       1      13.67963952
       2       0.93327545     0.82188386
       3       0.59255007     0.06238304     0.11278164
       4      -0.00602708     0.07928389    -0.00924986     0.01409603
    ==== End of matrix output ====

 DIIS C vector; C2DIIS = F, LAMBDA = -3.87D-03
    0.000305   -0.098181    0.163638    0.934238
* Read MO coefficients from SIRIUS.RST with label "NEWORB  " and header info:  4Dec18  DIIS   4
      Virial theorem: -V/T =      2.003477
@      MULPOP N      -0.65; H       0.22; H       0.21; H       0.23; O      -0.65; O      -0.63; O      -0.79; O      -0.62; H       0.30; H       0.36; 
@             H       0.34; H       0.30; H       0.37; H       0.37; H       0.32; H       0.32; 
   4  Level shift: doubly occupied orbital energies shifted by -1.25D-02

 DIIS Fock eigenvalues in symmetry 1
      -20.58888      -20.58646      -20.56535      -20.55099      -15.55811
       -1.36497       -1.35720       -1.32934       -1.31996       -1.14455
       -0.72357       -0.71387       -0.70525       -0.69695       -0.64858
       -0.63060       -0.61234       -0.60286       -0.58313       -0.57192
       -0.54494       -0.53689       -0.52658       -0.50001       -0.44829
        0.00000        0.13388        0.16099        0.17374        0.21132
        0.22625        0.24199        0.26266        0.28109        0.29915
        0.30330        0.35185        0.48043        0.49136        0.52282
        0.55635        0.57139        0.58879        0.59451        0.60240
        0.62171        0.63526        0.67823        0.89281        0.91223
        0.93558        0.94588        0.96748        0.96905        0.99381
        1.01348        1.05534        1.07506        1.09393        1.10093
        1.13574        1.13994        1.18153        1.26303        1.32193
        1.33130        1.35542        1.37142        1.41179        1.45716
        1.48447        1.50251        1.51990        1.52747        1.53741
        1.55382        1.56231        1.68914        1.69371        1.70444
        1.75579        1.77090        1.78404        1.81173        1.87493
        1.90144        1.91555        1.95573        1.96017        1.99785
        2.15893        2.19925        2.20667        2.22587        2.24794
        2.26483        2.34576        2.35371        2.38852        2.44299
        2.52960        2.59376        2.60124        2.64497        2.72410
        2.73744        2.75827        2.80530        2.81332        2.83233
        2.84292        2.90660        2.97168        2.99056        3.16397
        3.36670        3.40890        3.43438        3.43759        3.44573
        3.46370        3.49008        3.49378        3.53316        3.54374
        3.54537        3.64150        3.66647        3.68338        3.95540
        3.97854        4.02265        4.08655        4.12016        4.21730
        4.21890        4.24098        4.53327        5.11403        5.18608
        5.29477        5.30532        5.33515        5.38661        5.58215
        5.72366        5.74783        5.76643        6.05934        6.07446
        6.09212        6.14310       36.98700       51.48788       51.49315
       51.51237       51.53709
 Time used in FCKEIG, thr_jaco:   2.20D-02  3.00D-02  5.17D-06
 CPU and wall times used in FCKEIG, THR_FCKEIG:   2.20D-02  3.00D-02  1.19D-03
 -----------------------------------------------------------------------------

 *** DIIS iteration number    5
 RDSUPM called. NFMAT, ISYMDM(1:NFMAT)                     1
                     1

 ITDIIS, energy, error norm, change in energy, scr.thr., difden:
@ DIIS iter.   5    -360.754933459        2.40694D-02   -1.14D-03  -20    F

 (DIIS_RED) Control Parameters C2DIIS =         F NEVC =    5


 (DIIS_RED) B matrix:

               Column   1     Column   2     Column   3     Column   4     Column   5
       1      13.67963952
       2       0.93327545     0.82188386
       3       0.59255007     0.06238304     0.11278164
       4      -0.00602708     0.07928389    -0.00924986     0.01409603
       5       0.01278196     0.00621519     0.00491410     0.00074173     0.00057934
    ==== End of matrix output ====

 DIIS C vector; C2DIIS = F, LAMBDA = -3.07D-04
    0.001428    0.008034   -0.072245   -0.133112    1.195896
* Read MO coefficients from SIRIUS.RST with label "NEWORB  " and header info:  4Dec18  DIIS   5
      Virial theorem: -V/T =      2.003114
@      MULPOP N      -0.64; H       0.22; H       0.21; H       0.23; O      -0.66; O      -0.64; O      -0.81; O      -0.63; H       0.31; H       0.36; 
@             H       0.34; H       0.30; H       0.38; H       0.37; H       0.32; H       0.33; 

 DIIS Fock eigenvalues in symmetry 1
      -20.57507      -20.57251      -20.54633      -20.53827      -15.54203
       -1.35203       -1.34411       -1.31670       -1.30517       -1.13108
       -0.71110       -0.70127       -0.69176       -0.68473       -0.63570
       -0.61748       -0.59966       -0.59029       -0.57018       -0.55800
       -0.53119       -0.52297       -0.51127       -0.48635       -0.43430
        0.00000        0.13391        0.16082        0.17366        0.21142
        0.22616        0.24193        0.26272        0.28104        0.29942
        0.30343        0.35217        0.48068        0.49160        0.52285
        0.55643        0.57157        0.58896        0.59438        0.60218
        0.62156        0.63493        0.67855        0.89385        0.91307
        0.93612        0.94684        0.96825        0.97039        0.99463
        1.01402        1.05552        1.07558        1.09442        1.10105
        1.13618        1.14028        1.18175        1.26361        1.32221
        1.33150        1.35590        1.37168        1.41216        1.45785
        1.48433        1.50207        1.51978        1.52708        1.53708
        1.55364        1.56236        1.68905        1.69366        1.70422
        1.75583        1.77055        1.78426        1.81193        1.87471
        1.90092        1.91498        1.95594        1.96033        1.99805
        2.15945        2.19887        2.20621        2.22621        2.24803
        2.26444        2.34551        2.35339        2.38796        2.44347
        2.53006        2.59322        2.60073        2.64429        2.72400
        2.73742        2.75827        2.80501        2.81271        2.83172
        2.84223        2.90713        2.97253        2.99117        3.16471
        3.36922        3.40996        3.43500        3.43801        3.44682
        3.46381        3.49034        3.49425        3.53535        3.54415
        3.54723        3.64193        3.66672        3.68332        3.95584
        3.97880        4.02257        4.08873        4.12257        4.21764
        4.21935        4.24101        4.53507        5.11566        5.18760
        5.29568        5.30781        5.33619        5.38843        5.58578
        5.72440        5.74807        5.76690        6.05989        6.07485
        6.09544        6.14291       36.99050       51.48932       51.49445
       51.51788       51.53820
 Time used in FCKEIG, thr_jaco:   2.10D-02  4.70D-02  1.05D-06
 CPU and wall times used in FCKEIG, THR_FCKEIG:   2.10D-02  4.70D-02  2.41D-04
 -----------------------------------------------------------------------------

 *** DIIS iteration number    6
 RDSUPM called. NFMAT, ISYMDM(1:NFMAT)                     1
                     1

 ITDIIS, energy, error norm, change in energy, scr.thr., difden:
@ DIIS iter.   6    -360.755019854        7.74877D-03   -8.64D-05  -20    F

 (DIIS_RED) Control Parameters C2DIIS =         F NEVC =    6


 (DIIS_RED) B matrix:

               Column   1     Column   2     Column   3     Column   4     Column   5     Column   6
       1      13.67963952
       2       0.93327545     0.82188386
       3       0.59255007     0.06238304     0.11278164
       4      -0.00602708     0.07928389    -0.00924986     0.01409603
       5       0.01278196     0.00621519     0.00491410     0.00074173     0.00057934
       6      -0.00194869    -0.00030907     0.00053944     0.00017673     0.00006814     0.00006004
    ==== End of matrix output ====

 DIIS C vector; C2DIIS = F, LAMBDA = -3.57D-05
    0.000468    0.008365   -0.025440   -0.081722    0.173126    0.925203
* Read MO coefficients from SIRIUS.RST with label "NEWORB  " and header info:  4Dec18  DIIS   6
      Virial theorem: -V/T =      2.003243
@      MULPOP N      -0.64; H       0.22; H       0.20; H       0.22; O      -0.66; O      -0.64; O      -0.82; O      -0.63; H       0.31; H       0.37; 
@             H       0.35; H       0.31; H       0.38; H       0.37; H       0.32; H       0.33; 

 DIIS Fock eigenvalues in symmetry 1
      -20.57549      -20.57287      -20.54866      -20.53803      -15.54538
       -1.35213       -1.34414       -1.31656       -1.30576       -1.13215
       -0.71131       -0.70144       -0.69239       -0.68477       -0.63652
       -0.61828       -0.59997       -0.59077       -0.57042       -0.55847
       -0.53116       -0.52288       -0.51159       -0.48619       -0.43523
        0.00000        0.13382        0.16073        0.17360        0.21131
        0.22602        0.24186        0.26266        0.28094        0.29923
        0.30328        0.35197        0.48039        0.49128        0.52271
        0.55627        0.57142        0.58875        0.59422        0.60205
        0.62146        0.63487        0.67824        0.89345        0.91254
        0.93564        0.94667        0.96811        0.97016        0.99432
        1.01392        1.05533        1.07537        1.09411        1.10094
        1.13606        1.14014        1.18153        1.26320        1.32200
        1.33144        1.35541        1.37155        1.41174        1.45754
        1.48420        1.50186        1.51953        1.52694        1.53693
        1.55350        1.56216        1.68884        1.69345        1.70405
        1.75562        1.77043        1.78386        1.81157        1.87447
        1.90069        1.91482        1.95558        1.95999        1.99770
        2.15874        2.19867        2.20599        2.22553        2.24771
        2.26423        2.34533        2.35317        2.38787        2.44303
        2.52959        2.59300        2.60055        2.64416        2.72369
        2.73714        2.75800        2.80478        2.81244        2.83145
        2.84200        2.90645        2.97144        2.99025        3.16385
        3.36848        3.40891        3.43471        3.43782        3.44564
        3.46383        3.49016        3.49411        3.53463        3.54413
        3.54662        3.64183        3.66653        3.68341        3.95571
        3.97861        4.02262        4.08799        4.12184        4.21748
        4.21923        4.24107        4.53325        5.11397        5.18594
        5.29545        5.30719        5.33599        5.38803        5.58460
        5.72419        5.74808        5.76672        6.05968        6.07457
        6.09424        6.14300       36.98723       51.48895       51.49402
       51.51601       51.53802
 Time used in FCKEIG, thr_jaco:   2.20D-02  4.20D-02  3.37D-07
 CPU and wall times used in FCKEIG, THR_FCKEIG:   2.20D-02  4.20D-02  7.75D-05
 -----------------------------------------------------------------------------

 *** DIIS iteration number    7
 RDSUPM called. NFMAT, ISYMDM(1:NFMAT)                     1
                     1

 ITDIIS, energy, error norm, change in energy, scr.thr., difden:
@ DIIS iter.   7    -360.755026009        2.53885D-03   -6.16D-06  -20    F

 (DIIS_RED) Control Parameters C2DIIS =         F NEVC =    7


 (DIIS_RED) B matrix:

               Column   1     Column   2     Column   3     Column   4     Column   5     Column   6
       1      13.67963952
       2       0.93327545     0.82188386
       3       0.59255007     0.06238304     0.11278164
       4      -0.00602708     0.07928389    -0.00924986     0.01409603
       5       0.01278196     0.00621519     0.00491410     0.00074173     0.00057934
       6      -0.00194869    -0.00030907     0.00053944     0.00017673     0.00006814     0.00006004
       7       0.00067816    -0.00001066     0.00008720    -0.00000489     0.00003700    -0.00000085

               Column   7
       7       0.00000645
    ==== End of matrix output ====

 DIIS C vector; C2DIIS = F, LAMBDA = -1.30D-06
   -0.000219   -0.001539    0.010327    0.024125   -0.170327    0.051635    1.085998
* Read MO coefficients from SIRIUS.RST with label "NEWORB  " and header info:  4Dec18  DIIS   7
      Virial theorem: -V/T =      2.003215
@      MULPOP N      -0.64; H       0.22; H       0.21; H       0.23; O      -0.66; O      -0.64; O      -0.82; O      -0.64; H       0.31; H       0.37; 
@             H       0.35; H       0.31; H       0.38; H       0.38; H       0.32; H       0.33; 

 DIIS Fock eigenvalues in symmetry 1
      -20.57545      -20.57280      -20.54789      -20.53812      -15.54473
       -1.35208       -1.34407       -1.31652       -1.30541       -1.13194
       -0.71130       -0.70141       -0.69218       -0.68476       -0.63643
       -0.61817       -0.59998       -0.59078       -0.57038       -0.55831
       -0.53109       -0.52276       -0.51126       -0.48609       -0.43498
        0.00000        0.13386        0.16074        0.17363        0.21136
        0.22605        0.24187        0.26269        0.28097        0.29926
        0.30331        0.35207        0.48046        0.49136        0.52276
        0.55633        0.57149        0.58883        0.59425        0.60206
        0.62149        0.63489        0.67831        0.89359        0.91267
        0.93573        0.94677        0.96819        0.97032        0.99443
        1.01398        1.05535        1.07546        1.09420        1.10098
        1.13614        1.14021        1.18159        1.26335        1.32207
        1.33149        1.35549        1.37163        1.41181        1.45770
        1.48421        1.50182        1.51954        1.52694        1.53695
        1.55353        1.56223        1.68888        1.69352        1.70408
        1.75572        1.77045        1.78393        1.81164        1.87449
        1.90067        1.91483        1.95565        1.96009        1.99776
        2.15884        2.19867        2.20597        2.22562        2.24780
        2.26426        2.34533        2.35315        2.38787        2.44316
        2.52969        2.59298        2.60054        2.64417        2.72371
        2.73716        2.75805        2.80489        2.81243        2.83143
        2.84201        2.90659        2.97164        2.99041        3.16399
        3.36882        3.40912        3.43479        3.43785        3.44587
        3.46385        3.49019        3.49417        3.53496        3.54418
        3.54691        3.64189        3.66657        3.68342        3.95576
        3.97863        4.02263        4.08832        4.12219        4.21752
        4.21929        4.24110        4.53362        5.11429        5.18624
        5.29550        5.30747        5.33607        5.38823        5.58506
        5.72425        5.74808        5.76675        6.05974        6.07460
        6.09470        6.14298       36.98786       51.48902       51.49406
       51.51664       51.53806
 Time used in FCKEIG, thr_jaco:   2.10D-02  5.60D-02  1.10D-07
 CPU and wall times used in FCKEIG, THR_FCKEIG:   2.10D-02  5.60D-02  2.54D-05
 -----------------------------------------------------------------------------

 *** DIIS iteration number    8
 RDSUPM called. NFMAT, ISYMDM(1:NFMAT)                     1
                     1

 ITDIIS, energy, error norm, change in energy, scr.thr., difden:
@ DIIS iter.   8    -360.755026652        3.57982D-04   -6.44D-07  -20    F

 (DIIS_RED) Control Parameters C2DIIS =         F NEVC =    8


 (DIIS_RED) B matrix:

               Column   1     Column   2     Column   3     Column   4     Column   5     Column   6
       1      13.67963952
       2       0.93327545     0.82188386
       3       0.59255007     0.06238304     0.11278164
       4      -0.00602708     0.07928389    -0.00924986     0.01409603
       5       0.01278196     0.00621519     0.00491410     0.00074173     0.00057934
       6      -0.00194869    -0.00030907     0.00053944     0.00017673     0.00006814     0.00006004
       7       0.00067816    -0.00001066     0.00008720    -0.00000489     0.00003700    -0.00000085
       8       0.00004995     0.00000452    -0.00000191     0.00000395     0.00000109     0.00000139

               Column   7     Column   8
       7       0.00000645
       8       0.00000028     0.00000013
    ==== End of matrix output ====

 DIIS C vector; C2DIIS = F, LAMBDA = -7.04D-08
    0.000007   -0.000000   -0.000657   -0.001312    0.019177   -0.039722   -0.148574    1.171081
* Read MO coefficients from SIRIUS.RST with label "NEWORB  " and header info:  4Dec18  DIIS   8
      Virial theorem: -V/T =      2.003231
@      MULPOP N      -0.64; H       0.22; H       0.21; H       0.22; O      -0.66; O      -0.64; O      -0.82; O      -0.64; H       0.31; H       0.37; 
@             H       0.35; H       0.31; H       0.38; H       0.38; H       0.32; H       0.33; 

 DIIS Fock eigenvalues in symmetry 1
      -20.57542      -20.57278      -20.54793      -20.53806      -15.54476
       -1.35207       -1.34406       -1.31650       -1.30543       -1.13194
       -0.71129       -0.70140       -0.69219       -0.68473       -0.63644
       -0.61818       -0.59999       -0.59079       -0.57039       -0.55832
       -0.53108       -0.52275       -0.51126       -0.48607       -0.43499
        0.00000        0.13385        0.16074        0.17363        0.21137
        0.22605        0.24187        0.26269        0.28097        0.29925
        0.30331        0.35206        0.48045        0.49135        0.52276
        0.55633        0.57149        0.58882        0.59425        0.60206
        0.62150        0.63489        0.67830        0.89359        0.91267
        0.93572        0.94676        0.96819        0.97032        0.99443
        1.01399        1.05535        1.07546        1.09419        1.10099
        1.13614        1.14021        1.18159        1.26334        1.32207
        1.33150        1.35548        1.37163        1.41180        1.45769
        1.48421        1.50182        1.51953        1.52694        1.53695
        1.55353        1.56223        1.68887        1.69351        1.70408
        1.75572        1.77046        1.78392        1.81164        1.87449
        1.90067        1.91484        1.95564        1.96008        1.99775
        2.15883        2.19867        2.20597        2.22561        2.24780
        2.26427        2.34533        2.35315        2.38787        2.44314
        2.52968        2.59298        2.60054        2.64417        2.72370
        2.73717        2.75805        2.80486        2.81242        2.83143
        2.84201        2.90657        2.97163        2.99040        3.16398
        3.36881        3.40911        3.43480        3.43786        3.44586
        3.46387        3.49020        3.49418        3.53494        3.54420
        3.54690        3.64190        3.66657        3.68344        3.95576
        3.97863        4.02264        4.08830        4.12217        4.21753
        4.21930        4.24112        4.53360        5.11427        5.18623
        5.29551        5.30746        5.33608        5.38823        5.58503
        5.72426        5.74811        5.76676        6.05975        6.07462
        6.09467        6.14301       36.98784       51.48905       51.49409
       51.51661       51.53810
 Time used in FCKEIG, thr_jaco:   2.20D-02  4.80D-02  1.56D-08
 CPU and wall times used in FCKEIG, THR_FCKEIG:   2.20D-02  4.80D-02  3.58D-06
 -----------------------------------------------------------------------------

 *** DIIS iteration number    9
 RDSUPM called. NFMAT, ISYMDM(1:NFMAT)                     1
                     1

 ITDIIS, energy, error norm, change in energy, scr.thr., difden:
@ DIIS iter.   9    -360.755026671        9.68068D-05   -1.81D-08  -20    F

 (DIIS_RED) Control Parameters C2DIIS =         F NEVC =    8


 (DIIS_RED) B matrix:

               Column   1     Column   2     Column   3     Column   4     Column   5     Column   6
       1       0.00000001
       2       0.00000011     0.82188386
       3      -0.00000008     0.06238304     0.11278164
       4       0.00000015     0.07928389    -0.00924986     0.01409603
       5       0.00000014     0.00621519     0.00491410     0.00074173     0.00057934
[...]
 | 1 1 1 1 |  26   1  12   1 |     1478        1 |      1091504 |   -0.143887  |
 | 1 1 1 1 |  28   1  12   1 |     1480        1 |      1094461 |    0.085470  |
 | 1 1 1 1 |  11   1  14   1 |     1727        1 |      1490402 |   -0.075444  |
 | 1 1 1 1 |  30   1  14   1 |     1746        1 |      1523386 |   -0.069307  |
 | 1 1 1 1 |   5   1  21   1 |     2645        1 |      3496691 |   -0.069268  |
 | 1 1 1 1 |  12   1  21   1 |     2652        1 |      3515227 |   -0.127350  |
 | 1 1 1 1 |  16   1  21   1 |     2656        1 |      3525841 |    0.070913  |
 | 1 1 1 1 |  24   1  21   1 |     2664        1 |      3547117 |    0.105793  |
 | 1 1 1 1 |  25   1  21   1 |     2665        1 |      3549781 |    0.159920  |
 | 1 1 1 1 | 113   1  21   1 |     2753        1 |      3788129 |    0.108852  |
 +=============================================================================+


          Norm of Printed Amplitude Vector :             0.8726

          Printed all single excitations greater than 0.377604

          Printed all double excitations greater than 0.065549



+======================================================================+
| contributions of excitation levels to right eigenvectors as computed |
| from the (RE|RE) self overlap                                        |
+----------------------------------------------------------------------+
| sym | multi | state |    E / eV  | % singles | % doubles | % triples |
+======================================================================+
|    1|   1   |   1   |  406.78380 |  88.0741  |  11.9259  |   0.0000  |
+======================================================================+





+======================================================================+
| contributions of excitation levels to excited states as computed     |
| from the (LE|RE) overlap                                             |
+----------------------------------------------------------------------+
| sym | multi | state |    E / eV  | % singles | % doubles | % triples |
+======================================================================+
|    1|   1   |   1   |  406.78380 |  78.6619  |  21.3381  |   0.0000  |
+======================================================================+



 --------------------------
 Symmetry class Nr.:     1
 Multiplicity      :     3
 --------------------------

 Length of Excitation vectors in this class is:   7689528
 No Excitation Energies calculated in this symmetry class
     

   *******************************************************************
   *                                                                 *
   *--------   OUTPUT FROM PROPERTY AND SYMMETRY ANALYSIS   ---------*
   *                                                                 *
   *******************************************************************



                         +-------------------------------+
                         ! REQUESTED PROPERTY OPERATORS: !
                         +-------------------------------+

             Index   Oper. Label  Symmetry  Transp.  PDBS  Atom
             --------------------------------------------------
                1     HAM0            1        1      T      0
                2     XDIPLEN         1        1      F      0
                3     YDIPLEN         1        1      F      0
                4     ZDIPLEN         1        1      F      0
             --------------------------------------------------




                         +-------------------------------+
                         ! REQUESTED EXPECTATION VALUES: !
                         +-------------------------------+

                       Index   Oper. Label  Symmetry
                       -----------------------------
                       -----------------------------




                       +------------------------------------+
                       ! REQUESTED EFFECTIVE FOCK MATRICES: !
                       +------------------------------------+

                       Index   Oper. Label  Symmetry
                       -----------------------------
                       -----------------------------




                        +----------------------------------+
                        ! REQUESTED FIRST ORDER M-VECTORS: !
                        +----------------------------------+

               Index   State Symmetry  Frequency
               --------------------------------------------------
                  1             1    1     1.494903D+01
               --------------------------------------------------


      

    *******************************************************************
    *          SOLVING COUPLED CLUSTER RESPONSE EQUATIONS             *
    *******************************************************************



 
 +======================================================================+
 !                     RHS & ETA VECTORS TO COMPUTE:                    !
 +======================================================================+
 | TYPE | # VEC. |  NEEDED FOR:                                         |
 +----------------------------------------------------------------------+
 +======================================================================+



 +======================================================================+
 !                       LINEAR EQUATIONS TO SOLVE:                     !
 +======================================================================+
 | TYPE | # VEC. |  EQUATION:                                           |
 +----------------------------------------------------------------------+
 |  M1  |    1   |  first-order ground - excited state multipliers      |
 +======================================================================+



 +======================================================================+
 !                F MATRIX TRANSFORMATIONS TO COMPUTE:                  !
 +======================================================================+
 | TYPE | # VEC. |  TRANSFORMED:                                        |
 +----------------------------------------------------------------------+
 |  FR  |    1   |  right eigenvectors (RE)                             |
 +======================================================================+





 Testing R1 list: 

 List nr.  Label     Symmetry      Frequency      T1-norm        T2-norm


 Testing L1 list: 

 List nr.  Label     Symmetry      Frequency      T1-norm        T2-norm
  Solvent 1-order response equations converged in                     0 
  solvent iterations
 SONIAPRI                     0
 CCEQ_STR: CVSEPARATION =  T
 CCEQ_STR: IONIZATION =  T
 CCEQ_STR: REMOVE_CORE =  F
 could not find required file CCM1_1___1
 IOPTSV is    33 ... program continues nevertheless.
 Vector nr.  1 of type M1  and symmetry  1 was not found on file.
     M1  start vector nr.  1 of symmetry  1 generated from gradient
 CCEQ_STR: freeze VALENCE OR VIRT
 CCEQ_SOL: CVSEPARA=     T
 CCEQ_SOL: LIONISAT=     T
 CCEQ_SOL: REMOVE_CORE =  F



 ----- COUPLED CLUSTER RESPONSE SOLVER -----

    Iter  #Vectors  time (min)   residual
    --------------------------------------
 CCRED CVS/IONIS sigma_                     1 
 project out valence occupied or virtual
      1       1         1.38     0.32E+00
 CCRED CVS/IONIS sigma_                     2 
 project out valence occupied or virtual
      2       1         1.38     0.69E-01
 CCRED CVS/IONIS sigma_                     3 
 project out valence occupied or virtual
                    -1  vectors with norm le:  1.000000000000000E-035  REMOVED

 CCORT,**WARNING**  number vectors added is zero after check for vector norm , NBADD :    0

 CCORT, number vectors added is zero , NBADD :    0

 CCORT, number vectors added is zero , NBADD :    0

 CCORT, number vectors added is zero , NBADD :    0

 *** MICROITERATIONS STOPPED DUE TO LINEAR DEPENDENCE BETWEEN ALL NEW TRIAL VECTORS
                     0  trial vectors converged
  LINEAR DEPENDENCE BETWEEN                     1  NON CONVERGED TRIAL VECTORS
      3       1         1.37     0.72E-02

 ***  CCEQ_SOL -MICROITERATIONS STOPPED  
     LINEAR DEPENDENCE BETWEEN ALL NEW TRIAL VECTORS
    --------------------------------------
    converged in  3 iterations
    threshold:    0.10E-08


         Routine          Time (min)
         ---------------------------
         CC_TRDRV            4.13
         CCRED               0.02
         CCNEX               0.03
         ---------------------------
         Total time          4.18


  Total CPU  time used in CCEQ_SOLV:  4 minutes 11 seconds
  Total wall time used in CCEQ_SOLV:  4 minutes 40 seconds


 xxxxxxxxxxxxxxxxxxxxxxxxxxxxxxxxxxxxx

 
 Solution of CC response equations completed.
 

 *******************************************************************
 *                                                                 *
 *--------  OUTPUT FROM COUPLED CLUSTER LINEAR RESPONSE   ---------*
 *                                                                 *
 *--------      CALCULATION OF SECOND ORDER RESIDUES      ---------*
 *                                                                 *
 *******************************************************************



                  +---------------------------------------------+
                  ! CC_SOPR: Calculation of CCSD       Residues !
                  +---------------------------------------------+

 Doing the Mf*CsiA
 Doing the Mf*CsiA
 Doing the Mf*CsiA


 CCSD  Right transition moments in atomic units:
 -----------------------------------------------

  1      14.949030  <XDIPLEN |f> =      -0.00000000
  1      14.949030  <YDIPLEN |f> =      -0.00000000
  1      14.949030  <ZDIPLEN |f> =       0.00000001


 CCSD  Left  transition moments in atomic units:
 -----------------------------------------------

  1      14.949030  <f|XDIPLEN > =      -0.00000000
  1      14.949030  <f|YDIPLEN > =      -0.00000000
  1      14.949030  <f|ZDIPLEN > =       0.00000000


 CCSD  linear response residue property in atomic units:
 -------------------------------------------------------

 RES{<<XDIPLEN ,XDIPLEN >>(14.949030)} =     0.00000000 (   0.00000000)
 RES{<<XDIPLEN ,YDIPLEN >>(14.949030)} =     0.00000000 (   0.00000000)
 RES{<<XDIPLEN ,ZDIPLEN >>(14.949030)} =    -0.00000000 (  -0.00000000)
 RES{<<YDIPLEN ,XDIPLEN >>(14.949030)} =     0.00000000 (   0.00000000)
 RES{<<YDIPLEN ,YDIPLEN >>(14.949030)} =     0.00000000 (   0.00000000)
 RES{<<YDIPLEN ,ZDIPLEN >>(14.949030)} =    -0.00000000 (  -0.00000000)
 RES{<<ZDIPLEN ,XDIPLEN >>(14.949030)} =    -0.00000000 (  -0.00000000)
 RES{<<ZDIPLEN ,YDIPLEN >>(14.949030)} =    -0.00000000 (  -0.00000000)
 RES{<<ZDIPLEN ,ZDIPLEN >>(14.949030)} =     0.00000000 (   0.00000001)


 CCSD  Transition strength matrix for state nr.  1 of symmetry 1
 CCSD  excitation energy:14.94902992

 Gauge: length

               Column   1     Column   2     Column   3
       1     2.158482D-19   1.394502D-18  -2.487435D-18
       2     1.394502D-18   8.671568D-18  -1.548810D-17
       3    -2.487435D-18  -1.548810D-17   2.766169D-17
    ==== End of matrix output ====

 Principal values of diagonalized transition strength matrix:

             a.u.               
 1       0.00000000
 2       0.00000000
 3       0.00000000

 Principal axis of diagonalized transition strength matrix:


               Column   1     Column   2     Column   3
       1       1.00000000     0.00000000     0.00000000
       2       0.00000000     1.00000000     0.00000000
       3       0.00000000     0.00000000     1.00000000
    ==== End of matrix output ====


 CCSD   oscillator strength matrix for state nr.  1 of symmetry 1
 CCSD  excitation energy:14.94902992


               Column   1     Column   2     Column   3
       1     2.151147D-18   1.389764D-17  -2.478983D-17
       2     1.389764D-17   8.642101D-17  -1.543547D-16
       3    -2.478983D-17  -1.543547D-16   2.756770D-16
    ==== End of matrix output ====

 Principal values of diagonalized oscillator strength matrix:

             a.u.               
 1       0.00000000
 2       0.00000000
 3       0.00000000

 Principal axis of diagonalized oscillator strength matrix:


               Column   1     Column   2     Column   3
       1       1.00000000     0.00000000     0.00000000
       2       0.00000000     1.00000000     0.00000000
       3       0.00000000     0.00000000     1.00000000
    ==== End of matrix output ====

  Total time for      9 linear response residues:       2.85 seconds.
  

 *******************************************************************************
 *******************************************************************************
 *                                                                             *
 *                                                                             *
 *                   SUMMARY OF COUPLED CLUSTER CALCULATION                    *
 *                                                                             *
 *                                                                             *
 *******************************************************************************
 *******************************************************************************

                                                                                
                                                                                
            Total SCF   energy:                  -360.7550266718                
            Total MP2   energy:                  -361.8576697672                
            Total CCSD  energy:                  -361.8978181255                
                                                                                
                                                                                
            Total SCF   energy:                  -360.7550266718                
            Total RSTAR energy:                  -361.8978181255                
            Total CCSD  energy:                  -361.8979674823                
                                                                                
                                                                                
            Total SCF   energy:                  -360.7550266718                
            Total RSTAR energy:                  -361.8979674823                
            Total CCSD  energy:                  -361.8979690449                
                                                                                
                                                                                
            Total SCF   energy:                  -360.7550266718                
            Total RSTAR energy:                  -361.8979690449                
            Total CCSD  energy:                  -361.8979691735                
                                                                                
                                                                                
            Total SCF   energy:                  -360.7550266718                
            Total RSTAR energy:                  -361.8979691735                
            Total CCSD  energy:                  -361.8979691794                
                                                                                
                                                                                
            Total SCF   energy:                  -360.7550266718                
            Total RSTAR energy:                  -361.8979691794                
            Total CCSD  energy:                  -361.8979691797                
            CCSD Total  energy:                  -362.2899268669                
            CCSD E(QM/MM)     :                    -0.3870966568                
                                                                                
                                                                                
                                                                                
 +=============================================================================+
 |  sym. | Exci.  |        CCSD       Excitation energies            | ||T1||  |
 |(spin, |        +------------------------------------------------------------+
 | spat) |        |     Hartree    |       eV.      |     cm-1       |    %    |
 +=============================================================================+
 | ^1A   |    1   |    14.9490299  |     406.78380  |   3280932.801  |  88.07  |
 +=============================================================================+
                                                                                
                                                                                
     Total energies in Hartree:                                                 
             1 ^1A       -346.9538002885                                        
                                                                                
                                                                                
 +=============================================================================+
 |  sym. | Exci.  |        CCSD       Length   Gauge Oscillator Strength       |
 |(spin, |        +------------------------------------------------------------+
 | spat) |        | Dipole Strength(a.u.) | Oscillator strength  | Direction   |
 +=============================================================================+
 | ^1A   |    1   |        0.0000000      |      0.0000000       |    -        |
 +=============================================================================+

  1 a.u. =        27.21138 eV.  
  1 a.u. =    219474.62934 cm-1.
  

 *******************************************************************************
 *******************************************************************************
 *                                                                             *
 *                                                                             *
 *                      END OF COUPLED CLUSTER CALCULATION                     *
 *                                                                             *
 *                                                                             *
 *******************************************************************************
 *******************************************************************************


 CPU and wall time for CC :    6392.969   14786.807

 
     Date and time (Linux)  : Tue Dec  4 13:31:29 2018
     Host name              : n-62-24-3                               


                      .-------------------------------------.
                      | End of Coupled Cluster Section (CC) |
                      `-------------------------------------'

  Total CPU  time used in DALTON:   1 hour  48 minutes 37 seconds
  Total wall time used in DALTON:   4 hours 12 minutes 17 seconds

 
     Date and time (Linux)  : Tue Dec  4 13:31:29 2018
     Host name              : n-62-24-3                               
  

 +---------------------------------------------------------+ 
 | List of selected calculated molecular properties (a.u.) | 
 +---------------------------------------------------------+ 

  Properties are read from unit number                      4

 CCSD       properties :
 #  1 1 CCSD/MM  Ground state Energy =    -362.2899268669
 #  2 1 E_QM/MM  Ground state Energy =      -0.3870966568
 #  3 1 Sy: 1 Sp: 1 Exc:  1 E_tot:   -346.9538002885 w:     14.9490299217 E_grs:   -361.9028302101
 #  4 1 Exctot   Excited state Energy =    -346.9538002885
 #  5 1 |<O|XDIPLEN |i(14.949030)>| =     0.00000000
 #  7 1 |<O|YDIPLEN |i(14.949030)>| =     0.00000000
 #  9 1 |<O|ZDIPLEN |i(14.949030)>| =     0.00000001

 THE_END   
