

     ************************************************************************
     *************** Dalton - An Electronic Structure Program ***************
     ************************************************************************

    This is output from DALTON release Dalton2017.alpha (2016)
         ( Web site: http://daltonprogram.org )

   ----------------------------------------------------------------------------

    NOTE:
     
    Dalton is an experimental code for the evaluation of molecular
    properties using (MC)SCF, DFT, CI, and CC wave functions.
    The authors accept no responsibility for the performance of
    the code or for the correctness of the results.
     
    The code (in whole or part) is provided under a licence and
    is not to be reproduced for further distribution without
    the written permission of the authors or their representatives.
     
    See the home page "http://daltonprogram.org" for further information.
     
    If results obtained with this code are published,
    the appropriate citations would be both of:
     
       K. Aidas, C. Angeli, K. L. Bak, V. Bakken, R. Bast,
       L. Boman, O. Christiansen, R. Cimiraglia, S. Coriani,
       P. Dahle, E. K. Dalskov, U. Ekstroem,
       T. Enevoldsen, J. J. Eriksen, P. Ettenhuber, B. Fernandez,
       L. Ferrighi, H. Fliegl, L. Frediani, K. Hald, A. Halkier,
       C. Haettig, H. Heiberg, T. Helgaker, A. C. Hennum,
       H. Hettema, E. Hjertenaes, S. Hoest, I.-M. Hoeyvik,
       M. F. Iozzi, B. Jansik, H. J. Aa. Jensen, D. Jonsson,
       P. Joergensen, J. Kauczor, S. Kirpekar,
       T. Kjaergaard, W. Klopper, S. Knecht, R. Kobayashi, H. Koch,
       J. Kongsted, A. Krapp, K. Kristensen, A. Ligabue,
       O. B. Lutnaes, J. I. Melo, K. V. Mikkelsen, R. H. Myhre,
       C. Neiss, C. B. Nielsen, P. Norman, J. Olsen,
       J. M. H. Olsen, A. Osted, M. J. Packer, F. Pawlowski,
       T. B. Pedersen, P. F. Provasi, S. Reine, Z. Rinkevicius,
       T. A. Ruden, K. Ruud, V. Rybkin, P. Salek, C. C. M. Samson,
       A. Sanchez de Meras, T. Saue, S. P. A. Sauer,
       B. Schimmelpfennig, K. Sneskov, A. H. Steindal,
       K. O. Sylvester-Hvid, P. R. Taylor, A. M. Teale,
       E. I. Tellgren, D. P. Tew, A. J. Thorvaldsen, L. Thoegersen,
       O. Vahtras, M. A. Watson, D. J. D. Wilson, M. Ziolkowski
       and H. Agren,
       "The Dalton quantum chemistry program system",
       WIREs Comput. Mol. Sci. 2014, 4:269–284 (doi: 10.1002/wcms.1172)
     
    and
     
       Dalton, a Molecular Electronic Structure Program,
       Release Dalton2017.alpha (2016), see http://daltonprogram.org
   ----------------------------------------------------------------------------

    Authors in alphabetical order (major contribution(s) in parenthesis):

  Kestutis Aidas,           Vilnius University,           Lithuania   (QM/MM)
  Celestino Angeli,         University of Ferrara,        Italy       (NEVPT2)
  Keld L. Bak,              UNI-C,                        Denmark     (AOSOPPA, non-adiabatic coupling, magnetic properties)
  Vebjoern Bakken,          University of Oslo,           Norway      (DALTON; geometry optimizer, symmetry detection)
  Radovan Bast,             UiT The Arctic U. of Norway,  Norway      (DALTON installation and execution frameworks)
  Pablo Baudin,             University of Valencia,       Spain       (Cholesky excitation energies)
  Linus Boman,              NTNU,                         Norway      (Cholesky decomposition and subsystems)
  Ove Christiansen,         Aarhus University,            Denmark     (CC module)
  Renzo Cimiraglia,         University of Ferrara,        Italy       (NEVPT2)
  Sonia Coriani,            University of Trieste,        Italy       (CC module, MCD in RESPONS)
  Janusz Cukras,            University of Trieste,        Italy       (MChD in RESPONS)
  Paal Dahle,               University of Oslo,           Norway      (Parallelization)
  Erik K. Dalskov,          UNI-C,                        Denmark     (SOPPA)
  Thomas Enevoldsen,        Univ. of Southern Denmark,    Denmark     (SOPPA)
  Janus J. Eriksen,         Aarhus University,            Denmark     (Polarizable embedding model, TDA)
  Rasmus Faber,             University of Copenhagen,     Denmark     (Vib.avg. NMR with SOPPA, parallel AO-SOPPA)
  Berta Fernandez,          U. of Santiago de Compostela, Spain       (doublet spin, ESR in RESPONS)
  Lara Ferrighi,            Aarhus University,            Denmark     (PCM Cubic response)
  Heike Fliegl,             University of Oslo,           Norway      (CCSD(R12))
  Luca Frediani,            UiT The Arctic U. of Norway,  Norway      (PCM)
  Bin Gao,                  UiT The Arctic U. of Norway,  Norway      (Gen1Int library)
  Christof Haettig,         Ruhr-University Bochum,       Germany     (CC module)
  Kasper Hald,              Aarhus University,            Denmark     (CC module)
  Asger Halkier,            Aarhus University,            Denmark     (CC module)
  Frederik Beyer Hansen,    University of Copenhagen,     Denmark     (Parallel AO-SOPPA)
  Erik D. Hedegaard,        Univ. of Southern Denmark,    Denmark     (Polarizable embedding model, QM/MM)
  Hanne Heiberg,            University of Oslo,           Norway      (geometry analysis, selected one-electron integrals)
  Trygve Helgaker,          University of Oslo,           Norway      (DALTON; ABACUS, ERI, DFT modules, London, and much more)
  Alf Christian Hennum,     University of Oslo,           Norway      (Parity violation)
  Hinne Hettema,            University of Auckland,       New Zealand (quadratic response in RESPONS; SIRIUS supersymmetry)
  Eirik Hjertenaes,         NTNU,                         Norway      (Cholesky decomposition)
  Pi A. B. Haase,           University of Copenhagen,     Denmark     (Triplet AO-SOPPA)
  Maria Francesca Iozzi,    University of Oslo,           Norway      (RPA)
  Brano Jansik              Technical Univ. of Ostrava    Czech Rep.  (DFT cubic response)
  Hans Joergen Aa. Jensen,  Univ. of Southern Denmark,    Denmark     (DALTON; SIRIUS, RESPONS, ABACUS modules, London, and much more)
  Dan Jonsson,              UiT The Arctic U. of Norway,  Norway      (cubic response in RESPONS module)
  Poul Joergensen,          Aarhus University,            Denmark     (RESPONS, ABACUS, and CC modules)
  Maciej Kaminski,          University of Warsaw,         Poland      (CPPh in RESPONS)
  Joanna Kauczor,           Linkoeping University,        Sweden      (Complex polarization propagator (CPP) module)
  Sheela Kirpekar,          Univ. of Southern Denmark,    Denmark     (Mass-velocity & Darwin integrals)
  Wim Klopper,              KIT Karlsruhe,                Germany     (R12 code in CC, SIRIUS, and ABACUS modules)
  Stefan Knecht,            ETH Zurich,                   Switzerland (Parallel CI and MCSCF)
  Rika Kobayashi,           Australian National Univ.,    Australia   (DIIS in CC, London in MCSCF)
  Henrik Koch,              NTNU,                         Norway      (CC module, Cholesky decomposition)
  Jacob Kongsted,           Univ. of Southern Denmark,    Denmark     (Polarizable embedding model, QM/MM)
  Andrea Ligabue,           University of Modena,         Italy       (CTOCD, AOSOPPA)
  Nanna H. List             Univ. of Southern Denmark,    Denmark     (Polarizable embedding model)
  Ola B. Lutnaes,           University of Oslo,           Norway      (DFT Hessian)
  Juan I. Melo,             University of Buenos Aires,   Argentina   (LRESC, Relativistic Effects on NMR Shieldings)
  Kurt V. Mikkelsen,        University of Copenhagen,     Denmark     (MC-SCRF and QM/MM)
  Rolf H. Myhre,            NTNU,                         Norway      (Cholesky, subsystems and ECC2)
  Christian Neiss,          Univ. Erlangen-Nuernberg,     Germany     (CCSD(R12))
  Christian B. Nielsen,     University of Copenhagen,     Denmark     (QM/MM)
  Patrick Norman,           Linkoeping University,        Sweden      (Cubic response and complex frequency response in RESPONS)
  Jeppe Olsen,              Aarhus University,            Denmark     (SIRIUS CI/density modules)
  Jogvan Magnus H. Olsen,   Univ. of Southern Denmark,    Denmark     (Polarizable embedding model, QM/MM)
  Anders Osted,             Copenhagen University,        Denmark     (QM/MM)
  Martin J. Packer,         University of Sheffield,      UK          (SOPPA)
  Filip Pawlowski,          Kazimierz Wielki University,  Poland      (CC3)
  Morten N. Pedersen,       Univ. of Southern Denmark,    Denmark     (Polarizable embedding model)
  Thomas B. Pedersen,       University of Oslo,           Norway      (Cholesky decomposition)
  Patricio F. Provasi,      University of Northeastern,   Argentina   (Analysis of coupling constants in localized orbitals)
  Zilvinas Rinkevicius,     KTH Stockholm,                Sweden      (open-shell DFT, ESR)
  Elias Rudberg,            KTH Stockholm,                Sweden      (DFT grid and basis info)
  Torgeir A. Ruden,         University of Oslo,           Norway      (Numerical derivatives in ABACUS)
  Kenneth Ruud,             UiT The Arctic U. of Norway,  Norway      (DALTON; ABACUS magnetic properties and much more)
  Pawel Salek,              KTH Stockholm,                Sweden      (DALTON; DFT code)
  Claire C. M. Samson       University of Karlsruhe       Germany     (Boys localization, r12 integrals in ERI)
  Alfredo Sanchez de Meras, University of Valencia,       Spain       (CC module, Cholesky decomposition)
  Trond Saue,               Paul Sabatier University,     France      (direct Fock matrix construction)
  Stephan P. A. Sauer,      University of Copenhagen,     Denmark     (SOPPA(CCSD), SOPPA prop., AOSOPPA, vibrational g-factors)
  Bernd Schimmelpfennig,    Forschungszentrum Karlsruhe,  Germany     (AMFI module)
  Kristian Sneskov,         Aarhus University,            Denmark     (Polarizable embedding model, QM/MM)
  Arnfinn H. Steindal,      UiT The Arctic U. of Norway,  Norway      (parallel QM/MM, Polarizable embedding model)
  Casper Steinmann,         Univ. of Southern Denmark,    Denmark     (QFIT, Polarizable embedding model)
  K. O. Sylvester-Hvid,     University of Copenhagen,     Denmark     (MC-SCRF)
  Peter R. Taylor,          VLSCI/Univ. of Melbourne,     Australia   (Symmetry handling ABACUS, integral transformation)
  Andrew M. Teale,          University of Nottingham,     England     (DFT-AC, DFT-D)
  David P. Tew,             University of Bristol,        England     (CCSD(R12))
  Olav Vahtras,             KTH Stockholm,                Sweden      (triplet response, spin-orbit, ESR, TDDFT, open-shell DFT)
  David J. Wilson,          La Trobe University,          Australia   (DFT Hessian and DFT magnetizabilities)
  Hans Agren,               KTH Stockholm,                Sweden      (SIRIUS module, RESPONS, MC-SCRF solvation model)
 --------------------------------------------------------------------------------

     Date and time (Linux)  : Mon Dec  3 17:54:11 2018
     Host name              : n-62-23-32                              

 * Work memory size             :  1280000000 =  9.537 gigabytes.

 * Directories for basis set searches:
   1) /zhome/d7/7/119775/My_Codes/dalton-private/build2016/basis/diffs
   2) /zhome/37/3/129401/NH3NH4/CCSD/AIMD_SAMPLING/nh3_4h2o_nd
   3) /zhome/9a/4/124800/source/dalton/build-mlcc/basis


Compilation information
-----------------------

 Who compiled             | rfaber
 Host                     | hpclogin1
 System                   | Linux-2.6.32-696.1.1.el6.x86_64
 CMake generator          | Unix Makefiles
 Processor                | x86_64
 64-bit integers          | ON
 MPI                      | OFF
 Fortran compiler         | /opt/intel/2016update2/compilers_and_libraries_201
                          | 6.2.181/linux/bin/intel64/ifort
 Fortran compiler version | ifort (IFORT) 16.0.2 20160204
 C compiler               | /opt/intel/2016update2/compilers_and_libraries_201
                          | 6.2.181/linux/bin/intel64/icc
 C compiler version       | icc (ICC) 16.0.2 20160204
 C++ compiler             | /opt/intel/2016update2/compilers_and_libraries_201
                          | 6.2.181/linux/bin/intel64/icpc
 C++ compiler version     | icpc (ICC) 16.0.2 20160204
 Static linking           | OFF
 Last Git revision        | bb4d1599ca5680a9f3980451fc8bbefdba436d59
 Git branch               | mlcc
 Configuration time       | 2017-06-13 16:11:03.928841


   Content of the .dal input file
 ----------------------------------

**DALTON
.RUN WAVE FUNCTIONS
*QMMM
.QMMM
**INTEGRALS
.DIPLEN
**WAVE FUNCTIONS
.CC
*PRINT
!To check the origin of excit
.PRINTL
   0 11
*SCF INP
.THRESH
1.0D-7
*CC INP
.CCSD
.THRLEQ
 1.0D-9
.THRENR
 1.0D-10
.FROIMP
4
0
.PRINT
 1
.MAX IT
 1200
.MAXRED
 1200
.MXLRV
1199
*CCSLV
.CCMM
.MXSLIT
200
.MXINIT
4 5
*CCEXCI
.NCCEXC
 1
.IONISATION
1
1
.CVSEPARA
1
1
*CCLRSD
.DIPOLE
**END OF DALTON INPUT


   Content of the .mol file
 ----------------------------

ATOMBASIS


Atomtypes=5 Charge=0 Nosymm Angstrom
   7.00000    1    Basis=6-311G**
N          0.000000        0.000000        0.000000
   1.00000    3    Basis=6-311G**
H          0.481633        0.569987        0.712305
H         -0.960380        0.014903        0.197262
H          0.186459       -1.025633        0.050184
   8.00000    4    Basis=6-311G**
O          0.783447       -3.501464       -1.162523
O         -1.234141       -2.747994        0.523817
O         -0.345734        0.184155       -2.705163
O          0.478930        2.568439        2.128568
   1.00000    8    Basis=6-311G**
H          1.112505       -4.417801       -1.017573
H          0.034538       -3.289331       -0.537214
H         -1.131043       -3.112942        1.429773
H         -2.125843       -2.269683        0.423987
H          0.288476       -0.057804       -3.463419
H         -0.004078        0.206952       -1.736940
H          0.022643        2.217413        2.954262
H          0.953338        3.356578        2.476930
   0.00000    1    Basis=diffs
X          0.000000        0.000000        0.000000


       *******************************************************************
       *********** Output from DALTON general input processing ***********
       *******************************************************************

 --------------------------------------------------------------------------------
   Overall default print level:    0
   Print level for DALTON.STAT:    1

    HERMIT 1- and 2-electron integral sections will be executed
    "Old" integral transformation used (limited to max 255 basis functions)
    Wave function sections will be executed (SIRIUS module)
 --------------------------------------------------------------------------------


 Changes of defaults for *QMMM  :
 --------------------------------

 +------------------+
 |  WORD: | CHANGE: |
 +------------------+
 |   QMMM |       T |
 +------------------+
 


   ****************************************************************************
   *************** Output of molecule and basis set information ***************
   ****************************************************************************


    The two title cards from your ".mol" input:
    ------------------------------------------------------------------------
 1:                                                                         
 2:                                                                         
    ------------------------------------------------------------------------

  Coordinates are entered in Angstrom and converted to atomic units.
          - Conversion factor : 1 bohr = 0.52917721 A

  Atomic type no.    1
  --------------------
  Nuclear charge:   7.00000
  Number of symmetry independent centers:    1
  Number of basis sets to read;    2
  The basis set is "6-311G**" from the basis set library.
  Basis set file used for this atomic type with Z =   7 :
     "/zhome/9a/4/124800/source/dalton/build-mlcc/basis/6-311G**"

  Info about the basis set file: your basis has no documentation.
  Basis set: 6-311G**                                                                        

  Atomic type no.    2
  --------------------
  Nuclear charge:   1.00000
  Number of symmetry independent centers:    3
  Number of basis sets to read;    2
  The basis set is "6-311G**" from the basis set library.
  Basis set file used for this atomic type with Z =   1 :
     "/zhome/9a/4/124800/source/dalton/build-mlcc/basis/6-311G**"

  Info about the basis set file: your basis has no documentation.
  Basis set: 6-311G**                                                                        

  Atomic type no.    3
  --------------------
  Nuclear charge:   8.00000
  Number of symmetry independent centers:    4
  Number of basis sets to read;    2
  The basis set is "6-311G**" from the basis set library.
  Basis set file used for this atomic type with Z =   8 :
     "/zhome/9a/4/124800/source/dalton/build-mlcc/basis/6-311G**"

  Info about the basis set file: your basis has no documentation.
  Basis set: 6-311G**                                                                        

  Atomic type no.    4
  --------------------
  Nuclear charge:   1.00000
  Number of symmetry independent centers:    8
  Number of basis sets to read;    2
  The basis set is "6-311G**" from the basis set library.
  Basis set file used for this atomic type with Z =   1 :
     "/zhome/9a/4/124800/source/dalton/build-mlcc/basis/6-311G**"

  Info about the basis set file: your basis has no documentation.
  Basis set: 6-311G**                                                                        

  Atomic type no.    5
  --------------------
  Nuclear charge:   0.00000
  Number of symmetry independent centers:    1
  Number of basis sets to read;    2
  The basis set is "diffs" from the basis set library.
  Basis set file used for this atomic type with Z =   0 :
     "/zhome/9a/4/124800/source/dalton/build-mlcc/basis/diffs"

  Info about the basis set file: your basis has no documentation.
  Basis set: diffs                                                                           


                         SYMGRP: Point group information
                         -------------------------------

@    Point group: C1 


                                 Isotopic Masses
                                 ---------------

                           N          14.003074
                           H           1.007825
                           H           1.007825
                           H           1.007825
                           O          15.994915
                           O          15.994915
                           O          15.994915
                           O          15.994915
                           H           1.007825
                           H           1.007825
                           H           1.007825
                           H           1.007825
                           H           1.007825
                           H           1.007825
                           H           1.007825
                           H           1.007825

                       Total mass:    89.068809 amu
                       Natural abundance:  98.514 %

 Center-of-mass coordinates (a.u.):   -0.132158   -1.353622   -0.380569


  Atoms and basis sets
  --------------------

  Number of atom types :    5
  Total number of atoms:   17

  label    atoms   charge   prim   cont     basis
  ----------------------------------------------------------------------
  N           1    7.0000    31    18      [11s5p1d|4s3p1d]                                   
  H           3    1.0000     8     6      [5s1p|3s1p]                                        
  O           4    8.0000    31    18      [11s5p1d|4s3p1d]                                   
  H           8    1.0000     8     6      [5s1p|3s1p]                                        
  X           1    0.0000     1     1      [1s|1s]                                            
  ----------------------------------------------------------------------
  total:     17   50.0000   244   157
  ----------------------------------------------------------------------
  Spherical harmonic basis used.

  Threshold for neglecting AO integrals:  1.00D-12


  Cartesian Coordinates (a.u.)
  ----------------------------

  Total number of coordinates:   51
  N       :     1  x   0.0000000000    2  y   0.0000000000    3  z   0.0000000000
  H       :     4  x   0.9101544628    5  y   1.0771193248    6  z   1.3460613675
  H       :     7  x  -1.8148551759    8  y   0.0281625884    9  z   0.3727711549
  H       :    10  x   0.3523564435   11  y  -1.9381654748   12  z   0.0948340159
  O       :    13  x   1.4805002634   14  y  -6.6168079965   15  z  -2.1968500840
  O       :    16  x  -2.3321884896   17  y  -5.1929560531   18  z   0.9898706696
  O       :    19  x  -0.6533425721   20  y   0.3480025145   21  z  -5.1120171935
  O       :    22  x   0.9050465330   23  y   4.8536462788   24  z   4.0224105584
  H       :    25  x   2.1023297627   26  y  -8.3484339647   27  z  -1.9229342822
  H       :    28  x   0.0652673609   29  y  -6.2159347245   30  z  -1.0151873305
  H       :    31  x  -2.1373615056   32  y  -5.8826078230   33  z   2.7018793909
  H       :    34  x  -4.0172610547   35  y  -4.2890792606   36  z   0.8012193106
  H       :    37  x   0.5451406336   38  y  -0.1092337289   39  z  -6.5449133661
  H       :    40  x  -0.0077063031   41  y   0.3910826010   42  z  -3.2823408955
  H       :    43  x   0.0427890686   44  y   4.1903032760   45  z   5.5827460815
  H       :    46  x   1.8015477245   47  y   6.3430131372   48  z   4.6807193308
  X       :    49  x   0.0000000000   50  y   0.0000000000   51  z   0.0000000000

  Max    interatomic separation is    8.5251 Angstrom (   16.1102 Bohr)
  between atoms   16 and    9, "H     " and "H     ".

  Min HX interatomic separation is    0.9805 Angstrom (    1.8530 Bohr)

  Min YX interatomic separation is    2.7334 Angstrom (    5.1653 Bohr)


  Bond distances (Angstrom):
  --------------------------

                  atom 1     atom 2       distance
                  ------     ------       --------
  bond distance:  H          N            1.031617
  bond distance:  H          N            0.980543
  bond distance:  H          N            1.043651
  bond distance:  H          O            0.984359
  bond distance:  H          O            0.998437
  bond distance:  H          O            0.982127
  bond distance:  H          O            1.016799
  bond distance:  H          O            1.017703
  bond distance:  H          O            1.026988
  bond distance:  H          O            1.006572
  bond distance:  H          O            0.983658


  Bond angles (degrees):
  ----------------------

                  atom 1     atom 2     atom 3         angle
                  ------     ------     ------         -----
  bond angle:     H          N          H            108.057
  bond angle:     H          N          H            115.237
  bond angle:     H          N          H            100.384
  bond angle:     H          O          H            110.873
  bond angle:     H          O          H            110.942
  bond angle:     H          O          H            120.026
  bond angle:     H          O          H            101.978




 Principal moments of inertia (u*A**2) and principal axes
 --------------------------------------------------------

   IA     231.912613          0.064542    0.897593    0.436075
   IB     549.226067         -0.078233   -0.431090    0.898911
   IC     689.435376          0.994844   -0.092133    0.042398


 Rotational constants
 --------------------

               A                   B                   C

           2179.1786            920.1657            733.0332 MHz
            0.072690            0.030693            0.024451 cm-1


@  Nuclear repulsion energy :  182.813426714964 Hartree

  Number of floating/multiple basis set orbitals :    1


                     .---------------------------------------.
                     | Starting in Integral Section (HERMIT) |
                     `---------------------------------------'



 ***************************************************************************************
 ****************** Output from **INTEGRALS input processing (HERMIT) ******************
 ***************************************************************************************



    *************************************************************************
    ****************** Output from HERMIT input processing ******************
    *************************************************************************


 Default print level:        1

 * Nuclear model: Point charge

 Calculation of one- and two-electron Hamiltonian integrals.

 The following one-electron property integrals are calculated as requested:
          - overlap integrals
          - dipole length integrals

 Center of mass  (bohr):     -0.132158263341     -1.353621604690     -0.380568888427
 Operator center (bohr):      0.000000000000      0.000000000000      0.000000000000
 Gauge origin    (bohr):      0.000000000000      0.000000000000      0.000000000000
 Dipole origin   (bohr):      0.000000000000      0.000000000000      0.000000000000
 
  *********************************** 
  QMMM electrostatic potential: 
  Multipole order                                    0
  Isotropic polarization  
  *********************************** 
 
  ---------------- 
  QMMM information 
  ---------------- 
 
  MM coordinates in au 
  -------------------- 
     1     10.251936      4.761010     10.397957
     2     12.031276      4.971786     10.303448
     3      9.244109      6.281011     10.291216
     4     -7.717419    -11.215075      1.911031
     5     -5.961593    -11.362005      2.533686
     6     -8.583138     -9.778076      2.809586
     7     -4.442956     -5.312481      6.143122
     8     -3.817768     -5.744208      7.811563
     9     -6.311014     -5.871861      6.347764
    10     -8.422984      4.884653      7.840334
    11     -6.914782      4.935330      8.795522
    12     -8.741049      6.640503      7.092337
    13     -6.645679     -3.192097     -0.615238
    14     -8.314462     -2.976842      0.019334
    15     -6.539943     -2.048174     -2.154592
    16      0.854712     -5.477095     -7.106323
    17     -0.184122     -3.995582     -6.850972
    18      1.263316     -5.816088     -5.203514
    19      9.132154      1.365098     -9.715384
    20      8.041832      2.773094     -9.175722
    21      9.619405      1.857117    -11.501296
    22      2.000921     -8.159781     10.756518
    23      0.245462     -7.438811     11.019955
    24      1.743890     -9.043589      9.099277
    25      6.454343     -4.803344      9.507052
    26      6.515275     -4.162298     11.279582
    27      5.194243     -6.173183      9.378781
    28     -8.840392      2.306936     -8.092221
    29    -10.362245      3.355116     -8.404536
    30     -8.298369      1.642106     -9.789108
    31     -6.125540     -3.236449     -8.892889
    32     -5.916600     -2.227537     -7.305504
    33     -7.597287     -4.316223     -8.480547
    34     -1.884784      2.569393      7.911038
    35     -2.139864      3.891118      9.237452
    36     -3.502267      1.899613      7.236364
    37    -11.151306     -0.441334     -3.866461
    38    -10.849626      1.256640     -4.481253
    39    -12.908997     -0.179373     -3.127238
    40    -11.564718      6.260978     -4.115398
    41    -11.884042      7.435209     -2.677349
    42    -10.930701      7.298187     -5.462040
    43    -11.031231      9.456622      6.238687
    44    -10.007880     10.273277      4.933827
    45    -12.530568      9.067025      5.233908
    46     -0.319685     -1.510573      9.756371
    47      0.837052     -1.763279      8.417774
    48     -1.317356      0.137102      9.498822
    49     -5.813833     10.297790      9.268398
    50     -4.333371      9.332755      9.635891
    51     -5.846346     11.892169     10.365524
    52     -7.020896      4.141647     -2.119364
    53     -8.194487      5.469022     -2.753716
    54     -5.921476      4.915911     -0.852061
    55     -9.547163     -7.060965      5.194258
    56    -10.946588     -5.947733      4.582287
    57    -10.349622     -8.019523      6.752277
    58      0.877731    -10.243482      5.879762
    59      2.057539    -11.796972      5.783645
    60      2.004344     -9.097142      4.986426
    61     11.312624     -9.721808      8.469252
    62     11.975612    -11.547466      8.080796
    63     11.634944     -9.218519     10.238846
    64      3.485897      5.443853    -10.189957
    65      4.171861      4.982750    -11.879365
    66      3.240451      3.660817     -9.554559
    67     10.799156     -6.570695    -11.468357
    68     10.383924     -6.129518     -9.607698
    69      9.115776     -6.578666    -12.344691
    70      8.784768      8.185621      3.352268
    71      9.485220      8.756229      1.699758
    72      9.000701      6.284874      3.349749
    73      3.488166     -2.489162      5.646445
    74      4.957717     -2.827095      6.697974
    75      4.065978     -1.070923      4.462620
    76     -1.569703      6.636811     11.280669
    77     -2.840982      6.323428     12.685278
    78      0.141408      6.338975     11.876804
    79     -5.500365     -0.298405     -4.496280
    80     -6.323721      1.351901     -4.715861
    81     -3.654082      0.153644     -4.536452
    82      9.510258     -9.080659     -1.263441
    83      8.970634     -8.715950      0.538899
    84      8.973283     -7.652365     -2.388175
    85      6.998060      9.209597      9.853620
    86      6.234749     10.170676     11.359100
    87      8.512183     10.315299      9.600279
    88      5.574686      1.370686      2.753359
    89      4.253628      2.597704      2.945992
    90      7.104423      2.030048      3.850608
    91      2.564617     -0.042770     -9.210869
    92      1.519519     -0.379162    -10.683878
    93      3.855395     -1.514903     -9.497380
    94     -1.059791    -10.163257     -8.302644
    95     -0.110250     -8.538907     -8.196853
    96     -0.856853    -10.728408    -10.059619
    97      7.134691      4.586843     -6.026800
    98      5.829610      5.801612     -5.427998
    99      8.708038      5.235467     -5.469336
   100      6.793034     -4.936645     -3.976596
   101      5.243113     -5.665182     -3.141073
   102      7.081448     -3.219375     -3.532558
   103      5.109804    -11.409856     -9.815188
   104      3.847940    -10.103742    -10.250540
   105      4.029797    -12.623839     -8.787984
   106     -7.386133      0.227413     11.209430
   107     -6.602456      0.459355      9.522082
   108     -6.735938     -1.217105     12.209356
   109      4.018491    -11.019167     -1.511584
   110      5.789716    -10.817327     -1.998057
   111      3.335461    -12.415852     -2.649693
   112     -2.569676     -5.575461     11.031204
   113     -1.760284     -3.822073     10.844195
   114     -3.763182     -5.281036     12.331956
   115     -4.930356      6.275236     -8.466582
   116     -5.860481      4.757030     -8.038780
   117     -3.760459      6.457034     -7.101479
   118     -6.131330    -11.297422     -5.869278
   119     -4.372004    -10.971797     -6.133896
   120     -6.590698     -9.672002     -5.055316
   121      2.050515      9.698777     -5.885212
   122      0.984508      8.083303     -5.761444
   123      0.831415     11.012566     -6.556080
   124    -10.018837      8.486673     -8.477481
   125    -10.023466     10.340852     -7.923794
   126     -8.222952      8.364330     -8.993656
   127     -1.506531      6.049554     -4.696440
   128     -1.230310      4.224403     -4.457792
   129     -2.032417      6.622283     -3.051140
   130      3.801023      9.360154      5.809099
   131      5.127260      9.220325      7.221010
   132      4.820843      9.366405      4.199278
   133    -11.552070     10.227954     -0.815825
   134     -9.863902     10.582062      0.184749
   135    -12.354374     11.692346     -1.540206
   136     -2.100729      6.957342      0.569165
   137     -0.962970      6.397683      1.873456
   138     -2.929181      8.388802      1.545063
   139      6.704845     -2.982893     -9.163516
   140      6.609327     -4.014604     -7.583063
   141      7.941427     -1.520559     -8.917313
   142    -10.082895      1.342626      2.113543
   143     -9.603921      1.691998      0.405027
   144    -11.598842      0.280163      1.964692
   145      7.428561      0.195949     -2.108222
   146      6.925272      1.557701     -3.376873
   147      6.557597      0.550978     -0.470793
   148     -7.118031     -9.595305    -10.601774
   149     -6.825868    -10.289324     -8.883824
   150     -8.839407     -8.872336    -10.704775
   151     -8.305295     -7.663225     -2.663801
   152     -7.673711     -6.082318     -1.711544
   153     -8.188013     -9.000690     -1.455684
   154     11.736144     -1.605982      9.326917
   155     13.569275     -1.284471      9.797423
   156     11.306110     -3.097203     10.274354
   157      9.618198      3.195890      5.340185
   158     11.481932      3.164012      4.769004
   159      9.791230      3.701078      7.138004
   160      3.778959     -6.739650      3.062063
   161      3.560631     -5.092130      4.005756
   162      3.508424     -6.702275      1.263962
   163     -3.647239     10.896909      4.296941
   164     -4.481353     11.010321      6.027567
   165     -2.050793     11.751891      4.481501
   166     -5.746540     -0.336751      6.228683
   167     -6.770796     -0.081464      4.702245
   168     -5.224318     -2.216636      6.200637
   169      8.451532     -7.962782      3.533291
   170      6.500904     -7.720242      3.462617
   171      9.114400     -8.760052      4.967364
   172      9.966546     -2.971158      3.676462
   173     10.137126     -2.566371      5.496684
   174      9.240825     -4.624260      3.643245
   175    -11.013146     -4.943531     -6.641212
   176    -10.437600     -6.036919     -5.186773
   177    -11.264444     -3.233743     -5.782696
 
  MM charges 
  ---------- 
     1     -0.674440
     2      0.337220
     3      0.337220
     4     -0.674440
     5      0.337220
     6      0.337220
     7     -0.674440
     8      0.337220
     9      0.337220
    10     -0.674440
    11      0.337220
    12      0.337220
    13     -0.674440
    14      0.337220
    15      0.337220
    16     -0.674440
    17      0.337220
    18      0.337220
    19     -0.674440
    20      0.337220
    21      0.337220
    22     -0.674440
    23      0.337220
    24      0.337220
    25     -0.674440
    26      0.337220
    27      0.337220
    28     -0.674440
    29      0.337220
    30      0.337220
    31     -0.674440
    32      0.337220
    33      0.337220
    34     -0.674440
    35      0.337220
    36      0.337220
    37     -0.674440
    38      0.337220
    39      0.337220
    40     -0.674440
    41      0.337220
    42      0.337220
    43     -0.674440
    44      0.337220
    45      0.337220
    46     -0.674440
    47      0.337220
    48      0.337220
    49     -0.674440
    50      0.337220
    51      0.337220
    52     -0.674440
    53      0.337220
    54      0.337220
    55     -0.674440
    56      0.337220
    57      0.337220
    58     -0.674440
    59      0.337220
    60      0.337220
    61     -0.674440
    62      0.337220
    63      0.337220
    64     -0.674440
    65      0.337220
    66      0.337220
    67     -0.674440
    68      0.337220
    69      0.337220
    70     -0.674440
    71      0.337220
    72      0.337220
    73     -0.674440
    74      0.337220
    75      0.337220
    76     -0.674440
    77      0.337220
    78      0.337220
    79     -0.674440
    80      0.337220
    81      0.337220
    82     -0.674440
    83      0.337220
    84      0.337220
    85     -0.674440
    86      0.337220
    87      0.337220
    88     -0.674440
    89      0.337220
    90      0.337220
    91     -0.674440
    92      0.337220
    93      0.337220
    94     -0.674440
    95      0.337220
    96      0.337220
    97     -0.674440
    98      0.337220
    99      0.337220
   100     -0.674440
   101      0.337220
   102      0.337220
   103     -0.674440
   104      0.337220
   105      0.337220
   106     -0.674440
   107      0.337220
   108      0.337220
   109     -0.674440
   110      0.337220
   111      0.337220
   112     -0.674440
   113      0.337220
   114      0.337220
   115     -0.674440
   116      0.337220
   117      0.337220
   118     -0.674440
   119      0.337220
   120      0.337220
   121     -0.674440
   122      0.337220
   123      0.337220
   124     -0.674440
   125      0.337220
   126      0.337220
   127     -0.674440
   128      0.337220
   129      0.337220
   130     -0.674440
   131      0.337220
   132      0.337220
   133     -0.674440
   134      0.337220
   135      0.337220
   136     -0.674440
   137      0.337220
   138      0.337220
   139     -0.674440
   140      0.337220
   141      0.337220
   142     -0.674440
   143      0.337220
   144      0.337220
   145     -0.674440
   146      0.337220
   147      0.337220
   148     -0.674440
   149      0.337220
   150      0.337220
   151     -0.674440
   152      0.337220
   153      0.337220
   154     -0.674440
   155      0.337220
   156      0.337220
   157     -0.674440
   158      0.337220
   159      0.337220
   160     -0.674440
   161      0.337220
   162      0.337220
   163     -0.674440
   164      0.337220
   165      0.337220
   166     -0.674440
   167      0.337220
   168      0.337220
   169     -0.674440
   170      0.337220
   171      0.337220
   172     -0.674440
   173      0.337220
   174      0.337220
   175     -0.674440
   176      0.337220
   177      0.337220
 
  MM isotropic polarizabilities in au 
  ----------------------------------- 
     1      5.739350
     2      2.308390
     3      2.308390
     4      5.739350
     5      2.308390
     6      2.308390
     7      5.739350
     8      2.308390
     9      2.308390
    10      5.739350
    11      2.308390
    12      2.308390
    13      5.739350
    14      2.308390
    15      2.308390
    16      5.739350
    17      2.308390
    18      2.308390
    19      5.739350
    20      2.308390
    21      2.308390
    22      5.739350
    23      2.308390
    24      2.308390
    25      5.739350
    26      2.308390
    27      2.308390
    28      5.739350
    29      2.308390
    30      2.308390
    31      5.739350
    32      2.308390
    33      2.308390
    34      5.739350
    35      2.308390
    36      2.308390
    37      5.739350
    38      2.308390
    39      2.308390
    40      5.739350
    41      2.308390
    42      2.308390
    43      5.739350
    44      2.308390
    45      2.308390
    46      5.739350
    47      2.308390
    48      2.308390
    49      5.739350
    50      2.308390
    51      2.308390
    52      5.739350
    53      2.308390
    54      2.308390
    55      5.739350
    56      2.308390
    57      2.308390
    58      5.739350
    59      2.308390
    60      2.308390
    61      5.739350
    62      2.308390
    63      2.308390
    64      5.739350
    65      2.308390
    66      2.308390
    67      5.739350
    68      2.308390
    69      2.308390
    70      5.739350
    71      2.308390
    72      2.308390
    73      5.739350
    74      2.308390
    75      2.308390
    76      5.739350
    77      2.308390
    78      2.308390
    79      5.739350
    80      2.308390
    81      2.308390
    82      5.739350
    83      2.308390
    84      2.308390
    85      5.739350
    86      2.308390
    87      2.308390
    88      5.739350
    89      2.308390
    90      2.308390
    91      5.739350
    92      2.308390
    93      2.308390
    94      5.739350
    95      2.308390
    96      2.308390
    97      5.739350
    98      2.308390
    99      2.308390
   100      5.739350
   101      2.308390
   102      2.308390
   103      5.739350
   104      2.308390
   105      2.308390
   106      5.739350
   107      2.308390
   108      2.308390
   109      5.739350
   110      2.308390
   111      2.308390
   112      5.739350
   113      2.308390
   114      2.308390
   115      5.739350
   116      2.308390
   117      2.308390
   118      5.739350
   119      2.308390
   120      2.308390
   121      5.739350
   122      2.308390
   123      2.308390
   124      5.739350
   125      2.308390
   126      2.308390
   127      5.739350
   128      2.308390
   129      2.308390
   130      5.739350
   131      2.308390
   132      2.308390
   133      5.739350
   134      2.308390
   135      2.308390
   136      5.739350
   137      2.308390
   138      2.308390
   139      5.739350
   140      2.308390
   141      2.308390
   142      5.739350
   143      2.308390
   144      2.308390
   145      5.739350
   146      2.308390
   147      2.308390
   148      5.739350
   149      2.308390
   150      2.308390
   151      5.739350
   152      2.308390
   153      2.308390
   154      5.739350
   155      2.308390
   156      2.308390
   157      5.739350
   158      2.308390
   159      2.308390
   160      5.739350
   161      2.308390
   162      2.308390
   163      5.739350
   164      2.308390
   165      2.308390
   166      5.739350
   167      2.308390
   168      2.308390
   169      5.739350
   170      2.308390
   171      2.308390
   172      5.739350
   173      2.308390
   174      2.308390
   175      5.739350
   176      2.308390
   177      2.308390


     ************************************************************************
     ************************** Output from HERINT **************************
     ************************************************************************



                      Nuclear contribution to dipole moments
                      --------------------------------------

                 au               Debye          C m (/(10**-30)

      x     -6.95747270       -17.68413056       -58.98791009
      y    -67.61869610      -171.86957114      -573.29517991
      z    -15.55783362       -39.54406615      -131.90480647



 Threshold for neglecting two-electron integrals:  1.00D-12
 HERMIT - Number of two-electron integrals written:    28302646 ( 36.8% )
 HERMIT - Megabytes written:                            324.084

  Time used in TWOINT     is       5.68 seconds
  Total CPU  time used in HERMIT:   5.85 seconds
  Total wall time used in HERMIT:   8.90 seconds


                        .----------------------------------.
                        | End of Integral Section (HERMIT) |
                        `----------------------------------'



                   .--------------------------------------------.
                   | Starting in Wave Function Section (SIRIUS) |
                   `--------------------------------------------'

NCCEXCI for singlet:    1
 CCSD_INPUT: core-val requested
 Requested number of virtual orbs per sym
                     1
 Indices of requested virtual orbs
                     1
 CCSD_INPUT: core-val requested
 Requested number of core orbs per sym
                     1
 Indices of requested core orbs
                     1

 *** Output from Huckel module :

     Using EWMO model:          T
     Using EHT  model:          F
     Number of Huckel orbitals each symmetry:   36

 EWMO - Energy Weighted Maximum Overlap - is a Huckel type method,
        which normally is better than Extended Huckel Theory.
 Reference: Linderberg and Ohrn, Propagators in Quantum Chemistry (Wiley, 1973)

 Huckel EWMO eigenvalues for symmetry :  1
          -20.685276     -20.684413     -20.684053     -20.683661     -15.674012
           -1.729890      -1.626109      -1.589346      -1.527036      -1.456284
           -0.842798      -0.829495      -0.798854      -0.773923      -0.738884
           -0.702308      -0.694591      -0.678062      -0.667328      -0.621747
           -0.619330      -0.615266      -0.609847      -0.594483      -0.513260
           -0.269879      -0.247392      -0.239570      -0.218553      -0.185418
           -0.180208      -0.179832      -0.164929      -0.159573      -0.147520
           -0.142671

 **********************************************************************
 *SIRIUS* a direct, restricted step, second order MCSCF program       *
 **********************************************************************

 
     Date and time (Linux)  : Mon Dec  3 17:54:21 2018
     Host name              : n-62-23-32                              

 Title lines from ".mol" input file:
                                                                             
                                                                             

 Print level on unit LUPRI =   2 is   0
 Print level on unit LUW4  =   2 is  11

@    (Integral direct) CC calculation.

@    This is a combination run starting with
@              a restricted, closed shell Hartree-Fock calculation


 Initial molecular orbitals are obtained according to
 ".MOSTART EWMO  " input option

@    QM part is embedded in an environment :

@         Model: QMMM

     Wave function specification
     ============================

     For the specification of the Coupled Cluster: see later.

@    Wave function type        --- CC ---
@    Number of closed shell electrons          50
@    Number of electrons in active shells       0
@    Total charge of the molecule               0

@    Spin multiplicity and 2 M_S                1         0
@    Total number of symmetries                 1 (point group: C1 )
@    Reference state symmetry                   1 (irrep name : A  )

     Orbital specifications
     ======================
@    Abelian symmetry species          All |    1
@                                          |  A  
                                       --- |  ---
@    Occupied SCF orbitals              25 |   25
@    Secondary orbitals                132 |  132
@    Total number of orbitals          157 |  157
@    Number of basis functions         157 |  157

     Optimization information
     ========================
@    Number of configurations                 1
@    Number of orbital rotations           3300
     ------------------------------------------
@    Total number of variables             3301

     Maximum number of Fock   iterations      0
     Maximum number of DIIS   iterations     60
     Maximum number of QC-SCF iterations     60
     Threshold for SCF convergence     1.00D-07


 Changes of defaults for CC:
 ---------------------------


 -Implicit frozen core calculation
 -Excitation energies calculated
 -One-photon absorption strengths will be calculated
 -Oscillator strengths calculated
  
* Read MO coefficients from SIRIUS.RST with label "NEWORB  " and header info:  3Dec18  REORTHO 


 ***********************************************
 ***** DIIS acceleration of SCF iterations *****
 ***********************************************

 C1-DIIS algorithm; max error vectors =    8
 -----------------------------------------------------------------------------

 *** DIIS iteration number    1
 RDSUPM called. NFMAT, ISYMDM(1:NFMAT)                     1
                     1

Calculating AOSUPINT
     (Precalculated two-electron integrals are transformed to P-supermatrix elements.
      Threshold for discarding integrals :  1.00D-12 )
  CPU  time used in FORMSUP    is   2.98 seconds
  WALL time used in FORMSUP    is  43.50 seconds

 ITDIIS, energy, error norm, change in energy, scr.thr., difden:
@ DIIS iter.   1    -359.918903069        3.73699D+00   -3.60D+02  -20    F

 (DIIS_RED) Control Parameters C2DIIS =         F NEVC =    1


 (DIIS_RED) B matrix:

               Column   1
       1      13.96507143
    ==== End of matrix output ====

 DIIS C vector; C2DIIS = F, LAMBDA = -1.40D+01
    1.000000
* Read MO coefficients from SIRIUS.RST with label "NEWORB  " and header info:  3Dec18  DIIS   1
      Virial theorem: -V/T =      1.998058
@      MULPOP N      -0.35; H       0.15; H       0.19; H       0.17; O      -0.74; O      -0.52; O      -0.83; O      -0.62; H       0.32; H       0.34; 
@             H       0.31; H       0.31; H       0.31; H       0.31; H       0.33; H       0.31; 
   1  Level shift: doubly occupied orbital energies shifted by -2.00D-01

 DIIS Fock eigenvalues in symmetry 1
      -20.75863      -20.75642      -20.63797      -20.51534      -16.00748
       -1.58000       -1.55180       -1.50414       -1.45823       -1.42321
       -0.96616       -0.95101       -0.94730       -0.93697       -0.91160
       -0.87141       -0.82735       -0.79605       -0.79045       -0.76742
       -0.74591       -0.74331       -0.71301       -0.67979       -0.64061
        0.00000        0.09697        0.12890        0.18016        0.19655
        0.22615        0.22899        0.24039        0.27053        0.28391
        0.34503        0.36713        0.41026        0.44979        0.48035
        0.50789        0.53786        0.54555        0.56037        0.57671
        0.60522        0.61250        0.62723        0.82026        0.84974
        0.86458        0.91895        0.95094        0.97660        1.00455
        1.02283        1.04038        1.05481        1.06995        1.07996
        1.10408        1.12666        1.16443        1.22744        1.26096
        1.28333        1.32995        1.34958        1.39374        1.43237
        1.45488        1.46128        1.49124        1.50601        1.56307
        1.61236        1.61944        1.63588        1.69324        1.70663
        1.71802        1.73976        1.77436        1.80323        1.83169
        1.85099        1.87977        1.90621        1.92431        1.94483
        2.08843        2.10384        2.12375        2.19342        2.26722
        2.26885        2.29680        2.31901        2.38425        2.47188
        2.51092        2.56739        2.60896        2.61114        2.67041
        2.69906        2.73426        2.73962        2.77656        2.78271
        2.79564        2.82460        2.86552        2.93026        3.06782
        3.24332        3.36613        3.37849        3.38897        3.42934
        3.43074        3.44197        3.47376        3.54198        3.57989
        3.58260        3.60039        3.62000        3.64102        3.90346
        3.98397        4.07501        4.10882        4.13144        4.17243
        4.19645        4.21888        4.43526        4.96443        5.07326
        5.27228        5.36455        5.37551        5.46943        5.67532
        5.69408        5.72337        5.81121        5.99999        6.06378
        6.22125        6.25195       36.76711       51.50289       51.51322
       51.67381       51.75435
 Time used in FCKEIG, thr_jaco:   4.10D-02  4.80D-02  1.63D-04
 CPU and wall times used in FCKEIG, THR_FCKEIG:   4.10D-02  4.80D-02  3.74D-02
 -----------------------------------------------------------------------------

 *** DIIS iteration number    2
 RDSUPM called. NFMAT, ISYMDM(1:NFMAT)                     1
                     1

 ITDIIS, energy, error norm, change in energy, scr.thr., difden:
@ DIIS iter.   2    -360.688872887        9.44897D-01   -7.70D-01  -20    F

 (DIIS_RED) Control Parameters C2DIIS =         F NEVC =    2


 (DIIS_RED) B matrix:

               Column   1     Column   2
       1      13.96507143
       2       0.93180124     0.89283010
    ==== End of matrix output ====

 DIIS C vector; C2DIIS = F, LAMBDA = -8.93D-01
   -0.002999    1.002999
* Read MO coefficients from SIRIUS.RST with label "NEWORB  " and header info:  3Dec18  DIIS   2
      Virial theorem: -V/T =      2.004484
@      MULPOP N      -0.65; H       0.24; H       0.23; H       0.24; O      -0.68; O      -0.57; O      -0.72; O      -0.57; H       0.31; H       0.33; 
@             H       0.29; H       0.35; H       0.31; H       0.32; H       0.30; H       0.29; 
   2  Level shift: doubly occupied orbital energies shifted by -1.00D-01

 DIIS Fock eigenvalues in symmetry 1
      -20.71147      -20.71042      -20.68141      -20.65112      -15.52664
       -1.46824       -1.43315       -1.41384       -1.40801       -1.20980
       -0.82184       -0.81289       -0.79749       -0.79191       -0.73446
       -0.70977       -0.69764       -0.69489       -0.66575       -0.66514
       -0.64511       -0.62477       -0.61178       -0.60770       -0.51082
        0.00000        0.13932        0.16780        0.21462        0.22494
        0.24612        0.25866        0.26107        0.31053        0.32426
        0.35637        0.38884        0.47750        0.50858        0.52270
        0.54572        0.57872        0.58595        0.60270        0.61368
        0.62011        0.63383        0.69583        0.91224        0.93129
        0.94920        0.95908        0.97279        0.97552        1.01162
        1.04603        1.05649        1.07473        1.08428        1.08976
        1.14438        1.15616        1.16240        1.28764        1.31951
        1.35535        1.39140        1.40938        1.45232        1.46061
        1.49779        1.51946        1.52938        1.54689        1.58080
        1.65751        1.67160        1.68467        1.73451        1.74378
        1.76995        1.80844        1.82255        1.86048        1.89413
        1.90813        1.94325        1.96457        1.98796        2.01962
        2.16983        2.20784        2.21536        2.25308        2.31113
        2.31948        2.33634        2.34974        2.50580        2.53698
        2.57710        2.63108        2.65668        2.67414        2.74793
        2.76906        2.77955        2.80496        2.82031        2.85320
        2.88301        2.91861        2.99837        3.07612        3.22166
        3.36380        3.40719        3.41514        3.41933        3.44712
        3.45536        3.51404        3.52389        3.53199        3.54711
        3.57777        3.62502        3.63040        3.64278        3.92724
        4.03001        4.07090        4.08670        4.12406        4.16828
        4.19602        4.22312        4.62097        5.20013        5.25509
        5.30440        5.31888        5.33952        5.41613        5.55429
        5.63664        5.72338        5.83638        6.01743        6.11462
        6.13141        6.19018       37.14116       51.45050       51.46503
       51.48946       51.56731
 Time used in FCKEIG, thr_jaco:   2.80D-02  3.70D-02  4.11D-05
 CPU and wall times used in FCKEIG, THR_FCKEIG:   2.80D-02  3.70D-02  9.45D-03
 -----------------------------------------------------------------------------

 *** DIIS iteration number    3
 RDSUPM called. NFMAT, ISYMDM(1:NFMAT)                     1
                     1

 ITDIIS, energy, error norm, change in energy, scr.thr., difden:
@ DIIS iter.   3    -360.750165730        3.56440D-01   -6.13D-02  -20    F

 (DIIS_RED) Control Parameters C2DIIS =         F NEVC =    3


 (DIIS_RED) B matrix:

               Column   1     Column   2     Column   3
       1      13.96507143
       2       0.93180124     0.89283010
       3       0.70152667     0.04955617     0.12704955
    ==== End of matrix output ====

 DIIS C vector; C2DIIS = F, LAMBDA = -9.19D-02
   -0.047701    0.100106    0.947595
* Read MO coefficients from SIRIUS.RST with label "NEWORB  " and header info:  3Dec18  DIIS   3
      Virial theorem: -V/T =      2.002222
@      MULPOP N      -0.57; H       0.21; H       0.19; H       0.21; O      -0.75; O      -0.63; O      -0.82; O      -0.63; H       0.36; H       0.36; 
@             H       0.30; H       0.38; H       0.38; H       0.35; H       0.33; H       0.31; 
   3  Level shift: doubly occupied orbital energies shifted by -5.00D-02

 DIIS Fock eigenvalues in symmetry 1
      -20.62719      -20.58813      -20.56689      -20.52202      -15.61011
       -1.40512       -1.36639       -1.34962       -1.31175       -1.19413
       -0.75745       -0.74323       -0.73185       -0.71665       -0.69203
       -0.66818       -0.65406       -0.62495       -0.59316       -0.57953
       -0.57258       -0.54777       -0.53825       -0.50713       -0.48052
        0.00000        0.14323        0.17296        0.21880        0.22981
        0.25047        0.26108        0.26479        0.31391        0.32524
        0.36220        0.39486        0.47830        0.51236        0.53378
        0.55580        0.58840        0.59498        0.61233        0.62725
        0.63095        0.64313        0.69699        0.91445        0.93290
        0.95557        0.96340        0.97446        1.00692        1.02830
        1.05336        1.07300        1.08652        1.09787        1.10305
        1.15479        1.16653        1.17847        1.29371        1.32556
        1.35905        1.39540        1.41083        1.46037        1.47957
        1.50798        1.53008        1.54055        1.55929        1.59509
        1.67114        1.68077        1.69480        1.74852        1.75800
        1.77927        1.81734        1.82885        1.86957        1.90337
        1.91722        1.95009        1.97314        1.99312        2.02512
        2.17945        2.20279        2.20985        2.26136        2.33283
        2.33491        2.34913        2.36237        2.50485        2.55092
        2.58690        2.64294        2.66955        2.68633        2.75835
        2.78002        2.78594        2.81519        2.82857        2.86344
        2.89317        2.90478        2.98400        3.05798        3.20052
        3.39118        3.41942        3.43437        3.44589        3.45216
        3.47536        3.52124        3.54304        3.56256        3.57428
        3.60786        3.64506        3.65054        3.66838        3.94697
        4.04669        4.09918        4.13026        4.17777        4.19240
        4.21801        4.24912        4.57008        5.14807        5.24426
        5.30712        5.36101        5.40531        5.42747        5.63403
        5.67473        5.74818        5.85362        6.04236        6.13068
        6.20935        6.23029       37.01188       51.48499       51.52294
       51.60175       51.61178
 Time used in FCKEIG, thr_jaco:   2.50D-02  3.70D-02  1.55D-05
 CPU and wall times used in FCKEIG, THR_FCKEIG:   2.60D-02  3.80D-02  3.56D-03
 -----------------------------------------------------------------------------

 *** DIIS iteration number    4
 RDSUPM called. NFMAT, ISYMDM(1:NFMAT)                     1
                     1

 ITDIIS, energy, error norm, change in energy, scr.thr., difden:
@ DIIS iter.   4    -360.759235784        1.09139D-01   -9.07D-03  -20    F

 (DIIS_RED) Control Parameters C2DIIS =         F NEVC =    4


 (DIIS_RED) B matrix:

               Column   1     Column   2     Column   3     Column   4
       1      13.96507143
       2       0.93180124     0.89283010
       3       0.70152667     0.04955617     0.12704955
       4       0.01673520     0.08044507    -0.00359394     0.01191126
    ==== End of matrix output ====

 DIIS C vector; C2DIIS = F, LAMBDA = -4.23D-03
    0.000405   -0.090638    0.094610    0.995623
* Read MO coefficients from SIRIUS.RST with label "NEWORB  " and header info:  3Dec18  DIIS   4
      Virial theorem: -V/T =      2.003062
@      MULPOP N      -0.64; H       0.23; H       0.21; H       0.23; O      -0.76; O      -0.64; O      -0.81; O      -0.64; H       0.36; H       0.37; 
@             H       0.31; H       0.39; H       0.38; H       0.36; H       0.34; H       0.32; 
   4  Level shift: doubly occupied orbital energies shifted by -2.50D-02

 DIIS Fock eigenvalues in symmetry 1
      -20.60988      -20.56488      -20.55448      -20.53322      -15.55608
       -1.38374       -1.34396       -1.32802       -1.29774       -1.15946
       -0.73525       -0.72132       -0.70801       -0.69740       -0.66127
       -0.63431       -0.62893       -0.60136       -0.56756       -0.55610
       -0.55341       -0.52204       -0.51258       -0.48983       -0.44609
        0.00000        0.14299        0.17259        0.21904        0.22966
        0.24963        0.26182        0.26503        0.31471        0.32822
        0.36356        0.39535        0.48246        0.51579        0.53416
        0.55635        0.58780        0.59353        0.61311        0.62530
        0.63019        0.64193        0.70040        0.91870        0.93706
        0.96189        0.96495        0.97598        1.00278        1.02773
        1.05516        1.07264        1.08654        1.09668        1.10217
        1.15415        1.16470        1.17688        1.29446        1.32738
        1.36120        1.39834        1.41423        1.45958        1.47707
        1.50534        1.52880        1.54045        1.55828        1.59380
        1.67020        1.67910        1.69380        1.74769        1.75705
        1.78086        1.81913        1.83053        1.86907        1.90195
        1.91667        1.95156        1.97395        1.99561        2.02871
        2.17778        2.20883        2.21538        2.26071        2.32824
        2.33095        2.34579        2.36012        2.51071        2.55226
        2.58433        2.64275        2.66818        2.68562        2.75987
        2.77791        2.78920        2.81457        2.82747        2.86522
        2.89228        2.91276        2.99223        3.06719        3.20968
        3.40156        3.40873        3.43259        3.44389        3.45253
        3.47339        3.52895        3.54399        3.55937        3.56787
        3.59860        3.64424        3.64874        3.66588        3.94475
        4.04601        4.09614        4.12326        4.16816        4.19023
        4.21605        4.24694        4.58433        5.16332        5.25406
        5.30792        5.35477        5.38833        5.42680        5.61599
        5.66956        5.74479        5.85256        6.03795        6.12945
        6.19172        6.22405       37.04046       51.47754       51.51833
       51.56646       51.60228
 Time used in FCKEIG, thr_jaco:   2.30D-02  3.70D-02  4.75D-06
 CPU and wall times used in FCKEIG, THR_FCKEIG:   2.30D-02  3.70D-02  1.09D-03
 -----------------------------------------------------------------------------

 *** DIIS iteration number    5
 RDSUPM called. NFMAT, ISYMDM(1:NFMAT)                     1
                     1

 ITDIIS, energy, error norm, change in energy, scr.thr., difden:
@ DIIS iter.   5    -360.760373632        2.53838D-02   -1.14D-03  -20    F

 (DIIS_RED) Control Parameters C2DIIS =         F NEVC =    5


 (DIIS_RED) B matrix:

               Column   1     Column   2     Column   3     Column   4     Column   5
       1      13.96507143
       2       0.93180124     0.89283010
       3       0.70152667     0.04955617     0.12704955
       4       0.01673520     0.08044507    -0.00359394     0.01191126
       5       0.01418615     0.00679113     0.00523049     0.00106007     0.00064434
    ==== End of matrix output ====

 DIIS C vector; C2DIIS = F, LAMBDA = -3.67D-04
    0.001733    0.003794   -0.059893   -0.119854    1.174220
* Read MO coefficients from SIRIUS.RST with label "NEWORB  " and header info:  3Dec18  DIIS   5
      Virial theorem: -V/T =      2.002734
@      MULPOP N      -0.63; H       0.23; H       0.21; H       0.23; O      -0.77; O      -0.65; O      -0.83; O      -0.65; H       0.37; H       0.38; 
@             H       0.31; H       0.40; H       0.39; H       0.36; H       0.34; H       0.32; 

 DIIS Fock eigenvalues in symmetry 1
      -20.58377      -20.53963      -20.52871      -20.50070      -15.52628
       -1.35831       -1.31880       -1.30282       -1.27004       -1.13297
       -0.71026       -0.69667       -0.68346       -0.67110       -0.63552
       -0.60813       -0.60382       -0.57642       -0.54126       -0.53113
       -0.52621       -0.49592       -0.48651       -0.46140       -0.41919
        0.00000        0.14291        0.17247        0.21916        0.22973
        0.24949        0.26183        0.26525        0.31473        0.32850
        0.36402        0.39532        0.48289        0.51606        0.53430
        0.55664        0.58759        0.59328        0.61330        0.62577
        0.62982        0.64177        0.70103        0.91965        0.93820
        0.96286        0.96574        0.97667        1.00463        1.02903
        1.05563        1.07355        1.08701        1.09684        1.10255
        1.15432        1.16429        1.17757        1.29494        1.32768
        1.36188        1.39885        1.41483        1.45952        1.47816
        1.50494        1.52825        1.54029        1.55802        1.59435
        1.67010        1.67879        1.69342        1.74768        1.75710
        1.78111        1.81930        1.83099        1.86878        1.90156
        1.91638        1.95192        1.97380        1.99600        2.02933
        2.17745        2.20944        2.21605        2.26006        2.32850
        2.33073        2.34553        2.35964        2.51148        2.55302
        2.58384        2.64227        2.66770        2.68526        2.76019
        2.77762        2.78935        2.81427        2.82705        2.86517
        2.89156        2.91379        2.99326        3.06834        3.21099
        3.40281        3.41167        3.43297        3.44432        3.45273
        3.47366        3.53016        3.54458        3.55964        3.57028
        3.60124        3.64416        3.64900        3.66608        3.94503
        4.04577        4.09634        4.12589        4.17067        4.19040
        4.21638        4.24707        4.58685        5.16559        5.25583
        5.30920        5.35557        5.39274        5.42721        5.62026
        5.66994        5.74530        5.85251        6.03830        6.12922
        6.19557        6.22427       37.04516       51.47863       51.51873
       51.57384       51.60290
 Time used in FCKEIG, thr_jaco:   2.30D-02  3.40D-02  1.10D-06
 CPU and wall times used in FCKEIG, THR_FCKEIG:   2.30D-02  3.40D-02  2.54D-04
 -----------------------------------------------------------------------------

 *** DIIS iteration number    6
 RDSUPM called. NFMAT, ISYMDM(1:NFMAT)                     1
                     1

 ITDIIS, energy, error norm, change in energy, scr.thr., difden:
@ DIIS iter.   6    -360.760467708        8.46356D-03   -9.41D-05  -20    F

 (DIIS_RED) Control Parameters C2DIIS =         F NEVC =    6


 (DIIS_RED) B matrix:

               Column   1     Column   2     Column   3     Column   4     Column   5     Column   6
       1      13.96507143
       2       0.93180124     0.89283010
       3       0.70152667     0.04955617     0.12704955
       4       0.01673520     0.08044507    -0.00359394     0.01191126
       5       0.01418615     0.00679113     0.00523049     0.00106007     0.00064434
       6      -0.00191161    -0.00030685     0.00061189     0.00025767     0.00006910     0.00007163
    ==== End of matrix output ====

 DIIS C vector; C2DIIS = F, LAMBDA = -3.82D-05
    0.000558    0.008028   -0.020759   -0.094677    0.188110    0.918740
* Read MO coefficients from SIRIUS.RST with label "NEWORB  " and header info:  3Dec18  DIIS   6
      Virial theorem: -V/T =      2.002864
@      MULPOP N      -0.63; H       0.23; H       0.20; H       0.23; O      -0.78; O      -0.66; O      -0.83; O      -0.65; H       0.37; H       0.38; 
@             H       0.31; H       0.40; H       0.40; H       0.36; H       0.34; H       0.33; 

 DIIS Fock eigenvalues in symmetry 1
      -20.58405      -20.53988      -20.52834      -20.50329      -15.52984
       -1.35834       -1.31874       -1.30271       -1.27071       -1.13408
       -0.71042       -0.69672       -0.68371       -0.67185       -0.63639
       -0.60899       -0.60430       -0.57646       -0.54112       -0.53131
       -0.52685       -0.49570       -0.48629       -0.46191       -0.42015
        0.00000        0.14281        0.17237        0.21905        0.22964
        0.24942        0.26172        0.26508        0.31463        0.32829
        0.36391        0.39527        0.48258        0.51581        0.53409
        0.55641        0.58746        0.59318        0.61313        0.62553
        0.62968        0.64173        0.70070        0.91931        0.93775
        0.96227        0.96566        0.97656        1.00426        1.02878
        1.05542        1.07340        1.08686        1.09669        1.10242
        1.15415        1.16407        1.17731        1.29467        1.32745
        1.36150        1.39854        1.41443        1.45929        1.47778
        1.50474        1.52801        1.54019        1.55794        1.59402
        1.67004        1.67859        1.69323        1.74752        1.75693
        1.78084        1.81904        1.83062        1.86855        1.90136
        1.91614        1.95157        1.97362        1.99568        2.02892
        2.17719        2.20881        2.21540        2.25972        2.32814
        2.33053        2.34532        2.35944        2.51096        2.55261
        2.58362        2.64203        2.66763        2.68507        2.75989
        2.77737        2.78904        2.81405        2.82681        2.86496
        2.89127        2.91292        2.99241        3.06740        3.21000
        3.40173        3.41087        3.43286        3.44443        3.45245
        3.47353        3.52926        3.54406        3.55982        3.56940
        3.60043        3.64408        3.64888        3.66619        3.94490
        4.04561        4.09643        4.12497        4.16990        4.19031
        4.21627        4.24714        4.58501        5.16384        5.25464
        5.30858        5.35585        5.39142        5.42696        5.61891
        5.67013        5.74513        5.85237        6.03810        6.12899
        6.19424        6.22446       37.04168       51.47835       51.51866
       51.57129       51.60307
 Time used in FCKEIG, thr_jaco:   2.20D-02  2.60D-02  3.68D-07
 CPU and wall times used in FCKEIG, THR_FCKEIG:   2.20D-02  2.60D-02  8.46D-05
 -----------------------------------------------------------------------------

 *** DIIS iteration number    7
 RDSUPM called. NFMAT, ISYMDM(1:NFMAT)                     1
                     1

 ITDIIS, energy, error norm, change in energy, scr.thr., difden:
@ DIIS iter.   7    -360.760474739        2.44842D-03   -7.03D-06  -20    F

 (DIIS_RED) Control Parameters C2DIIS =         F NEVC =    7


 (DIIS_RED) B matrix:

               Column   1     Column   2     Column   3     Column   4     Column   5     Column   6
       1      13.96507143
       2       0.93180124     0.89283010
       3       0.70152667     0.04955617     0.12704955
       4       0.01673520     0.08044507    -0.00359394     0.01191126
       5       0.01418615     0.00679113     0.00523049     0.00106007     0.00064434
       6      -0.00191161    -0.00030685     0.00061189     0.00025767     0.00006910     0.00007163
       7       0.00054542    -0.00001491     0.00007664     0.00000283     0.00003866    -0.00000072

               Column   7
       7       0.00000599
    ==== End of matrix output ====

 DIIS C vector; C2DIIS = F, LAMBDA = -1.34D-06
   -0.000240   -0.001109    0.007930    0.023265   -0.151541    0.013401    1.108294
* Read MO coefficients from SIRIUS.RST with label "NEWORB  " and header info:  3Dec18  DIIS   7
      Virial theorem: -V/T =      2.002837
@      MULPOP N      -0.63; H       0.23; H       0.20; H       0.23; O      -0.78; O      -0.66; O      -0.83; O      -0.65; H       0.37; H       0.38; 
@             H       0.32; H       0.40; H       0.40; H       0.36; H       0.34; H       0.33; 

 DIIS Fock eigenvalues in symmetry 1
      -20.58405      -20.53996      -20.52842      -20.50255      -15.52923
       -1.35830       -1.31873       -1.30269       -1.27037       -1.13388
       -0.71042       -0.69673       -0.68376       -0.67164       -0.63630
       -0.60887       -0.60432       -0.57650       -0.54105       -0.53136
       -0.52662       -0.49563       -0.48623       -0.46154       -0.41992
        0.00000        0.14281        0.17238        0.21909        0.22967
        0.24943        0.26173        0.26512        0.31463        0.32831
        0.36399        0.39529        0.48265        0.51586        0.53415
        0.55650        0.58746        0.59318        0.61319        0.62564
        0.62965        0.64174        0.70079        0.91939        0.93786
        0.96239        0.96573        0.97662        1.00445        1.02891
        1.05546        1.07349        1.08693        1.09672        1.10247
        1.15419        1.16402        1.17742        1.29475        1.32750
        1.36162        1.39860        1.41449        1.45929        1.47796
        1.50470        1.52794        1.54021        1.55795        1.59416
        1.67006        1.67857        1.69320        1.74758        1.75701
        1.78092        1.81909        1.83073        1.86853        1.90135
        1.91613        1.95164        1.97365        1.99573        2.02903
        2.17718        2.20890        2.21550        2.25966        2.32824
        2.33055        2.34530        2.35939        2.51101        2.55274
        2.58359        2.64201        2.66765        2.68504        2.75997
        2.77741        2.78908        2.81408        2.82682        2.86503
        2.89121        2.91306        2.99255        3.06756        3.21016
        3.40191        3.41121        3.43288        3.44445        3.45246
        3.47355        3.52942        3.54413        3.55984        3.56970
        3.60075        3.64407        3.64891        3.66621        3.94492
        4.04558        4.09645        4.12531        4.17021        4.19033
        4.21630        4.24715        4.58536        5.16413        5.25484
        5.30869        5.35585        5.39187        5.42696        5.61937
        5.67012        5.74515        5.85233        6.03811        6.12894
        6.19469        6.22445       37.04227       51.47835       51.51858
       51.57202       51.60299
 Time used in FCKEIG, thr_jaco:   2.20D-02  2.90D-02  1.07D-07
 CPU and wall times used in FCKEIG, THR_FCKEIG:   2.20D-02  2.90D-02  2.45D-05
 -----------------------------------------------------------------------------

 *** DIIS iteration number    8
 RDSUPM called. NFMAT, ISYMDM(1:NFMAT)                     1
                     1

 ITDIIS, energy, error norm, change in energy, scr.thr., difden:
@ DIIS iter.   8    -360.760475357        3.71207D-04   -6.18D-07  -20    F

 (DIIS_RED) Control Parameters C2DIIS =         F NEVC =    8


 (DIIS_RED) B matrix:

               Column   1     Column   2     Column   3     Column   4     Column   5     Column   6
       1      13.96507143
       2       0.93180124     0.89283010
       3       0.70152667     0.04955617     0.12704955
       4       0.01673520     0.08044507    -0.00359394     0.01191126
       5       0.01418615     0.00679113     0.00523049     0.00106007     0.00064434
       6      -0.00191161    -0.00030685     0.00061189     0.00025767     0.00006910     0.00007163
       7       0.00054542    -0.00001491     0.00007664     0.00000283     0.00003866    -0.00000072
       8       0.00003307     0.00000911    -0.00000094     0.00000321     0.00000105     0.00000144

               Column   7     Column   8
       7       0.00000599
       8       0.00000031     0.00000014
    ==== End of matrix output ====

 DIIS C vector; C2DIIS = F, LAMBDA = -8.27D-08
    0.000007   -0.000104   -0.000319   -0.000176    0.013799   -0.033579   -0.135625    1.155997
* Read MO coefficients from SIRIUS.RST with label "NEWORB  " and header info:  3Dec18  DIIS   8
      Virial theorem: -V/T =      2.002851
@      MULPOP N      -0.63; H       0.23; H       0.20; H       0.23; O      -0.78; O      -0.66; O      -0.83; O      -0.65; H       0.37; H       0.38; 
@             H       0.32; H       0.40; H       0.40; H       0.36; H       0.34; H       0.33; 

 DIIS Fock eigenvalues in symmetry 1
      -20.58403      -20.53992      -20.52835      -20.50260      -15.52925
       -1.35828       -1.31871       -1.30267       -1.27038       -1.13388
       -0.71040       -0.69672       -0.68375       -0.67165       -0.63631
       -0.60888       -0.60433       -0.57650       -0.54104       -0.53136
       -0.52664       -0.49562       -0.48621       -0.46156       -0.41993
        0.00000        0.14281        0.17237        0.21909        0.22967
        0.24943        0.26173        0.26512        0.31463        0.32831
        0.36399        0.39529        0.48265        0.51586        0.53414
        0.55649        0.58745        0.59318        0.61319        0.62564
        0.62965        0.64175        0.70078        0.91939        0.93786
        0.96239        0.96573        0.97663        1.00444        1.02891
        1.05546        1.07349        1.08693        1.09673        1.10247
        1.15420        1.16402        1.17742        1.29475        1.32750
        1.36162        1.39860        1.41449        1.45929        1.47795
        1.50470        1.52794        1.54021        1.55795        1.59415
        1.67006        1.67857        1.69320        1.74758        1.75700
        1.78091        1.81909        1.83072        1.86853        1.90135
        1.91613        1.95163        1.97364        1.99572        2.02901
        2.17718        2.20889        2.21549        2.25966        2.32824
        2.33056        2.34530        2.35939        2.51101        2.55272
        2.58359        2.64200        2.66765        2.68503        2.75996
        2.77742        2.78907        2.81408        2.82681        2.86502
        2.89121        2.91305        2.99254        3.06755        3.21015
        3.40190        3.41118        3.43288        3.44447        3.45246
        3.47356        3.52941        3.54413        3.55986        3.56968
        3.60073        3.64408        3.64892        3.66623        3.94492
        4.04558        4.09647        4.12529        4.17019        4.19034
        4.21631        4.24717        4.58535        5.16411        5.25484
        5.30870        5.35589        5.39184        5.42697        5.61934
        5.67015        5.74516        5.85234        6.03812        6.12896
        6.19466        6.22448       37.04225       51.47837       51.51863
       51.57198       51.60305
 Time used in FCKEIG, thr_jaco:   2.20D-02  5.40D-02  1.62D-08
 CPU and wall times used in FCKEIG, THR_FCKEIG:   2.20D-02  5.40D-02  3.71D-06
 -----------------------------------------------------------------------------

 *** DIIS iteration number    9
 RDSUPM called. NFMAT, ISYMDM(1:NFMAT)                     1
                     1

 ITDIIS, energy, error norm, change in energy, scr.thr., difden:
@ DIIS iter.   9    -360.760475376        1.07098D-04   -1.90D-08  -20    F

 (DIIS_RED) Control Parameters C2DIIS =         F NEVC =    8


 (DIIS_RED) B matrix:

               Column   1     Column   2     Column   3     Column   4     Column   5     Column   6
       1       0.00000001
       2       0.00000024     0.89283010
       3      -0.00000040     0.04955617     0.12704955
       4       0.00000017     0.08044507    -0.00359394     0.01191126
       5       0.00000018     0.00679113     0.00523049     0.00106007     0.00064434
[...]
 | 1 1 1 1 |  23   1  21   1 |     2663        1 |      3544454 |   -0.072855  |
 | 1 1 1 1 |  24   1  21   1 |     2664        1 |      3547117 |   -0.107080  |
 | 1 1 1 1 |  25   1  21   1 |     2665        1 |      3549781 |    0.135339  |
 | 1 1 1 1 |  31   1  21   1 |     2671        1 |      3565786 |    0.084283  |
 | 1 1 1 1 | 113   1  21   1 |     2753        1 |      3788129 |    0.099981  |
 +=============================================================================+


          Norm of Printed Amplitude Vector :             0.8763

          Printed all single excitations greater than 0.379009

          Printed all double excitations greater than 0.065223



+======================================================================+
| contributions of excitation levels to right eigenvectors as computed |
| from the (RE|RE) self overlap                                        |
+----------------------------------------------------------------------+
| sym | multi | state |    E / eV  | % singles | % doubles | % triples |
+======================================================================+
|    1|   1   |   1   |  406.43040 |  88.2085  |  11.7915  |   0.0000  |
+======================================================================+





+======================================================================+
| contributions of excitation levels to excited states as computed     |
| from the (LE|RE) overlap                                             |
+----------------------------------------------------------------------+
| sym | multi | state |    E / eV  | % singles | % doubles | % triples |
+======================================================================+
|    1|   1   |   1   |  406.43040 |  78.9063  |  21.0937  |   0.0000  |
+======================================================================+



 --------------------------
 Symmetry class Nr.:     1
 Multiplicity      :     3
 --------------------------

 Length of Excitation vectors in this class is:   7689528
 No Excitation Energies calculated in this symmetry class
     

   *******************************************************************
   *                                                                 *
   *--------   OUTPUT FROM PROPERTY AND SYMMETRY ANALYSIS   ---------*
   *                                                                 *
   *******************************************************************



                         +-------------------------------+
                         ! REQUESTED PROPERTY OPERATORS: !
                         +-------------------------------+

             Index   Oper. Label  Symmetry  Transp.  PDBS  Atom
             --------------------------------------------------
                1     HAM0            1        1      T      0
                2     XDIPLEN         1        1      F      0
                3     YDIPLEN         1        1      F      0
                4     ZDIPLEN         1        1      F      0
             --------------------------------------------------




                         +-------------------------------+
                         ! REQUESTED EXPECTATION VALUES: !
                         +-------------------------------+

                       Index   Oper. Label  Symmetry
                       -----------------------------
                       -----------------------------




                       +------------------------------------+
                       ! REQUESTED EFFECTIVE FOCK MATRICES: !
                       +------------------------------------+

                       Index   Oper. Label  Symmetry
                       -----------------------------
                       -----------------------------




                        +----------------------------------+
                        ! REQUESTED FIRST ORDER M-VECTORS: !
                        +----------------------------------+

               Index   State Symmetry  Frequency
               --------------------------------------------------
                  1             1    1     1.493604D+01
               --------------------------------------------------


      

    *******************************************************************
    *          SOLVING COUPLED CLUSTER RESPONSE EQUATIONS             *
    *******************************************************************



 
 +======================================================================+
 !                     RHS & ETA VECTORS TO COMPUTE:                    !
 +======================================================================+
 | TYPE | # VEC. |  NEEDED FOR:                                         |
 +----------------------------------------------------------------------+
 +======================================================================+



 +======================================================================+
 !                       LINEAR EQUATIONS TO SOLVE:                     !
 +======================================================================+
 | TYPE | # VEC. |  EQUATION:                                           |
 +----------------------------------------------------------------------+
 |  M1  |    1   |  first-order ground - excited state multipliers      |
 +======================================================================+



 +======================================================================+
 !                F MATRIX TRANSFORMATIONS TO COMPUTE:                  !
 +======================================================================+
 | TYPE | # VEC. |  TRANSFORMED:                                        |
 +----------------------------------------------------------------------+
 |  FR  |    1   |  right eigenvectors (RE)                             |
 +======================================================================+





 Testing R1 list: 

 List nr.  Label     Symmetry      Frequency      T1-norm        T2-norm


 Testing L1 list: 

 List nr.  Label     Symmetry      Frequency      T1-norm        T2-norm
  Solvent 1-order response equations converged in                     0 
  solvent iterations
 SONIAPRI                     0
 CCEQ_STR: CVSEPARATION =  T
 CCEQ_STR: IONIZATION =  T
 CCEQ_STR: REMOVE_CORE =  F
 could not find required file CCM1_1___1
 IOPTSV is    33 ... program continues nevertheless.
 Vector nr.  1 of type M1  and symmetry  1 was not found on file.
     M1  start vector nr.  1 of symmetry  1 generated from gradient
 CCEQ_STR: freeze VALENCE OR VIRT
 CCEQ_SOL: CVSEPARA=     T
 CCEQ_SOL: LIONISAT=     T
 CCEQ_SOL: REMOVE_CORE =  F



 ----- COUPLED CLUSTER RESPONSE SOLVER -----

    Iter  #Vectors  time (min)   residual
    --------------------------------------
 CCRED CVS/IONIS sigma_                     1 
 project out valence occupied or virtual
      1       1         1.31     0.33E+00
 CCRED CVS/IONIS sigma_                     2 
 project out valence occupied or virtual
      2       1         1.31     0.72E-01
 CCRED CVS/IONIS sigma_                     3 
 project out valence occupied or virtual
                    -1  vectors with norm le:  1.000000000000000E-035  REMOVED

 CCORT,**WARNING**  number vectors added is zero after check for vector norm , NBADD :    0

 CCORT, number vectors added is zero , NBADD :    0

 CCORT, number vectors added is zero , NBADD :    0

 CCORT, number vectors added is zero , NBADD :    0

 *** MICROITERATIONS STOPPED DUE TO LINEAR DEPENDENCE BETWEEN ALL NEW TRIAL VECTORS
                     0  trial vectors converged
  LINEAR DEPENDENCE BETWEEN                     1  NON CONVERGED TRIAL VECTORS
      3       1         1.29     0.76E-02

 ***  CCEQ_SOL -MICROITERATIONS STOPPED  
     LINEAR DEPENDENCE BETWEEN ALL NEW TRIAL VECTORS
    --------------------------------------
    converged in  3 iterations
    threshold:    0.10E-08


         Routine          Time (min)
         ---------------------------
         CC_TRDRV            3.92
         CCRED               0.02
         CCNEX               0.03
         ---------------------------
         Total time          3.97


  Total CPU  time used in CCEQ_SOLV:  3 minutes 58 seconds
  Total wall time used in CCEQ_SOLV:  4 minutes  5 seconds


 xxxxxxxxxxxxxxxxxxxxxxxxxxxxxxxxxxxxx

 
 Solution of CC response equations completed.
 

 *******************************************************************
 *                                                                 *
 *--------  OUTPUT FROM COUPLED CLUSTER LINEAR RESPONSE   ---------*
 *                                                                 *
 *--------      CALCULATION OF SECOND ORDER RESIDUES      ---------*
 *                                                                 *
 *******************************************************************



                  +---------------------------------------------+
                  ! CC_SOPR: Calculation of CCSD       Residues !
                  +---------------------------------------------+

 Doing the Mf*CsiA
 Doing the Mf*CsiA
 Doing the Mf*CsiA


 CCSD  Right transition moments in atomic units:
 -----------------------------------------------

  1      14.936043  <XDIPLEN |f> =      -0.00000000
  1      14.936043  <YDIPLEN |f> =       0.00000000
  1      14.936043  <ZDIPLEN |f> =       0.00000001


 CCSD  Left  transition moments in atomic units:
 -----------------------------------------------

  1      14.936043  <f|XDIPLEN > =      -0.00000000
  1      14.936043  <f|YDIPLEN > =       0.00000000
  1      14.936043  <f|ZDIPLEN > =       0.00000000


 CCSD  linear response residue property in atomic units:
 -------------------------------------------------------

 RES{<<XDIPLEN ,XDIPLEN >>(14.936043)} =     0.00000000 (   0.00000000)
 RES{<<XDIPLEN ,YDIPLEN >>(14.936043)} =    -0.00000000 (  -0.00000000)
 RES{<<XDIPLEN ,ZDIPLEN >>(14.936043)} =    -0.00000000 (  -0.00000000)
 RES{<<YDIPLEN ,XDIPLEN >>(14.936043)} =    -0.00000000 (  -0.00000000)
 RES{<<YDIPLEN ,YDIPLEN >>(14.936043)} =     0.00000000 (   0.00000000)
 RES{<<YDIPLEN ,ZDIPLEN >>(14.936043)} =     0.00000000 (   0.00000000)
 RES{<<ZDIPLEN ,XDIPLEN >>(14.936043)} =    -0.00000000 (  -0.00000000)
 RES{<<ZDIPLEN ,YDIPLEN >>(14.936043)} =     0.00000000 (   0.00000000)
 RES{<<ZDIPLEN ,ZDIPLEN >>(14.936043)} =     0.00000000 (   0.00000001)


 CCSD  Transition strength matrix for state nr.  1 of symmetry 1
 CCSD  excitation energy:14.93604301

 Gauge: length

               Column   1     Column   2     Column   3
       1     8.171301D-19  -2.593316D-18  -5.093777D-18
       2    -2.593316D-18   8.214295D-18   1.615269D-17
       3    -5.093777D-18   1.615269D-17   3.174216D-17
    ==== End of matrix output ====

 Principal values of diagonalized transition strength matrix:

             a.u.               
 1       0.00000000
 2       0.00000000
 3       0.00000000

 Principal axis of diagonalized transition strength matrix:


               Column   1     Column   2     Column   3
       1       1.00000000     0.00000000     0.00000000
       2       0.00000000     1.00000000     0.00000000
       3       0.00000000     0.00000000     1.00000000
    ==== End of matrix output ====


 CCSD   oscillator strength matrix for state nr.  1 of symmetry 1
 CCSD  excitation energy:14.93604301


               Column   1     Column   2     Column   3
       1     8.136460D-18  -2.582259D-17  -5.072058D-17
       2    -2.582259D-17   8.179271D-17   1.608381D-16
       3    -5.072058D-17   1.608381D-16   3.160682D-16
    ==== End of matrix output ====

 Principal values of diagonalized oscillator strength matrix:

             a.u.               
 1       0.00000000
 2       0.00000000
 3       0.00000000

 Principal axis of diagonalized oscillator strength matrix:


               Column   1     Column   2     Column   3
       1       1.00000000     0.00000000     0.00000000
       2       0.00000000     1.00000000     0.00000000
       3       0.00000000     0.00000000     1.00000000
    ==== End of matrix output ====

  Total time for      9 linear response residues:       3.40 seconds.
  

 *******************************************************************************
 *******************************************************************************
 *                                                                             *
 *                                                                             *
 *                   SUMMARY OF COUPLED CLUSTER CALCULATION                    *
 *                                                                             *
 *                                                                             *
 *******************************************************************************
 *******************************************************************************

                                                                                
                                                                                
            Total SCF   energy:                  -360.7604753778                
            Total MP2   energy:                  -361.8644346114                
            Total CCSD  energy:                  -361.9031445721                
                                                                                
                                                                                
            Total SCF   energy:                  -360.7604753778                
            Total RSTAR energy:                  -361.9031445721                
            Total CCSD  energy:                  -361.9032856629                
                                                                                
                                                                                
            Total SCF   energy:                  -360.7604753778                
            Total RSTAR energy:                  -361.9032856629                
            Total CCSD  energy:                  -361.9032873208                
                                                                                
                                                                                
            Total SCF   energy:                  -360.7604753778                
            Total RSTAR energy:                  -361.9032873208                
            Total CCSD  energy:                  -361.9032874563                
                                                                                
                                                                                
            Total SCF   energy:                  -360.7604753778                
            Total RSTAR energy:                  -361.9032874563                
            Total CCSD  energy:                  -361.9032874643                
                                                                                
                                                                                
            Total SCF   energy:                  -360.7604753778                
            Total RSTAR energy:                  -361.9032874643                
            Total CCSD  energy:                  -361.9032874648                
                                                                                
                                                                                
            Total SCF   energy:                  -360.7604753778                
            Total RSTAR energy:                  -361.9032874648                
            Total CCSD  energy:                  -361.9032874648                
            CCSD Total  energy:                  -362.3110544580                
            CCSD E(QM/MM)     :                    -0.4029066925                
                                                                                
                                                                                
                                                                                
 +=============================================================================+
 |  sym. | Exci.  |        CCSD       Excitation energies            | ||T1||  |
 |(spin, |        +------------------------------------------------------------+
 | spat) |        |     Hartree    |       eV.      |     cm-1       |    %    |
 +=============================================================================+
 | ^1A   |    1   |    14.9360430  |     406.43040  |   3278082.503  |  88.21  |
 +=============================================================================+
                                                                                
                                                                                
     Total energies in Hartree:                                                 
             1 ^1A       -346.9721047573                                        
                                                                                
                                                                                
 +=============================================================================+
 |  sym. | Exci.  |        CCSD       Length   Gauge Oscillator Strength       |
 |(spin, |        +------------------------------------------------------------+
 | spat) |        | Dipole Strength(a.u.) | Oscillator strength  | Direction   |
 +=============================================================================+
 | ^1A   |    1   |        0.0000000      |      0.0000000       |    -        |
 +=============================================================================+

  1 a.u. =        27.21138 eV.  
  1 a.u. =    219474.62934 cm-1.
  

 *******************************************************************************
 *******************************************************************************
 *                                                                             *
 *                                                                             *
 *                      END OF COUPLED CLUSTER CALCULATION                     *
 *                                                                             *
 *                                                                             *
 *******************************************************************************
 *******************************************************************************


 CPU and wall time for CC :    7113.842    9064.850

 
     Date and time (Linux)  : Mon Dec  3 20:31:03 2018
     Host name              : n-62-23-32                              


                      .-------------------------------------.
                      | End of Coupled Cluster Section (CC) |
                      `-------------------------------------'

  Total CPU  time used in DALTON:   2 hours  0 minutes 41 seconds
  Total wall time used in DALTON:   2 hours 36 minutes 51 seconds

 
     Date and time (Linux)  : Mon Dec  3 20:31:03 2018
     Host name              : n-62-23-32                              
  

 +---------------------------------------------------------+ 
 | List of selected calculated molecular properties (a.u.) | 
 +---------------------------------------------------------+ 

  Properties are read from unit number                      4

 CCSD       properties :
 #  1 1 CCSD/MM  Ground state Energy =    -362.3110544580
 #  2 1 E_QM/MM  Ground state Energy =      -0.4029066925
 #  3 1 Sy: 1 Sp: 1 Exc:  1 E_tot:   -346.9721047573 w:     14.9360430082 E_grs:   -361.9081477655
 #  4 1 Exctot   Excited state Energy =    -346.9721047573
 #  5 1 |<O|XDIPLEN |i(14.936043)>| =     0.00000000
 #  7 1 |<O|YDIPLEN |i(14.936043)>| =     0.00000000
 #  9 1 |<O|ZDIPLEN |i(14.936043)>| =     0.00000001

 THE_END   
