

     ************************************************************************
     *************** Dalton - An Electronic Structure Program ***************
     ************************************************************************

    This is output from DALTON release Dalton2017.alpha (2016)
         ( Web site: http://daltonprogram.org )

   ----------------------------------------------------------------------------

    NOTE:
     
    Dalton is an experimental code for the evaluation of molecular
    properties using (MC)SCF, DFT, CI, and CC wave functions.
    The authors accept no responsibility for the performance of
    the code or for the correctness of the results.
     
    The code (in whole or part) is provided under a licence and
    is not to be reproduced for further distribution without
    the written permission of the authors or their representatives.
     
    See the home page "http://daltonprogram.org" for further information.
     
    If results obtained with this code are published,
    the appropriate citations would be both of:
     
       K. Aidas, C. Angeli, K. L. Bak, V. Bakken, R. Bast,
       L. Boman, O. Christiansen, R. Cimiraglia, S. Coriani,
       P. Dahle, E. K. Dalskov, U. Ekstroem,
       T. Enevoldsen, J. J. Eriksen, P. Ettenhuber, B. Fernandez,
       L. Ferrighi, H. Fliegl, L. Frediani, K. Hald, A. Halkier,
       C. Haettig, H. Heiberg, T. Helgaker, A. C. Hennum,
       H. Hettema, E. Hjertenaes, S. Hoest, I.-M. Hoeyvik,
       M. F. Iozzi, B. Jansik, H. J. Aa. Jensen, D. Jonsson,
       P. Joergensen, J. Kauczor, S. Kirpekar,
       T. Kjaergaard, W. Klopper, S. Knecht, R. Kobayashi, H. Koch,
       J. Kongsted, A. Krapp, K. Kristensen, A. Ligabue,
       O. B. Lutnaes, J. I. Melo, K. V. Mikkelsen, R. H. Myhre,
       C. Neiss, C. B. Nielsen, P. Norman, J. Olsen,
       J. M. H. Olsen, A. Osted, M. J. Packer, F. Pawlowski,
       T. B. Pedersen, P. F. Provasi, S. Reine, Z. Rinkevicius,
       T. A. Ruden, K. Ruud, V. Rybkin, P. Salek, C. C. M. Samson,
       A. Sanchez de Meras, T. Saue, S. P. A. Sauer,
       B. Schimmelpfennig, K. Sneskov, A. H. Steindal,
       K. O. Sylvester-Hvid, P. R. Taylor, A. M. Teale,
       E. I. Tellgren, D. P. Tew, A. J. Thorvaldsen, L. Thoegersen,
       O. Vahtras, M. A. Watson, D. J. D. Wilson, M. Ziolkowski
       and H. Agren,
       "The Dalton quantum chemistry program system",
       WIREs Comput. Mol. Sci. 2014, 4:269–284 (doi: 10.1002/wcms.1172)
     
    and
     
       Dalton, a Molecular Electronic Structure Program,
       Release Dalton2017.alpha (2016), see http://daltonprogram.org
   ----------------------------------------------------------------------------

    Authors in alphabetical order (major contribution(s) in parenthesis):

  Kestutis Aidas,           Vilnius University,           Lithuania   (QM/MM)
  Celestino Angeli,         University of Ferrara,        Italy       (NEVPT2)
  Keld L. Bak,              UNI-C,                        Denmark     (AOSOPPA, non-adiabatic coupling, magnetic properties)
  Vebjoern Bakken,          University of Oslo,           Norway      (DALTON; geometry optimizer, symmetry detection)
  Radovan Bast,             UiT The Arctic U. of Norway,  Norway      (DALTON installation and execution frameworks)
  Pablo Baudin,             University of Valencia,       Spain       (Cholesky excitation energies)
  Linus Boman,              NTNU,                         Norway      (Cholesky decomposition and subsystems)
  Ove Christiansen,         Aarhus University,            Denmark     (CC module)
  Renzo Cimiraglia,         University of Ferrara,        Italy       (NEVPT2)
  Sonia Coriani,            University of Trieste,        Italy       (CC module, MCD in RESPONS)
  Janusz Cukras,            University of Trieste,        Italy       (MChD in RESPONS)
  Paal Dahle,               University of Oslo,           Norway      (Parallelization)
  Erik K. Dalskov,          UNI-C,                        Denmark     (SOPPA)
  Thomas Enevoldsen,        Univ. of Southern Denmark,    Denmark     (SOPPA)
  Janus J. Eriksen,         Aarhus University,            Denmark     (Polarizable embedding model, TDA)
  Rasmus Faber,             University of Copenhagen,     Denmark     (Vib.avg. NMR with SOPPA, parallel AO-SOPPA)
  Berta Fernandez,          U. of Santiago de Compostela, Spain       (doublet spin, ESR in RESPONS)
  Lara Ferrighi,            Aarhus University,            Denmark     (PCM Cubic response)
  Heike Fliegl,             University of Oslo,           Norway      (CCSD(R12))
  Luca Frediani,            UiT The Arctic U. of Norway,  Norway      (PCM)
  Bin Gao,                  UiT The Arctic U. of Norway,  Norway      (Gen1Int library)
  Christof Haettig,         Ruhr-University Bochum,       Germany     (CC module)
  Kasper Hald,              Aarhus University,            Denmark     (CC module)
  Asger Halkier,            Aarhus University,            Denmark     (CC module)
  Frederik Beyer Hansen,    University of Copenhagen,     Denmark     (Parallel AO-SOPPA)
  Erik D. Hedegaard,        Univ. of Southern Denmark,    Denmark     (Polarizable embedding model, QM/MM)
  Hanne Heiberg,            University of Oslo,           Norway      (geometry analysis, selected one-electron integrals)
  Trygve Helgaker,          University of Oslo,           Norway      (DALTON; ABACUS, ERI, DFT modules, London, and much more)
  Alf Christian Hennum,     University of Oslo,           Norway      (Parity violation)
  Hinne Hettema,            University of Auckland,       New Zealand (quadratic response in RESPONS; SIRIUS supersymmetry)
  Eirik Hjertenaes,         NTNU,                         Norway      (Cholesky decomposition)
  Pi A. B. Haase,           University of Copenhagen,     Denmark     (Triplet AO-SOPPA)
  Maria Francesca Iozzi,    University of Oslo,           Norway      (RPA)
  Brano Jansik              Technical Univ. of Ostrava    Czech Rep.  (DFT cubic response)
  Hans Joergen Aa. Jensen,  Univ. of Southern Denmark,    Denmark     (DALTON; SIRIUS, RESPONS, ABACUS modules, London, and much more)
  Dan Jonsson,              UiT The Arctic U. of Norway,  Norway      (cubic response in RESPONS module)
  Poul Joergensen,          Aarhus University,            Denmark     (RESPONS, ABACUS, and CC modules)
  Maciej Kaminski,          University of Warsaw,         Poland      (CPPh in RESPONS)
  Joanna Kauczor,           Linkoeping University,        Sweden      (Complex polarization propagator (CPP) module)
  Sheela Kirpekar,          Univ. of Southern Denmark,    Denmark     (Mass-velocity & Darwin integrals)
  Wim Klopper,              KIT Karlsruhe,                Germany     (R12 code in CC, SIRIUS, and ABACUS modules)
  Stefan Knecht,            ETH Zurich,                   Switzerland (Parallel CI and MCSCF)
  Rika Kobayashi,           Australian National Univ.,    Australia   (DIIS in CC, London in MCSCF)
  Henrik Koch,              NTNU,                         Norway      (CC module, Cholesky decomposition)
  Jacob Kongsted,           Univ. of Southern Denmark,    Denmark     (Polarizable embedding model, QM/MM)
  Andrea Ligabue,           University of Modena,         Italy       (CTOCD, AOSOPPA)
  Nanna H. List             Univ. of Southern Denmark,    Denmark     (Polarizable embedding model)
  Ola B. Lutnaes,           University of Oslo,           Norway      (DFT Hessian)
  Juan I. Melo,             University of Buenos Aires,   Argentina   (LRESC, Relativistic Effects on NMR Shieldings)
  Kurt V. Mikkelsen,        University of Copenhagen,     Denmark     (MC-SCRF and QM/MM)
  Rolf H. Myhre,            NTNU,                         Norway      (Cholesky, subsystems and ECC2)
  Christian Neiss,          Univ. Erlangen-Nuernberg,     Germany     (CCSD(R12))
  Christian B. Nielsen,     University of Copenhagen,     Denmark     (QM/MM)
  Patrick Norman,           Linkoeping University,        Sweden      (Cubic response and complex frequency response in RESPONS)
  Jeppe Olsen,              Aarhus University,            Denmark     (SIRIUS CI/density modules)
  Jogvan Magnus H. Olsen,   Univ. of Southern Denmark,    Denmark     (Polarizable embedding model, QM/MM)
  Anders Osted,             Copenhagen University,        Denmark     (QM/MM)
  Martin J. Packer,         University of Sheffield,      UK          (SOPPA)
  Filip Pawlowski,          Kazimierz Wielki University,  Poland      (CC3)
  Morten N. Pedersen,       Univ. of Southern Denmark,    Denmark     (Polarizable embedding model)
  Thomas B. Pedersen,       University of Oslo,           Norway      (Cholesky decomposition)
  Patricio F. Provasi,      University of Northeastern,   Argentina   (Analysis of coupling constants in localized orbitals)
  Zilvinas Rinkevicius,     KTH Stockholm,                Sweden      (open-shell DFT, ESR)
  Elias Rudberg,            KTH Stockholm,                Sweden      (DFT grid and basis info)
  Torgeir A. Ruden,         University of Oslo,           Norway      (Numerical derivatives in ABACUS)
  Kenneth Ruud,             UiT The Arctic U. of Norway,  Norway      (DALTON; ABACUS magnetic properties and much more)
  Pawel Salek,              KTH Stockholm,                Sweden      (DALTON; DFT code)
  Claire C. M. Samson       University of Karlsruhe       Germany     (Boys localization, r12 integrals in ERI)
  Alfredo Sanchez de Meras, University of Valencia,       Spain       (CC module, Cholesky decomposition)
  Trond Saue,               Paul Sabatier University,     France      (direct Fock matrix construction)
  Stephan P. A. Sauer,      University of Copenhagen,     Denmark     (SOPPA(CCSD), SOPPA prop., AOSOPPA, vibrational g-factors)
  Bernd Schimmelpfennig,    Forschungszentrum Karlsruhe,  Germany     (AMFI module)
  Kristian Sneskov,         Aarhus University,            Denmark     (Polarizable embedding model, QM/MM)
  Arnfinn H. Steindal,      UiT The Arctic U. of Norway,  Norway      (parallel QM/MM, Polarizable embedding model)
  Casper Steinmann,         Univ. of Southern Denmark,    Denmark     (QFIT, Polarizable embedding model)
  K. O. Sylvester-Hvid,     University of Copenhagen,     Denmark     (MC-SCRF)
  Peter R. Taylor,          VLSCI/Univ. of Melbourne,     Australia   (Symmetry handling ABACUS, integral transformation)
  Andrew M. Teale,          University of Nottingham,     England     (DFT-AC, DFT-D)
  David P. Tew,             University of Bristol,        England     (CCSD(R12))
  Olav Vahtras,             KTH Stockholm,                Sweden      (triplet response, spin-orbit, ESR, TDDFT, open-shell DFT)
  David J. Wilson,          La Trobe University,          Australia   (DFT Hessian and DFT magnetizabilities)
  Hans Agren,               KTH Stockholm,                Sweden      (SIRIUS module, RESPONS, MC-SCRF solvation model)
 --------------------------------------------------------------------------------

     Date and time (Linux)  : Thu Nov 29 08:49:57 2018
     Host name              : n-62-29-10                              

 * Work memory size             :  1280000000 =  9.537 gigabytes.

 * Directories for basis set searches:
   1) /zhome/d7/7/119775/My_Codes/dalton-private/build2016/basis/diffs
   2) /zhome/37/3/129401/NH3NH4/CCSD/AIMD_SAMPLING/nh3_4h2o_nd
   3) /zhome/9a/4/124800/source/dalton/build-mlcc/basis


Compilation information
-----------------------

 Who compiled             | rfaber
 Host                     | hpclogin1
 System                   | Linux-2.6.32-696.1.1.el6.x86_64
 CMake generator          | Unix Makefiles
 Processor                | x86_64
 64-bit integers          | ON
 MPI                      | OFF
 Fortran compiler         | /opt/intel/2016update2/compilers_and_libraries_201
                          | 6.2.181/linux/bin/intel64/ifort
 Fortran compiler version | ifort (IFORT) 16.0.2 20160204
 C compiler               | /opt/intel/2016update2/compilers_and_libraries_201
                          | 6.2.181/linux/bin/intel64/icc
 C compiler version       | icc (ICC) 16.0.2 20160204
 C++ compiler             | /opt/intel/2016update2/compilers_and_libraries_201
                          | 6.2.181/linux/bin/intel64/icpc
 C++ compiler version     | icpc (ICC) 16.0.2 20160204
 Static linking           | OFF
 Last Git revision        | bb4d1599ca5680a9f3980451fc8bbefdba436d59
 Git branch               | mlcc
 Configuration time       | 2017-06-13 16:11:03.928841


   Content of the .dal input file
 ----------------------------------

**DALTON
.RUN WAVE FUNCTIONS
*QMMM
.QMMM
**INTEGRALS
.DIPLEN
**WAVE FUNCTIONS
.CC
*PRINT
!To check the origin of excit
.PRINTL
   0 11
*SCF INP
.THRESH
1.0D-7
*CC INP
.CCSD
.THRLEQ
 1.0D-9
.THRENR
 1.0D-10
.FROIMP
4
0
.PRINT
 1
.MAX IT
 1200
.MAXRED
 1200
.MXLRV
1199
*CCSLV
.CCMM
.MXSLIT
200
.MXINIT
4 5
*CCEXCI
.NCCEXC
 1
.IONISATION
1
1
.CVSEPARA
1
1
*CCLRSD
.DIPOLE
**END OF DALTON INPUT


   Content of the .mol file
 ----------------------------

ATOMBASIS


Atomtypes=5 Charge=0 Nosymm Angstrom
   7.00000    1    Basis=6-311G**
N          0.000000        0.000000        0.000000
   1.00000    3    Basis=6-311G**
H         -0.306822       -0.691181       -0.628859
H          0.112089       -0.358646        0.957385
H         -0.820762        0.645622        0.083489
   8.00000    4    Basis=6-311G**
O         -0.715037       -3.093827       -1.981898
O          1.654059        1.541775       -1.686531
O         -1.737990        1.542770        2.663809
O         -1.455130       -1.249108        3.500592
   1.00000    8    Basis=6-311G**
H         -1.442120       -3.102426       -2.604146
H         -0.055572       -3.733675       -2.267560
H          2.290932        2.320695       -1.538758
H          1.485178        1.052420       -0.840119
H         -2.461993        2.067136        3.131312
H         -0.951402        1.847034        3.163876
H         -1.765928       -0.467008        2.963780
H         -0.599330       -1.520102        3.151803
   0.00000    1    Basis=diffs
X          0.000000        0.000000        0.000000


       *******************************************************************
       *********** Output from DALTON general input processing ***********
       *******************************************************************

 --------------------------------------------------------------------------------
   Overall default print level:    0
   Print level for DALTON.STAT:    1

    HERMIT 1- and 2-electron integral sections will be executed
    "Old" integral transformation used (limited to max 255 basis functions)
    Wave function sections will be executed (SIRIUS module)
 --------------------------------------------------------------------------------


 Changes of defaults for *QMMM  :
 --------------------------------

 +------------------+
 |  WORD: | CHANGE: |
 +------------------+
 |   QMMM |       T |
 +------------------+
 


   ****************************************************************************
   *************** Output of molecule and basis set information ***************
   ****************************************************************************


    The two title cards from your ".mol" input:
    ------------------------------------------------------------------------
 1:                                                                         
 2:                                                                         
    ------------------------------------------------------------------------

  Coordinates are entered in Angstrom and converted to atomic units.
          - Conversion factor : 1 bohr = 0.52917721 A

  Atomic type no.    1
  --------------------
  Nuclear charge:   7.00000
  Number of symmetry independent centers:    1
  Number of basis sets to read;    2
  The basis set is "6-311G**" from the basis set library.
  Basis set file used for this atomic type with Z =   7 :
     "/zhome/9a/4/124800/source/dalton/build-mlcc/basis/6-311G**"

  Info about the basis set file: your basis has no documentation.
  Basis set: 6-311G**                                                                        

  Atomic type no.    2
  --------------------
  Nuclear charge:   1.00000
  Number of symmetry independent centers:    3
  Number of basis sets to read;    2
  The basis set is "6-311G**" from the basis set library.
  Basis set file used for this atomic type with Z =   1 :
     "/zhome/9a/4/124800/source/dalton/build-mlcc/basis/6-311G**"

  Info about the basis set file: your basis has no documentation.
  Basis set: 6-311G**                                                                        

  Atomic type no.    3
  --------------------
  Nuclear charge:   8.00000
  Number of symmetry independent centers:    4
  Number of basis sets to read;    2
  The basis set is "6-311G**" from the basis set library.
  Basis set file used for this atomic type with Z =   8 :
     "/zhome/9a/4/124800/source/dalton/build-mlcc/basis/6-311G**"

  Info about the basis set file: your basis has no documentation.
  Basis set: 6-311G**                                                                        

  Atomic type no.    4
  --------------------
  Nuclear charge:   1.00000
  Number of symmetry independent centers:    8
  Number of basis sets to read;    2
  The basis set is "6-311G**" from the basis set library.
  Basis set file used for this atomic type with Z =   1 :
     "/zhome/9a/4/124800/source/dalton/build-mlcc/basis/6-311G**"

  Info about the basis set file: your basis has no documentation.
  Basis set: 6-311G**                                                                        

  Atomic type no.    5
  --------------------
  Nuclear charge:   0.00000
  Number of symmetry independent centers:    1
  Number of basis sets to read;    2
  The basis set is "diffs" from the basis set library.
  Basis set file used for this atomic type with Z =   0 :
     "/zhome/9a/4/124800/source/dalton/build-mlcc/basis/diffs"

  Info about the basis set file: your basis has no documentation.
  Basis set: diffs                                                                           


                         SYMGRP: Point group information
                         -------------------------------

@    Point group: C1 


                                 Isotopic Masses
                                 ---------------

                           N          14.003074
                           H           1.007825
                           H           1.007825
                           H           1.007825
                           O          15.994915
                           O          15.994915
                           O          15.994915
                           O          15.994915
                           H           1.007825
                           H           1.007825
                           H           1.007825
                           H           1.007825
                           H           1.007825
                           H           1.007825
                           H           1.007825
                           H           1.007825

                       Total mass:    89.068809 amu
                       Natural abundance:  98.514 %

 Center-of-mass coordinates (a.u.):   -0.861499   -0.468527    0.966170


  Atoms and basis sets
  --------------------

  Number of atom types :    5
  Total number of atoms:   17

  label    atoms   charge   prim   cont     basis
  ----------------------------------------------------------------------
  N           1    7.0000    31    18      [11s5p1d|4s3p1d]                                   
  H           3    1.0000     8     6      [5s1p|3s1p]                                        
  O           4    8.0000    31    18      [11s5p1d|4s3p1d]                                   
  H           8    1.0000     8     6      [5s1p|3s1p]                                        
  X           1    0.0000     1     1      [1s|1s]                                            
  ----------------------------------------------------------------------
  total:     17   50.0000   244   157
  ----------------------------------------------------------------------
  Spherical harmonic basis used.

  Threshold for neglecting AO integrals:  1.00D-12


  Cartesian Coordinates (a.u.)
  ----------------------------

  Total number of coordinates:   51
  N       :     1  x   0.0000000000    2  y   0.0000000000    3  z   0.0000000000
  H       :     4  x  -0.5798095491    5  y  -1.3061427928    6  z  -1.1883712812
  H       :     7  x   0.2118175116    8  y  -0.6777427158    9  z   1.8091954462
  H       :    10  x  -1.5510153938   11  y   1.2200487603   12  z   0.1577713444
  O       :    13  x  -1.3512240992   14  y  -5.8464857081   15  z  -3.7452444277
  O       :    16  x   3.1257185046   17  y   2.9135324964   18  z  -3.1870816913
  O       :    19  x  -3.2843251080   20  y   2.9154127739   21  z   5.0338694593
  O       :    22  x  -2.7497971763   23  y  -2.3604720205   24  z   6.6151601553
  H       :    25  x  -2.7252118394   26  y  -5.8627354631   27  z  -4.9211227295
  H       :    28  x  -0.1050158602   29  y  -7.0556231897   30  z  -4.2850673720
  H       :    31  x   4.3292340510   32  y   4.3854779696   33  z  -2.9078311926
  H       :    34  x   2.8065796669   35  y   1.9887855685   36  z  -1.5875948224
  H       :    37  x  -4.6524924917   38  y   3.9063209031   39  z   5.9173220919
  H       :    40  x  -1.7978892148   41  y   3.4903884036   42  z   5.9788591334
  H       :    43  x  -3.3371202765   44  y  -0.8825172182   45  z   5.6007324947
  H       :    46  x  -1.1325695585   47  y  -2.8725764621   48  z   5.9560444699
  X       :    49  x   0.0000000000   50  y   0.0000000000   51  z   0.0000000000

  Max    interatomic separation is    8.2818 Angstrom (   15.6503 Bohr)
  between atoms   13 and   10, "H     " and "H     ".

  Min HX interatomic separation is    0.9570 Angstrom (    1.8085 Bohr)

  Min YX interatomic separation is    2.8209 Angstrom (    5.3307 Bohr)


  Bond distances (Angstrom):
  --------------------------

                  atom 1     atom 2       distance
                  ------     ------       --------
  bond distance:  H          N            0.983532
  bond distance:  H          N            1.028483
  bond distance:  H          N            1.047592
  bond distance:  H          O            0.957035
  bond distance:  H          O            0.962238
  bond distance:  H          O            1.016937
  bond distance:  H          O            0.992171
  bond distance:  H          O            1.008811
  bond distance:  H          O            0.980492
  bond distance:  H          O            0.998220
  bond distance:  H          O            0.963060


  Bond angles (degrees):
  ----------------------

                  atom 1     atom 2     atom 3         angle
                  ------     ------     ------         -----
  bond angle:     H          N          H            112.590
  bond angle:     H          N          H            103.866
  bond angle:     H          N          H            103.068
  bond angle:     H          O          H            108.764
  bond angle:     H          O          H            111.126
  bond angle:     H          O          H            100.259
  bond angle:     H          O          H            107.601




 Principal moments of inertia (u*A**2) and principal axes
 --------------------------------------------------------

   IA     337.166101         -0.363675    0.213431    0.906746
   IB     568.090023          0.379673    0.922839   -0.064941
   IC     848.030866          0.850640   -0.320649    0.416647


 Rotational constants
 --------------------

               A                   B                   C

           1498.9022            889.6108            595.9441 MHz
            0.049998            0.029674            0.019879 cm-1


@  Nuclear repulsion energy :  171.028044922726 Hartree

  Number of floating/multiple basis set orbitals :    1


                     .---------------------------------------.
                     | Starting in Integral Section (HERMIT) |
                     `---------------------------------------'



 ***************************************************************************************
 ****************** Output from **INTEGRALS input processing (HERMIT) ******************
 ***************************************************************************************



    *************************************************************************
    ****************** Output from HERMIT input processing ******************
    *************************************************************************


 Default print level:        1

 * Nuclear model: Point charge

 Calculation of one- and two-electron Hamiltonian integrals.

 The following one-electron property integrals are calculated as requested:
          - overlap integrals
          - dipole length integrals

 Center of mass  (bohr):     -0.861498590279     -0.468526667991      0.966169939890
 Operator center (bohr):      0.000000000000      0.000000000000      0.000000000000
 Gauge origin    (bohr):      0.000000000000      0.000000000000      0.000000000000
 Dipole origin   (bohr):      0.000000000000      0.000000000000      0.000000000000
 
  *********************************** 
  QMMM electrostatic potential: 
  Multipole order                                    0
  Isotropic polarization  
  *********************************** 
 
  ---------------- 
  QMMM information 
  ---------------- 
 
  MM coordinates in au 
  -------------------- 
     1    -10.018905      1.910048      9.382881
     2    -11.561337      1.951940      8.201391
     3    -10.726599      2.507646     10.972587
     4     -6.342724     11.462644      4.666631
     5     -4.945275     10.524843      5.517808
     6     -5.927319     13.215049      4.253730
     7     -3.443255     -0.051444     11.502366
     8     -2.847224     -0.656206      9.833779
     9     -2.353244     -1.234634     12.496075
    10     -7.160826      5.338429      7.728481
    11     -8.146579      3.847635      8.498656
    12     -8.181533      6.846997      8.093576
    13     -4.994017     -7.190920      3.170254
    14     -3.344887     -7.301892      2.174591
    15     -4.701126     -6.083714      4.674701
    16      8.793995      1.008441      0.781991
    17      9.803355      2.506775      0.840408
    18      9.613350     -0.171071     -0.411624
    19    -10.217052      4.266348     -5.438908
    20     -8.439124      4.480815     -5.406482
    21    -10.453604      2.570672     -6.317884
    22      2.721816    -11.596682    -11.672288
    23      1.711941    -10.325269    -10.891958
    24      2.926286    -11.095357    -13.485443
    25     11.376671    -10.405114     11.736395
    26     10.853604     -8.707488     11.005791
    27      9.985099    -11.432463     12.589123
    28     -0.287499     -1.999504     -7.806572
    29     -0.603255     -0.329009     -7.000177
    30     -1.150140     -3.141796     -6.600723
    31      7.523090     -8.905068      0.164153
    32      8.539398     -8.054015     -1.176923
    33      6.920606    -10.312878     -0.840609
    34     -0.703409      2.803025     -6.083815
    35      0.034869      3.561726     -7.609115
    36      0.354443      3.259173     -4.614821
    37     -8.596670      0.397819     -0.687388
    38     -7.160964      0.990526     -1.775095
    39     -8.482899      1.732694      0.592416
    40     -8.339295      9.400805      0.468473
    41     -7.929485      9.999380      2.165928
    42     -7.774074     10.607343     -0.802128
    43      9.908322      2.716491      5.760600
    44      9.282635      4.297895      6.431263
    45      8.282700      1.784633      5.482551
    46     10.096720     -2.140844     -3.683057
    47      8.484540     -1.720437     -4.532412
    48     10.095971     -4.020489     -3.335601
    49     -4.808986    -10.720350     11.443654
    50     -3.990170    -11.982523     10.249289
    51     -5.651748    -11.742255     12.715088
    52     -9.257012      3.979002      3.063169
    53     -8.232129      4.633189      4.518471
    54    -10.782515      3.569606      3.958065
    55     -1.015728     -8.390662     -9.560138
    56     -1.586913     -6.582961     -9.633091
    57     -2.414114     -9.403801    -10.375443
    58      2.243623    -11.080955      6.611088
    59      3.674824    -12.165061      6.105199
    60      2.271029     -9.765084      5.295831
    61    -10.339807     -7.465204      5.296587
    62    -10.511086     -6.067546      4.053566
    63    -10.887075     -8.997914      4.314455
    64      5.159077      4.915573     10.690334
    65      3.960581      5.825925     11.795196
    66      6.103934      3.595744     11.741851
    67     -9.807854      9.732173      8.722057
    68     -9.422775     10.549721      7.178253
    69    -10.365968     11.150994      9.960363
    70      6.504847      9.939502      5.468714
    71      7.841122     10.845082      4.425759
    72      7.464906      8.768061      6.737146
    73      2.820779     -3.279998      6.516080
    74      3.612196     -3.351070      8.228215
    75      3.518823     -1.724643      5.662806
    76     -1.404248     10.455707     -5.721114
    77     -1.365331      9.491055     -7.369125
    78     -0.369235      9.765774     -4.319407
    79      5.412072     -0.080395     -6.919151
    80      4.780138     -1.776700     -7.135449
    81      4.510151      0.657262     -5.449785
    82     -9.042978     -4.935146      0.250770
    83     -7.528508     -5.834560      0.914518
    84     -8.869462     -3.127467      0.318568
    85      8.879160      7.173684      8.558018
    86      7.975684      7.015741     10.190981
    87     10.497865      8.067908      8.874864
    88      5.089843      1.324422      4.442771
    89      3.558556      2.351621      4.417053
    90      5.793256      1.099737      2.738251
    91      8.304364      0.855938    -10.790058
    92      9.962273      0.504169     -9.851399
    93      6.874873      0.723368     -9.546469
    94      2.330240     -9.054337     -5.467140
    95      3.044827     -8.060646     -6.841377
    96      1.153470    -10.235458     -6.303718
    97     11.593492      6.801788     -9.711193
    98     12.075203      6.028281     -8.048049
    99     10.017111      7.710608     -9.203724
   100     10.665338      6.579962     -1.163448
   101     11.583430      5.313821     -2.154745
   102     12.101445      7.377357     -0.216211
   103      7.324960     10.650803     -9.401877
   104      5.816859     11.008490    -10.396782
   105      7.077206     11.089669     -7.570810
   106     -1.216574     -8.984304      0.642821
   107      0.488339     -8.503337      1.394094
   108     -1.370350     -7.787739     -0.916364
   109      4.025568     -5.047502     -8.837678
   110      4.828133     -4.886628    -10.471698
   111      2.302862     -4.242481     -8.985776
   112     11.150941     -7.186536     -3.038288
   113     12.509993     -6.614270     -1.816518
   114     12.093263     -7.524659     -4.566355
   115      0.442485      7.730386     -9.959180
   116      1.360678      9.046716    -10.884892
   117     -0.936898      7.123325    -10.949927
   118     -4.312157      6.288419      0.518773
   119     -4.098635      5.107283      1.966113
   120     -6.025838      7.138399      0.960620
   121     -6.667661    -11.742108     -4.028989
   122     -6.658165    -13.329675     -5.069115
   123     -4.742746    -11.535754     -4.001263
   124      6.533343     11.362141     -4.319224
   125      6.191610      9.489940     -3.888973
   126      4.941774     12.391974     -4.408308
   127     -4.923776      5.305969     -4.617799
   128     -4.514983      5.679245     -2.834774
   129     -3.585708      4.171225     -5.173594
   130      3.178595      7.359916      2.636077
   131      1.909782      8.433874      1.617394
   132      4.281052      8.363040      3.800863
   133      6.097632     -3.590139     10.360552
   134      7.491863     -4.597239      9.550982
   135      7.096592     -2.023764     10.862244
   136     11.211023    -11.137150      2.867771
   137     12.100763    -12.318397      1.604126
   138     10.094424    -10.132540      1.790508
   139      1.092146      5.267547      7.169834
   140      1.955948      6.223025      5.794943
   141      2.493584      4.651941      8.252334
   142    -11.183390     -0.548846     -8.074936
   143    -11.972989     -1.345974     -6.579905
   144    -10.196847     -1.976589     -8.878986
   145      5.768404      6.839285     -2.113634
   146      4.766071      7.291350     -0.582487
   147      7.519925      6.891230     -1.541839
   148     -6.678498      8.956943     -8.489126
   149     -5.614499      7.555089     -8.238280
   150     -8.344428      8.428668     -9.221338
   151     -0.286919      9.692347     -0.187293
   152     -1.730071      8.637539      0.234978
   153     -0.850176     11.467516      0.229360
   154     -5.319536     -4.930524     -7.651473
   155     -5.472779     -3.843289     -9.263579
   156     -6.638646     -6.102251     -7.717636
   157      9.918640     -6.216086      9.005325
   158     11.318643     -5.185512     10.037420
   159     10.790480     -6.709775      7.340369
   160      3.011653     -7.546086      3.097153
   161      3.322265     -5.972234      4.061904
   162      4.615227     -7.919770      2.151317
   163     -2.194769      9.472109      7.760281
   164     -1.188473      8.001622      8.147318
   165     -0.953441     10.814028      7.528847
   166     -3.676523      5.156877     11.613663
   167     -3.162872      3.487886     11.276875
   168     -4.800912      5.531410     10.147079
   169     -6.507287     -6.536767      8.870577
   170     -7.666080     -7.562453      7.715733
   171     -5.619256     -7.749943      9.940827
   172     -9.396259     -3.175226     11.162571
   173     -8.256297     -4.480488     10.500947
   174     -8.996330     -1.710854      9.975545
   175     -9.324980     -8.616354     -7.506079
   176     -8.708646    -10.118531     -6.583919
   177    -10.065923     -9.207252     -9.221903
 
  MM charges 
  ---------- 
     1     -0.674440
     2      0.337220
     3      0.337220
     4     -0.674440
     5      0.337220
     6      0.337220
     7     -0.674440
     8      0.337220
     9      0.337220
    10     -0.674440
    11      0.337220
    12      0.337220
    13     -0.674440
    14      0.337220
    15      0.337220
    16     -0.674440
    17      0.337220
    18      0.337220
    19     -0.674440
    20      0.337220
    21      0.337220
    22     -0.674440
    23      0.337220
    24      0.337220
    25     -0.674440
    26      0.337220
    27      0.337220
    28     -0.674440
    29      0.337220
    30      0.337220
    31     -0.674440
    32      0.337220
    33      0.337220
    34     -0.674440
    35      0.337220
    36      0.337220
    37     -0.674440
    38      0.337220
    39      0.337220
    40     -0.674440
    41      0.337220
    42      0.337220
    43     -0.674440
    44      0.337220
    45      0.337220
    46     -0.674440
    47      0.337220
    48      0.337220
    49     -0.674440
    50      0.337220
    51      0.337220
    52     -0.674440
    53      0.337220
    54      0.337220
    55     -0.674440
    56      0.337220
    57      0.337220
    58     -0.674440
    59      0.337220
    60      0.337220
    61     -0.674440
    62      0.337220
    63      0.337220
    64     -0.674440
    65      0.337220
    66      0.337220
    67     -0.674440
    68      0.337220
    69      0.337220
    70     -0.674440
    71      0.337220
    72      0.337220
    73     -0.674440
    74      0.337220
    75      0.337220
    76     -0.674440
    77      0.337220
    78      0.337220
    79     -0.674440
    80      0.337220
    81      0.337220
    82     -0.674440
    83      0.337220
    84      0.337220
    85     -0.674440
    86      0.337220
    87      0.337220
    88     -0.674440
    89      0.337220
    90      0.337220
    91     -0.674440
    92      0.337220
    93      0.337220
    94     -0.674440
    95      0.337220
    96      0.337220
    97     -0.674440
    98      0.337220
    99      0.337220
   100     -0.674440
   101      0.337220
   102      0.337220
   103     -0.674440
   104      0.337220
   105      0.337220
   106     -0.674440
   107      0.337220
   108      0.337220
   109     -0.674440
   110      0.337220
   111      0.337220
   112     -0.674440
   113      0.337220
   114      0.337220
   115     -0.674440
   116      0.337220
   117      0.337220
   118     -0.674440
   119      0.337220
   120      0.337220
   121     -0.674440
   122      0.337220
   123      0.337220
   124     -0.674440
   125      0.337220
   126      0.337220
   127     -0.674440
   128      0.337220
   129      0.337220
   130     -0.674440
   131      0.337220
   132      0.337220
   133     -0.674440
   134      0.337220
   135      0.337220
   136     -0.674440
   137      0.337220
   138      0.337220
   139     -0.674440
   140      0.337220
   141      0.337220
   142     -0.674440
   143      0.337220
   144      0.337220
   145     -0.674440
   146      0.337220
   147      0.337220
   148     -0.674440
   149      0.337220
   150      0.337220
   151     -0.674440
   152      0.337220
   153      0.337220
   154     -0.674440
   155      0.337220
   156      0.337220
   157     -0.674440
   158      0.337220
   159      0.337220
   160     -0.674440
   161      0.337220
   162      0.337220
   163     -0.674440
   164      0.337220
   165      0.337220
   166     -0.674440
   167      0.337220
   168      0.337220
   169     -0.674440
   170      0.337220
   171      0.337220
   172     -0.674440
   173      0.337220
   174      0.337220
   175     -0.674440
   176      0.337220
   177      0.337220
 
  MM isotropic polarizabilities in au 
  ----------------------------------- 
     1      5.739350
     2      2.308390
     3      2.308390
     4      5.739350
     5      2.308390
     6      2.308390
     7      5.739350
     8      2.308390
     9      2.308390
    10      5.739350
    11      2.308390
    12      2.308390
    13      5.739350
    14      2.308390
    15      2.308390
    16      5.739350
    17      2.308390
    18      2.308390
    19      5.739350
    20      2.308390
    21      2.308390
    22      5.739350
    23      2.308390
    24      2.308390
    25      5.739350
    26      2.308390
    27      2.308390
    28      5.739350
    29      2.308390
    30      2.308390
    31      5.739350
    32      2.308390
    33      2.308390
    34      5.739350
    35      2.308390
    36      2.308390
    37      5.739350
    38      2.308390
    39      2.308390
    40      5.739350
    41      2.308390
    42      2.308390
    43      5.739350
    44      2.308390
    45      2.308390
    46      5.739350
    47      2.308390
    48      2.308390
    49      5.739350
    50      2.308390
    51      2.308390
    52      5.739350
    53      2.308390
    54      2.308390
    55      5.739350
    56      2.308390
    57      2.308390
    58      5.739350
    59      2.308390
    60      2.308390
    61      5.739350
    62      2.308390
    63      2.308390
    64      5.739350
    65      2.308390
    66      2.308390
    67      5.739350
    68      2.308390
    69      2.308390
    70      5.739350
    71      2.308390
    72      2.308390
    73      5.739350
    74      2.308390
    75      2.308390
    76      5.739350
    77      2.308390
    78      2.308390
    79      5.739350
    80      2.308390
    81      2.308390
    82      5.739350
    83      2.308390
    84      2.308390
    85      5.739350
    86      2.308390
    87      2.308390
    88      5.739350
    89      2.308390
    90      2.308390
    91      5.739350
    92      2.308390
    93      2.308390
    94      5.739350
    95      2.308390
    96      2.308390
    97      5.739350
    98      2.308390
    99      2.308390
   100      5.739350
   101      2.308390
   102      2.308390
   103      5.739350
   104      2.308390
   105      2.308390
   106      5.739350
   107      2.308390
   108      2.308390
   109      5.739350
   110      2.308390
   111      2.308390
   112      5.739350
   113      2.308390
   114      2.308390
   115      5.739350
   116      2.308390
   117      2.308390
   118      5.739350
   119      2.308390
   120      2.308390
   121      5.739350
   122      2.308390
   123      2.308390
   124      5.739350
   125      2.308390
   126      2.308390
   127      5.739350
   128      2.308390
   129      2.308390
   130      5.739350
   131      2.308390
   132      2.308390
   133      5.739350
   134      2.308390
   135      2.308390
   136      5.739350
   137      2.308390
   138      2.308390
   139      5.739350
   140      2.308390
   141      2.308390
   142      5.739350
   143      2.308390
   144      2.308390
   145      5.739350
   146      2.308390
   147      2.308390
   148      5.739350
   149      2.308390
   150      2.308390
   151      5.739350
   152      2.308390
   153      2.308390
   154      5.739350
   155      2.308390
   156      2.308390
   157      5.739350
   158      2.308390
   159      2.308390
   160      5.739350
   161      2.308390
   162      2.308390
   163      5.739350
   164      2.308390
   165      2.308390
   166      5.739350
   167      2.308390
   168      2.308390
   169      5.739350
   170      2.308390
   171      2.308390
   172      5.739350
   173      2.308390
   174      2.308390
   175      5.739350
   176      2.308390
   177      2.308390


     ************************************************************************
     ************************** Output from HERINT **************************
     ************************************************************************



                      Nuclear contribution to dipole moments
                      --------------------------------------

                 au               Debye          C m (/(10**-30)

      x    -42.61051599      -108.30512168      -361.26699917
      y    -22.69041590       -57.67328084      -192.37735742
      z     48.26356555       122.67373953       409.19554930



 Threshold for neglecting two-electron integrals:  1.00D-12
 HERMIT - Number of two-electron integrals written:    23658499 ( 30.8% )
 HERMIT - Megabytes written:                            270.902

  Time used in TWOINT     is       4.75 seconds
  Total CPU  time used in HERMIT:   4.93 seconds
  Total wall time used in HERMIT:   7.74 seconds


                        .----------------------------------.
                        | End of Integral Section (HERMIT) |
                        `----------------------------------'



                   .--------------------------------------------.
                   | Starting in Wave Function Section (SIRIUS) |
                   `--------------------------------------------'

NCCEXCI for singlet:    1
 CCSD_INPUT: core-val requested
 Requested number of virtual orbs per sym
                     1
 Indices of requested virtual orbs
                     1
 CCSD_INPUT: core-val requested
 Requested number of core orbs per sym
                     1
 Indices of requested core orbs
                     1

 *** Output from Huckel module :

     Using EWMO model:          T
     Using EHT  model:          F
     Number of Huckel orbitals each symmetry:   36

 EWMO - Energy Weighted Maximum Overlap - is a Huckel type method,
        which normally is better than Extended Huckel Theory.
 Reference: Linderberg and Ohrn, Propagators in Quantum Chemistry (Wiley, 1973)

 Huckel EWMO eigenvalues for symmetry :  1
          -20.685079     -20.684931     -20.684284     -20.683995     -15.673866
           -1.679903      -1.625535      -1.604905      -1.542422      -1.488749
           -0.809479      -0.799507      -0.787535      -0.776320      -0.735421
           -0.711537      -0.702219      -0.681679      -0.668805      -0.663317
           -0.621079      -0.614692      -0.612931      -0.590539      -0.521875
           -0.259566      -0.242736      -0.234646      -0.220590      -0.186683
           -0.180297      -0.170055      -0.168008      -0.166063      -0.156398
           -0.140155

 **********************************************************************
 *SIRIUS* a direct, restricted step, second order MCSCF program       *
 **********************************************************************

 
     Date and time (Linux)  : Thu Nov 29 08:50:05 2018
     Host name              : n-62-29-10                              

 Title lines from ".mol" input file:
                                                                             
                                                                             

 Print level on unit LUPRI =   2 is   0
 Print level on unit LUW4  =   2 is  11

@    (Integral direct) CC calculation.

@    This is a combination run starting with
@              a restricted, closed shell Hartree-Fock calculation


 Initial molecular orbitals are obtained according to
 ".MOSTART EWMO  " input option

@    QM part is embedded in an environment :

@         Model: QMMM

     Wave function specification
     ============================

     For the specification of the Coupled Cluster: see later.

@    Wave function type        --- CC ---
@    Number of closed shell electrons          50
@    Number of electrons in active shells       0
@    Total charge of the molecule               0

@    Spin multiplicity and 2 M_S                1         0
@    Total number of symmetries                 1 (point group: C1 )
@    Reference state symmetry                   1 (irrep name : A  )

     Orbital specifications
     ======================
@    Abelian symmetry species          All |    1
@                                          |  A  
                                       --- |  ---
@    Occupied SCF orbitals              25 |   25
@    Secondary orbitals                132 |  132
@    Total number of orbitals          157 |  157
@    Number of basis functions         157 |  157

     Optimization information
     ========================
@    Number of configurations                 1
@    Number of orbital rotations           3300
     ------------------------------------------
@    Total number of variables             3301

     Maximum number of Fock   iterations      0
     Maximum number of DIIS   iterations     60
     Maximum number of QC-SCF iterations     60
     Threshold for SCF convergence     1.00D-07


 Changes of defaults for CC:
 ---------------------------


 -Implicit frozen core calculation
 -Excitation energies calculated
 -One-photon absorption strengths will be calculated
 -Oscillator strengths calculated
  
* Read MO coefficients from SIRIUS.RST with label "NEWORB  " and header info: 29Nov18  REORTHO 


 ***********************************************
 ***** DIIS acceleration of SCF iterations *****
 ***********************************************

 C1-DIIS algorithm; max error vectors =    8
 -----------------------------------------------------------------------------

 *** DIIS iteration number    1
 RDSUPM called. NFMAT, ISYMDM(1:NFMAT)                     1
                     1

Calculating AOSUPINT
     (Precalculated two-electron integrals are transformed to P-supermatrix elements.
      Threshold for discarding integrals :  1.00D-12 )
  CPU  time used in FORMSUP    is   3.78 seconds
  WALL time used in FORMSUP    is  23.94 seconds

 ITDIIS, energy, error norm, change in energy, scr.thr., difden:
@ DIIS iter.   1    -359.882856444        3.81837D+00   -3.60D+02  -20    F

 (DIIS_RED) Control Parameters C2DIIS =         F NEVC =    1


 (DIIS_RED) B matrix:

               Column   1
       1      14.57992145
    ==== End of matrix output ====

 DIIS C vector; C2DIIS = F, LAMBDA = -1.46D+01
    1.000000
* Read MO coefficients from SIRIUS.RST with label "NEWORB  " and header info: 29Nov18  DIIS   1
      Virial theorem: -V/T =      1.998602
@      MULPOP N      -0.40; H       0.17; H       0.17; H       0.16; O      -0.64; O      -0.75; O      -0.58; O      -0.72; H       0.33; H       0.33; 
@             H       0.31; H       0.31; H       0.32; H       0.33; H       0.33; H       0.33; 
   1  Level shift: doubly occupied orbital energies shifted by -2.00D-01

 DIIS Fock eigenvalues in symmetry 1
      -20.74111      -20.73220      -20.62923      -20.62580      -15.97814
       -1.56352       -1.55137       -1.49932       -1.49120       -1.44343
       -0.96056       -0.95176       -0.92591       -0.91941       -0.89908
       -0.88700       -0.80034       -0.79239       -0.76644       -0.76139
       -0.75753       -0.74588       -0.71945       -0.71530       -0.68502
        0.00000        0.09566        0.14625        0.17460        0.17872
        0.20082        0.25245        0.25747        0.26516        0.28078
        0.30552        0.32820        0.42410        0.43850        0.51895
        0.52439        0.54838        0.56144        0.57131        0.58174
        0.59113        0.60662        0.63262        0.80429        0.84473
        0.86849        0.94183        0.95098        0.96889        0.97732
        1.02131        1.03010        1.06243        1.07715        1.08498
        1.09890        1.11171        1.17971        1.20053        1.23885
        1.26869        1.31286        1.34418        1.38414        1.39652
        1.41171        1.44267        1.47553        1.51042        1.52588
        1.54435        1.59173        1.59314        1.66046        1.68320
        1.69102        1.71297        1.73771        1.80777        1.83580
        1.85259        1.86041        1.87563        1.92264        1.92961
        2.02775        2.10189        2.15639        2.22766        2.24547
        2.28381        2.31332        2.31859        2.34134        2.39060
        2.43742        2.57218        2.58769        2.60058        2.62870
        2.64925        2.66774        2.71121        2.72406        2.77121
        2.78220        2.79739        2.86047        2.86718        3.01971
        3.29810        3.34984        3.41606        3.41914        3.42655
        3.45603        3.48656        3.51264        3.53213        3.57513
        3.61806        3.62777        3.65488        3.69995        3.93141
        4.00099        4.04567        4.06519        4.19007        4.19019
        4.20843        4.26080        4.36292        4.92144        5.11339
        5.29865        5.32132        5.37081        5.42514        5.68306
        5.73738        5.77511        5.80570        6.01279        6.14492
        6.17419        6.20574       36.79166       51.52143       51.56259
       51.63323       51.66734
 Time used in FCKEIG, thr_jaco:   4.40D-02  6.40D-02  1.66D-04
 CPU and wall times used in FCKEIG, THR_FCKEIG:   4.40D-02  6.40D-02  3.82D-02
 -----------------------------------------------------------------------------

 *** DIIS iteration number    2
 RDSUPM called. NFMAT, ISYMDM(1:NFMAT)                     1
                     1

 ITDIIS, energy, error norm, change in energy, scr.thr., difden:
@ DIIS iter.   2    -360.686121072        9.02761D-01   -8.03D-01  -20    F

 (DIIS_RED) Control Parameters C2DIIS =         F NEVC =    2


 (DIIS_RED) B matrix:

               Column   1     Column   2
       1      14.57992145
       2       1.02393930     0.81497700
    ==== End of matrix output ====

 DIIS C vector; C2DIIS = F, LAMBDA = -8.12D-01
   -0.015656    1.015656
* Read MO coefficients from SIRIUS.RST with label "NEWORB  " and header info: 29Nov18  DIIS   2
      Virial theorem: -V/T =      2.003569
@      MULPOP N      -0.63; H       0.23; H       0.21; H       0.22; O      -0.58; O      -0.68; O      -0.57; O      -0.56; H       0.29; H       0.31; 
@             H       0.33; H       0.29; H       0.31; H       0.29; H       0.27; H       0.27; 
   2  Level shift: doubly occupied orbital energies shifted by -5.00D-02

 DIIS Fock eigenvalues in symmetry 1
      -20.65857      -20.60735      -20.60725      -20.60708      -15.49552
       -1.39325       -1.38607       -1.37427       -1.35476       -1.16440
       -0.76646       -0.75615       -0.72900       -0.72480       -0.67955
       -0.64548       -0.64344       -0.63214       -0.62790       -0.59918
       -0.58953       -0.57642       -0.56138       -0.53921       -0.47233
        0.00000        0.14535        0.17698        0.20200        0.21610
        0.24063        0.27387        0.28074        0.29440        0.30905
        0.32616        0.34967        0.49173        0.49912        0.55352
        0.56633        0.58515        0.59433        0.60986        0.61918
        0.63604        0.65439        0.69179        0.90029        0.93046
        0.94665        0.96685        0.97243        0.98273        0.98706
        1.03305        1.05084        1.09837        1.10622        1.10895
        1.13654        1.14483        1.18972        1.25617        1.33164
        1.33954        1.35587        1.36787        1.40764        1.42824
        1.45697        1.50899        1.54733        1.55201        1.57530
        1.59784        1.62581        1.62948        1.71270        1.74207
        1.75392        1.79009        1.81238        1.85992        1.90420
        1.92735        1.94133        1.95366        1.98381        1.99424
        2.14229        2.21205        2.22942        2.26488        2.28590
        2.32727        2.38657        2.39226        2.40214        2.44985
        2.53589        2.63499        2.65360        2.66799        2.69486
        2.71686        2.74173        2.78198        2.80728        2.83643
        2.86283        2.88181        3.00442        3.01253        3.16195
        3.38788        3.45351        3.46938        3.47118        3.47572
        3.49776        3.50312        3.53735        3.54819        3.57078
        3.60071        3.67245        3.69376        3.70105        3.97242
        4.03782        4.03963        4.04357        4.16895        4.22603
        4.24621        4.25532        4.56274        5.13624        5.29526
        5.30746        5.31164        5.33601        5.41552        5.61090
        5.72977        5.75247        5.82777        6.05335        6.09054
        6.18340        6.21140       37.11876       51.45820       51.50213
       51.53997       51.54524
 Time used in FCKEIG, thr_jaco:   3.30D-02  4.00D-02  3.93D-05
 CPU and wall times used in FCKEIG, THR_FCKEIG:   3.30D-02  4.00D-02  9.03D-03
 -----------------------------------------------------------------------------

 *** DIIS iteration number    3
 RDSUPM called. NFMAT, ISYMDM(1:NFMAT)                     1
                     1

 ITDIIS, energy, error norm, change in energy, scr.thr., difden:
@ DIIS iter.   3    -360.744995185        3.12359D-01   -5.89D-02  -20    F

 (DIIS_RED) Control Parameters C2DIIS =         F NEVC =    3


 (DIIS_RED) B matrix:

               Column   1     Column   2     Column   3
       1      14.57992145
       2       1.02393930     0.81497700
       3       0.55738719     0.08394362     0.09756844
    ==== End of matrix output ====

 DIIS C vector; C2DIIS = F, LAMBDA = -8.08D-02
   -0.035358    0.041097    0.994261
* Read MO coefficients from SIRIUS.RST with label "NEWORB  " and header info: 29Nov18  DIIS   3
      Virial theorem: -V/T =      2.001865
@      MULPOP N      -0.56; H       0.21; H       0.18; H       0.19; O      -0.62; O      -0.76; O      -0.62; O      -0.60; H       0.30; H       0.33; 
@             H       0.39; H       0.32; H       0.34; H       0.31; H       0.29; H       0.29; 
   3  Level shift: doubly occupied orbital energies shifted by -2.50D-02

 DIIS Fock eigenvalues in symmetry 1
      -20.56279      -20.56079      -20.53557      -20.50825      -15.60195
       -1.36054       -1.33974       -1.32819       -1.30500       -1.17531
       -0.73178       -0.70519       -0.68955       -0.67989       -0.67836
       -0.63977       -0.59370       -0.59142       -0.58639       -0.54819
       -0.53371       -0.52362       -0.51550       -0.48140       -0.47350
        0.00000        0.14727        0.18026        0.20673        0.21769
        0.24142        0.27814        0.28375        0.29556        0.31054
        0.33209        0.35314        0.48866        0.49872        0.56578
        0.57566        0.59266        0.60657        0.61829        0.62608
        0.64197        0.66310        0.69233        0.89823        0.92130
        0.94216        0.97949        0.98677        0.99722        1.00464
        1.04704        1.06415        1.10227        1.11493        1.11881
        1.14462        1.15687        1.20403        1.25659        1.33033
        1.34733        1.35988        1.37369        1.41526        1.44335
        1.46604        1.51794        1.55613        1.56366        1.58429
        1.61015        1.63812        1.64341        1.72393        1.74943
        1.76385        1.79078        1.81161        1.87311        1.91150
        1.93470        1.94654        1.95330        1.99091        2.00037
        2.13006        2.20667        2.22982        2.28287        2.29579
        2.34452        2.39761        2.40232        2.41697        2.46701
        2.53735        2.64373        2.66530        2.67588        2.70457
        2.72551        2.74748        2.78880        2.81153        2.84276
        2.86273        2.88095        2.98283        2.98644        3.13774
        3.42425        3.43881        3.46795        3.48470        3.48824
        3.50609        3.52252        3.55336        3.56329        3.60392
        3.63971        3.68991        3.70906        3.73285        3.98787
        4.05302        4.07355        4.08252        4.21138        4.24237
        4.26531        4.28911        4.50001        5.08070        5.27366
        5.33418        5.34461        5.35800        5.44449        5.66950
        5.76671        5.77798        5.84662        6.07135        6.14791
        6.22811        6.22837       36.99142       51.52795       51.55544
       51.55995       51.61458
 Time used in FCKEIG, thr_jaco:   3.10D-02  8.40D-02  1.36D-05
 CPU and wall times used in FCKEIG, THR_FCKEIG:   3.10D-02  8.40D-02  3.12D-03
 -----------------------------------------------------------------------------

 *** DIIS iteration number    4
 RDSUPM called. NFMAT, ISYMDM(1:NFMAT)                     1
                     1

 ITDIIS, energy, error norm, change in energy, scr.thr., difden:
@ DIIS iter.   4    -360.752240996        1.15997D-01   -7.25D-03  -20    F

 (DIIS_RED) Control Parameters C2DIIS =         F NEVC =    4


 (DIIS_RED) B matrix:

               Column   1     Column   2     Column   3     Column   4
       1      14.57992145
       2       1.02393930     0.81497700
       3       0.55738719     0.08394362     0.09756844
       4      -0.00409847     0.07293450    -0.00733875     0.01345538
    ==== End of matrix output ====

 DIIS C vector; C2DIIS = F, LAMBDA = -3.80D-03
    0.000005   -0.095986    0.189688    0.906294
* Read MO coefficients from SIRIUS.RST with label "NEWORB  " and header info: 29Nov18  DIIS   4
      Virial theorem: -V/T =      2.002508
@      MULPOP N      -0.63; H       0.23; H       0.20; H       0.21; O      -0.63; O      -0.76; O      -0.63; O      -0.60; H       0.31; H       0.34; 
@             H       0.40; H       0.32; H       0.35; H       0.32; H       0.29; H       0.29; 
   4  Level shift: doubly occupied orbital energies shifted by -1.25D-02

 DIIS Fock eigenvalues in symmetry 1
      -20.55602      -20.55561      -20.55407      -20.51852      -15.54948
       -1.35076       -1.33003       -1.32603       -1.30053       -1.15023
       -0.72163       -0.69999       -0.67886       -0.67315       -0.65516
       -0.61609       -0.58291       -0.58152       -0.57936       -0.53989
       -0.52028       -0.51797       -0.50423       -0.47350       -0.44678
        0.00000        0.14837        0.17983        0.20612        0.21804
        0.24237        0.27779        0.28330        0.29722        0.31207
        0.33221        0.35329        0.49372        0.50276        0.56533
        0.57575        0.59233        0.60520        0.61683        0.62480
        0.64098        0.66181        0.69487        0.90371        0.92846
        0.94901        0.98019        0.98518        0.99582        1.00315
        1.04595        1.06340        1.10300        1.11410        1.11801
        1.14397        1.15532        1.20166        1.25873        1.33580
        1.34691        1.36181        1.37578        1.41458        1.44088
        1.46481        1.51624        1.55424        1.56211        1.58306
        1.60782        1.63649        1.64102        1.72167        1.74911
        1.76249        1.79547        1.81498        1.87105        1.91040
        1.93513        1.94788        1.95801        1.99093        2.00078
        2.13864        2.21346        2.23021        2.27789        2.29377
        2.34088        2.39521        2.40020        2.41582        2.46374
        2.54183        2.64191        2.66440        2.67635        2.70249
        2.72660        2.74984        2.78774        2.81296        2.84396
        2.86522        2.88258        2.99488        2.99902        3.14929
        3.41783        3.45164        3.46708        3.48389        3.50024
        3.50055        3.51935        3.54645        3.56195        3.59688
        3.63045        3.68822        3.70781        3.72632        3.98615
        4.05137        4.06610        4.07292        4.20153        4.24107
        4.26357        4.28188        4.52283        5.10137        5.29260
        5.33283        5.33475        5.34249        5.43782        5.65269
        5.76145        5.76957        5.84365        6.06805        6.13136
        6.21647        6.22531       37.03062       51.52074       51.52409
       51.55470       51.59298
 Time used in FCKEIG, thr_jaco:   2.70D-02  7.00D-02  5.05D-06
 CPU and wall times used in FCKEIG, THR_FCKEIG:   2.70D-02  7.00D-02  1.16D-03
 -----------------------------------------------------------------------------

 *** DIIS iteration number    5
 RDSUPM called. NFMAT, ISYMDM(1:NFMAT)                     1
                     1

 ITDIIS, energy, error norm, change in energy, scr.thr., difden:
@ DIIS iter.   5    -360.753276524        2.33927D-02   -1.04D-03  -20    F

 (DIIS_RED) Control Parameters C2DIIS =         F NEVC =    5


 (DIIS_RED) B matrix:

               Column   1     Column   2     Column   3     Column   4     Column   5
       1      14.57992145
       2       1.02393930     0.81497700
       3       0.55738719     0.08394362     0.09756844
       4      -0.00409847     0.07293450    -0.00733875     0.01345538
       5       0.01306447     0.00600800     0.00475485     0.00059901     0.00054722
    ==== End of matrix output ====

 DIIS C vector; C2DIIS = F, LAMBDA = -2.66D-04
    0.001336    0.010303   -0.082629   -0.134437    1.205427
* Read MO coefficients from SIRIUS.RST with label "NEWORB  " and header info: 29Nov18  DIIS   5
      Virial theorem: -V/T =      2.002191
@      MULPOP N      -0.62; H       0.23; H       0.20; H       0.21; O      -0.64; O      -0.78; O      -0.64; O      -0.61; H       0.31; H       0.34; 
@             H       0.41; H       0.32; H       0.35; H       0.32; H       0.30; H       0.30; 

 DIIS Fock eigenvalues in symmetry 1
      -20.54230      -20.54110      -20.53744      -20.50336      -15.53519
       -1.33803       -1.31743       -1.31133       -1.28700       -1.13741
       -0.70945       -0.68642       -0.66660       -0.66030       -0.64267
       -0.60329       -0.57066       -0.56740       -0.56697       -0.52670
       -0.50664       -0.50241       -0.49087       -0.45927       -0.43331
        0.00000        0.14835        0.17964        0.20610        0.21797
        0.24233        0.27776        0.28311        0.29721        0.31208
        0.33231        0.35336        0.49375        0.50282        0.56549
        0.57584        0.59212        0.60529        0.61689        0.62462
        0.64066        0.66179        0.69495        0.90451        0.92882
        0.94926        0.98099        0.98651        0.99691        1.00422
        1.04689        1.06383        1.10338        1.11393        1.11793
        1.14413        1.15542        1.20204        1.25899        1.33603
        1.34698        1.36198        1.37627        1.41527        1.44128
        1.46437        1.51577        1.55359        1.56229        1.58277
        1.60773        1.63673        1.64113        1.72145        1.74894
        1.76235        1.79541        1.81492        1.87091        1.90986
        1.93484        1.94786        1.95811        1.99063        2.00051
        2.13869        2.21320        2.22975        2.27822        2.29318
        2.34088        2.39478        2.39973        2.41616        2.46370
        2.54200        2.64136        2.66421        2.67613        2.70193
        2.72647        2.74971        2.78707        2.81265        2.84362
        2.86472        2.88226        2.99504        2.99919        3.14953
        3.42007        3.45214        3.46731        3.48384        3.50091
        3.50137        3.51952        3.54835        3.56201        3.59781
        3.63259        3.68811        3.70793        3.72724        3.98605
        4.05138        4.06710        4.07495        4.20380        4.24118
        4.26357        4.28285        4.52361        5.10203        5.29319
        5.33358        5.33668        5.34540        5.43871        5.65608
        5.76239        5.77039        5.84373        6.06793        6.13441
        6.21771        6.22539       37.03238       51.52195       51.52943
       51.55550       51.59548
 Time used in FCKEIG, thr_jaco:   2.30D-02  2.90D-02  1.02D-06
 CPU and wall times used in FCKEIG, THR_FCKEIG:   2.30D-02  3.00D-02  2.34D-04
 -----------------------------------------------------------------------------

 *** DIIS iteration number    6
 RDSUPM called. NFMAT, ISYMDM(1:NFMAT)                     1
                     1

 ITDIIS, energy, error norm, change in energy, scr.thr., difden:
@ DIIS iter.   6    -360.753357380        6.84016D-03   -8.09D-05  -20    F

 (DIIS_RED) Control Parameters C2DIIS =         F NEVC =    6


 (DIIS_RED) B matrix:

               Column   1     Column   2     Column   3     Column   4     Column   5     Column   6
       1      14.57992145
       2       1.02393930     0.81497700
       3       0.55738719     0.08394362     0.09756844
       4      -0.00409847     0.07293450    -0.00733875     0.01345538
       5       0.01306447     0.00600800     0.00475485     0.00059901     0.00054722
       6      -0.00212831    -0.00024882     0.00043264     0.00014662     0.00006642     0.00004679
    ==== End of matrix output ====

 DIIS C vector; C2DIIS = F, LAMBDA = -3.08D-05
    0.000406    0.007114   -0.023480   -0.065038    0.127946    0.953051
* Read MO coefficients from SIRIUS.RST with label "NEWORB  " and header info: 29Nov18  DIIS   6
      Virial theorem: -V/T =      2.002311
@      MULPOP N      -0.62; H       0.23; H       0.20; H       0.21; O      -0.64; O      -0.78; O      -0.64; O      -0.61; H       0.32; H       0.34; 
@             H       0.41; H       0.32; H       0.35; H       0.33; H       0.30; H       0.30; 

 DIIS Fock eigenvalues in symmetry 1
      -20.54258      -20.54130      -20.53971      -20.50391      -15.53806
       -1.33807       -1.31748       -1.31192       -1.28707       -1.13834
       -0.70963       -0.68706       -0.66675       -0.66047       -0.64355
       -0.60409       -0.57093       -0.56804       -0.56721       -0.52688
       -0.50656       -0.50283       -0.49084       -0.45923       -0.43413
        0.00000        0.14823        0.17958        0.20601        0.21785
        0.24216        0.27771        0.28306        0.29706        0.31193
        0.33222        0.35327        0.49343        0.50254        0.56534
        0.57565        0.59204        0.60522        0.61669        0.62447
        0.64052        0.66167        0.69467        0.90397        0.92829
        0.94873        0.98100        0.98620        0.99660        1.00417
        1.04663        1.06372        1.10302        1.11381        1.11785
        1.14390        1.15532        1.20189        1.25860        1.33559
        1.34687        1.36181        1.37587        1.41486        1.44120
        1.46420        1.51561        1.55338        1.56203        1.58262
        1.60762        1.63649        1.64101        1.72133        1.74871
        1.76216        1.79503        1.81455        1.87081        1.90969
        1.93464        1.94758        1.95772        1.99043        2.00025
        2.13805        2.21268        2.22938        2.27781        2.29299
        2.34073        2.39459        2.39955        2.41579        2.46354
        2.54154        2.64120        2.66404        2.67588        2.70176
        2.72620        2.74941        2.78686        2.81237        2.84339
        2.86433        2.88187        2.99422        2.99828        3.14868
        3.41934        3.45102        3.46720        3.48372        3.49987
        3.50123        3.51940        3.54757        3.56189        3.59766
        3.63192        3.68801        3.70783        3.72711        3.98593
        4.05125        4.06691        4.07426        4.20306        4.24107
        4.26346        4.28270        4.52202        5.10053        5.29184
        5.33331        5.33623        5.34451        5.43856        5.65490
        5.76217        5.77018        5.84359        6.06777        6.13325
        6.21743        6.22520       37.02957       51.52162       51.52731
       51.55521       51.59495
 Time used in FCKEIG, thr_jaco:   2.90D-02  4.00D-02  2.98D-07
 CPU and wall times used in FCKEIG, THR_FCKEIG:   2.90D-02  4.00D-02  6.84D-05
 -----------------------------------------------------------------------------

 *** DIIS iteration number    7
 RDSUPM called. NFMAT, ISYMDM(1:NFMAT)                     1
                     1

 ITDIIS, energy, error norm, change in energy, scr.thr., difden:
@ DIIS iter.   7    -360.753362377        2.46777D-03   -5.00D-06  -20    F

 (DIIS_RED) Control Parameters C2DIIS =         F NEVC =    7


 (DIIS_RED) B matrix:

               Column   1     Column   2     Column   3     Column   4     Column   5     Column   6
       1      14.57992145
       2       1.02393930     0.81497700
       3       0.55738719     0.08394362     0.09756844
       4      -0.00409847     0.07293450    -0.00733875     0.01345538
       5       0.01306447     0.00600800     0.00475485     0.00059901     0.00054722
       6      -0.00212831    -0.00024882     0.00043264     0.00014662     0.00006642     0.00004679
       7       0.00081154     0.00003927     0.00006813    -0.00000160     0.00003266    -0.00000100

               Column   7
       7       0.00000609
    ==== End of matrix output ====

 DIIS C vector; C2DIIS = F, LAMBDA = -1.10D-06
   -0.000210   -0.001633    0.011583    0.021987   -0.174012    0.098449    1.043837
* Read MO coefficients from SIRIUS.RST with label "NEWORB  " and header info: 29Nov18  DIIS   7
      Virial theorem: -V/T =      2.002283
@      MULPOP N      -0.62; H       0.23; H       0.20; H       0.21; O      -0.65; O      -0.78; O      -0.64; O      -0.62; H       0.32; H       0.34; 
@             H       0.41; H       0.33; H       0.35; H       0.33; H       0.30; H       0.30; 

 DIIS Fock eigenvalues in symmetry 1
      -20.54255      -20.54134      -20.53892      -20.50371      -15.53744
       -1.33802       -1.31747       -1.31158       -1.28696       -1.13814
       -0.70962       -0.68683       -0.66677       -0.66042       -0.64342
       -0.60397       -0.57100       -0.56782       -0.56724       -0.52685
       -0.50648       -0.50245       -0.49079       -0.45910       -0.43391
        0.00000        0.14826        0.17959        0.20606        0.21787
        0.24218        0.27773        0.28307        0.29708        0.31196
        0.33226        0.35330        0.49349        0.50261        0.56542
        0.57573        0.59207        0.60526        0.61675        0.62450
        0.64051        0.66170        0.69471        0.90414        0.92840
        0.94884        0.98106        0.98637        0.99674        1.00426
        1.04677        1.06375        1.10312        1.11384        1.11786
        1.14396        1.15533        1.20197        1.25874        1.33566
        1.34690        1.36187        1.37599        1.41501        1.44126
        1.46417        1.51561        1.55334        1.56214        1.58264
        1.60763        1.63660        1.64105        1.72133        1.74876
        1.76223        1.79505        1.81463        1.87082        1.90969
        1.93464        1.94762        1.95777        1.99046        2.00030
        2.13814        2.21274        2.22938        2.27796        2.29300
        2.34077        2.39457        2.39954        2.41593        2.46357
        2.54161        2.64120        2.66406        2.67592        2.70174
        2.72626        2.74941        2.78685        2.81243        2.84342
        2.86435        2.88190        2.99436        2.99845        3.14882
        3.41968        3.45126        3.46723        3.48371        3.50011
        3.50130        3.51942        3.54790        3.56193        3.59777
        3.63225        3.68801        3.70787        3.72721        3.98591
        4.05129        4.06702        4.07458        4.20341        4.24111
        4.26347        4.28281        4.52237        5.10082        5.29211
        5.33340        5.33643        5.34488        5.43861        5.65537
        5.76226        5.77026        5.84357        6.06774        6.13371
        6.21756        6.22524       37.03017       51.52164       51.52803
       51.55525       51.59514
 Time used in FCKEIG, thr_jaco:   2.30D-02  4.10D-02  1.07D-07
 CPU and wall times used in FCKEIG, THR_FCKEIG:   2.30D-02  4.10D-02  2.47D-05
 -----------------------------------------------------------------------------

 *** DIIS iteration number    8
 RDSUPM called. NFMAT, ISYMDM(1:NFMAT)                     1
                     1

 ITDIIS, energy, error norm, change in energy, scr.thr., difden:
@ DIIS iter.   8    -360.753362934        3.30687D-04   -5.57D-07  -20    F

 (DIIS_RED) Control Parameters C2DIIS =         F NEVC =    8


 (DIIS_RED) B matrix:

               Column   1     Column   2     Column   3     Column   4     Column   5     Column   6
       1      14.57992145
       2       1.02393930     0.81497700
       3       0.55738719     0.08394362     0.09756844
       4      -0.00409847     0.07293450    -0.00733875     0.01345538
       5       0.01306447     0.00600800     0.00475485     0.00059901     0.00054722
       6      -0.00212831    -0.00024882     0.00043264     0.00014662     0.00006642     0.00004679
       7       0.00081154     0.00003927     0.00006813    -0.00000160     0.00003266    -0.00000100
       8       0.00002531     0.00000229    -0.00000148     0.00000382     0.00000089     0.00000123

               Column   7     Column   8
       7       0.00000609
       8       0.00000019     0.00000011
    ==== End of matrix output ====

 DIIS C vector; C2DIIS = F, LAMBDA = -5.32D-08
    0.000017    0.000105   -0.001280   -0.002235    0.026408   -0.051180   -0.168337    1.196502
* Read MO coefficients from SIRIUS.RST with label "NEWORB  " and header info: 29Nov18  DIIS   8
      Virial theorem: -V/T =      2.002300
@      MULPOP N      -0.62; H       0.23; H       0.20; H       0.21; O      -0.65; O      -0.78; O      -0.64; O      -0.62; H       0.32; H       0.34; 
@             H       0.41; H       0.33; H       0.35; H       0.33; H       0.30; H       0.30; 

 DIIS Fock eigenvalues in symmetry 1
      -20.54253      -20.54131      -20.53897      -20.50370      -15.53747
       -1.33801       -1.31746       -1.31160       -1.28695       -1.13815
       -0.70961       -0.68684       -0.66676       -0.66041       -0.64343
       -0.60399       -0.57101       -0.56784       -0.56725       -0.52686
       -0.50648       -0.50246       -0.49077       -0.45909       -0.43392
        0.00000        0.14825        0.17959        0.20605        0.21787
        0.24217        0.27773        0.28307        0.29707        0.31195
        0.33226        0.35331        0.49348        0.50260        0.56541
        0.57572        0.59207        0.60526        0.61675        0.62450
        0.64051        0.66170        0.69471        0.90413        0.92839
        0.94882        0.98105        0.98636        0.99674        1.00427
        1.04676        1.06374        1.10312        1.11384        1.11787
        1.14395        1.15533        1.20197        1.25873        1.33565
        1.34690        1.36187        1.37598        1.41500        1.44126
        1.46417        1.51561        1.55333        1.56213        1.58264
        1.60764        1.63659        1.64105        1.72133        1.74876
        1.76222        1.79505        1.81462        1.87082        1.90969
        1.93464        1.94761        1.95776        1.99046        2.00029
        2.13813        2.21272        2.22938        2.27795        2.29300
        2.34077        2.39456        2.39954        2.41591        2.46356
        2.54160        2.64120        2.66406        2.67591        2.70174
        2.72625        2.74940        2.78685        2.81242        2.84341
        2.86434        2.88190        2.99435        2.99843        3.14881
        3.41966        3.45124        3.46724        3.48371        3.50009
        3.50131        3.51942        3.54788        3.56193        3.59777
        3.63223        3.68801        3.70787        3.72721        3.98592
        4.05129        4.06702        4.07456        4.20340        4.24112
        4.26348        4.28281        4.52234        5.10081        5.29209
        5.33340        5.33643        5.34487        5.43862        5.65534
        5.76226        5.77026        5.84358        6.06776        6.13368
        6.21756        6.22525       37.03014       51.52167       51.52799
       51.55527       51.59515
 Time used in FCKEIG, thr_jaco:   2.30D-02  6.90D-02  1.44D-08
 CPU and wall times used in FCKEIG, THR_FCKEIG:   2.30D-02  6.90D-02  3.31D-06
 -----------------------------------------------------------------------------

 *** DIIS iteration number    9
 RDSUPM called. NFMAT, ISYMDM(1:NFMAT)                     1
                     1

 ITDIIS, energy, error norm, change in energy, scr.thr., difden:
@ DIIS iter.   9    -360.753362950        7.63874D-05   -1.55D-08  -20    F

 (DIIS_RED) Control Parameters C2DIIS =         F NEVC =    8


 (DIIS_RED) B matrix:

               Column   1     Column   2     Column   3     Column   4     Column   5     Column   6
       1       0.00000001
       2       0.00000240     0.81497700
       3      -0.00000027     0.08394362     0.09756844
       4       0.00000021     0.07293450    -0.00733875     0.01345538
       5       0.00000012     0.00600800     0.00475485     0.00059901     0.00054722
[...]
 | 1 1 1 1 |  24   1  21   1 |     2664        1 |      3547117 |   -0.195967  |
 | 1 1 1 1 |  25   1  21   1 |     2665        1 |      3549781 |    0.072410  |
 | 1 1 1 1 |  31   1  21   1 |     2671        1 |      3565786 |   -0.073686  |
 | 1 1 1 1 | 113   1  21   1 |     2753        1 |      3788129 |    0.111595  |
 | 1 1 1 1 |   1  24  21   1 |     2641       24 |      3486144 |    0.077286  |
 +=============================================================================+


          Norm of Printed Amplitude Vector :             0.8944

          Printed all single excitations greater than 0.379003

          Printed all double excitations greater than 0.065225



+======================================================================+
| contributions of excitation levels to right eigenvectors as computed |
| from the (RE|RE) self overlap                                        |
+----------------------------------------------------------------------+
| sym | multi | state |    E / eV  | % singles | % doubles | % triples |
+======================================================================+
|    1|   1   |   1   |  406.70063 |  88.2222  |  11.7778  |   0.0000  |
+======================================================================+





+======================================================================+
| contributions of excitation levels to excited states as computed     |
| from the (LE|RE) overlap                                             |
+----------------------------------------------------------------------+
| sym | multi | state |    E / eV  | % singles | % doubles | % triples |
+======================================================================+
|    1|   1   |   1   |  406.70063 |  78.9237  |  21.0763  |   0.0000  |
+======================================================================+



 --------------------------
 Symmetry class Nr.:     1
 Multiplicity      :     3
 --------------------------

 Length of Excitation vectors in this class is:   7689528
 No Excitation Energies calculated in this symmetry class
     

   *******************************************************************
   *                                                                 *
   *--------   OUTPUT FROM PROPERTY AND SYMMETRY ANALYSIS   ---------*
   *                                                                 *
   *******************************************************************



                         +-------------------------------+
                         ! REQUESTED PROPERTY OPERATORS: !
                         +-------------------------------+

             Index   Oper. Label  Symmetry  Transp.  PDBS  Atom
             --------------------------------------------------
                1     HAM0            1        1      T      0
                2     XDIPLEN         1        1      F      0
                3     YDIPLEN         1        1      F      0
                4     ZDIPLEN         1        1      F      0
             --------------------------------------------------




                         +-------------------------------+
                         ! REQUESTED EXPECTATION VALUES: !
                         +-------------------------------+

                       Index   Oper. Label  Symmetry
                       -----------------------------
                       -----------------------------




                       +------------------------------------+
                       ! REQUESTED EFFECTIVE FOCK MATRICES: !
                       +------------------------------------+

                       Index   Oper. Label  Symmetry
                       -----------------------------
                       -----------------------------




                        +----------------------------------+
                        ! REQUESTED FIRST ORDER M-VECTORS: !
                        +----------------------------------+

               Index   State Symmetry  Frequency
               --------------------------------------------------
                  1             1    1     1.494597D+01
               --------------------------------------------------


      

    *******************************************************************
    *          SOLVING COUPLED CLUSTER RESPONSE EQUATIONS             *
    *******************************************************************



 
 +======================================================================+
 !                     RHS & ETA VECTORS TO COMPUTE:                    !
 +======================================================================+
 | TYPE | # VEC. |  NEEDED FOR:                                         |
 +----------------------------------------------------------------------+
 +======================================================================+



 +======================================================================+
 !                       LINEAR EQUATIONS TO SOLVE:                     !
 +======================================================================+
 | TYPE | # VEC. |  EQUATION:                                           |
 +----------------------------------------------------------------------+
 |  M1  |    1   |  first-order ground - excited state multipliers      |
 +======================================================================+



 +======================================================================+
 !                F MATRIX TRANSFORMATIONS TO COMPUTE:                  !
 +======================================================================+
 | TYPE | # VEC. |  TRANSFORMED:                                        |
 +----------------------------------------------------------------------+
 |  FR  |    1   |  right eigenvectors (RE)                             |
 +======================================================================+





 Testing R1 list: 

 List nr.  Label     Symmetry      Frequency      T1-norm        T2-norm


 Testing L1 list: 

 List nr.  Label     Symmetry      Frequency      T1-norm        T2-norm
  Solvent 1-order response equations converged in                     0 
  solvent iterations
 SONIAPRI                     0
 CCEQ_STR: CVSEPARATION =  T
 CCEQ_STR: IONIZATION =  T
 CCEQ_STR: REMOVE_CORE =  F
 could not find required file CCM1_1___1
 IOPTSV is    33 ... program continues nevertheless.
 Vector nr.  1 of type M1  and symmetry  1 was not found on file.
     M1  start vector nr.  1 of symmetry  1 generated from gradient
 CCEQ_STR: freeze VALENCE OR VIRT
 CCEQ_SOL: CVSEPARA=     T
 CCEQ_SOL: LIONISAT=     T
 CCEQ_SOL: REMOVE_CORE =  F



 ----- COUPLED CLUSTER RESPONSE SOLVER -----

    Iter  #Vectors  time (min)   residual
    --------------------------------------
 CCRED CVS/IONIS sigma_                     1 
 project out valence occupied or virtual
      1       1         1.23     0.31E+00
 CCRED CVS/IONIS sigma_                     2 
 project out valence occupied or virtual
      2       1         1.24     0.68E-01
 CCRED CVS/IONIS sigma_                     3 
 project out valence occupied or virtual
                    -1  vectors with norm le:  1.000000000000000E-035  REMOVED

 CCORT,**WARNING**  number vectors added is zero after check for vector norm , NBADD :    0

 CCORT, number vectors added is zero , NBADD :    0

 CCORT, number vectors added is zero , NBADD :    0

 CCORT, number vectors added is zero , NBADD :    0

 *** MICROITERATIONS STOPPED DUE TO LINEAR DEPENDENCE BETWEEN ALL NEW TRIAL VECTORS
                     0  trial vectors converged
  LINEAR DEPENDENCE BETWEEN                     1  NON CONVERGED TRIAL VECTORS
      3       1         1.25     0.71E-02

 ***  CCEQ_SOL -MICROITERATIONS STOPPED  
     LINEAR DEPENDENCE BETWEEN ALL NEW TRIAL VECTORS
    --------------------------------------
    converged in  3 iterations
    threshold:    0.10E-08


         Routine          Time (min)
         ---------------------------
         CC_TRDRV            3.73
         CCRED               0.02
         CCNEX               0.04
         ---------------------------
         Total time          3.79


  Total CPU  time used in CCEQ_SOLV:  3 minutes 47 seconds
  Total wall time used in CCEQ_SOLV:  6 minutes 52 seconds


 xxxxxxxxxxxxxxxxxxxxxxxxxxxxxxxxxxxxx

 
 Solution of CC response equations completed.
 

 *******************************************************************
 *                                                                 *
 *--------  OUTPUT FROM COUPLED CLUSTER LINEAR RESPONSE   ---------*
 *                                                                 *
 *--------      CALCULATION OF SECOND ORDER RESIDUES      ---------*
 *                                                                 *
 *******************************************************************



                  +---------------------------------------------+
                  ! CC_SOPR: Calculation of CCSD       Residues !
                  +---------------------------------------------+

 Doing the Mf*CsiA
 Doing the Mf*CsiA
 Doing the Mf*CsiA


 CCSD  Right transition moments in atomic units:
 -----------------------------------------------

  1      14.945973  <XDIPLEN |f> =       0.00000000
  1      14.945973  <YDIPLEN |f> =       0.00000000
  1      14.945973  <ZDIPLEN |f> =       0.00000001


 CCSD  Left  transition moments in atomic units:
 -----------------------------------------------

  1      14.945973  <f|XDIPLEN > =       0.00000000
  1      14.945973  <f|YDIPLEN > =       0.00000000
  1      14.945973  <f|ZDIPLEN > =       0.00000000


 CCSD  linear response residue property in atomic units:
 -------------------------------------------------------

 RES{<<XDIPLEN ,XDIPLEN >>(14.945973)} =     0.00000000 (   0.00000000)
 RES{<<XDIPLEN ,YDIPLEN >>(14.945973)} =     0.00000000 (   0.00000000)
 RES{<<XDIPLEN ,ZDIPLEN >>(14.945973)} =     0.00000000 (   0.00000000)
 RES{<<YDIPLEN ,XDIPLEN >>(14.945973)} =     0.00000000 (   0.00000000)
 RES{<<YDIPLEN ,YDIPLEN >>(14.945973)} =     0.00000000 (   0.00000000)
 RES{<<YDIPLEN ,ZDIPLEN >>(14.945973)} =     0.00000000 (   0.00000000)
 RES{<<ZDIPLEN ,XDIPLEN >>(14.945973)} =     0.00000000 (   0.00000000)
 RES{<<ZDIPLEN ,YDIPLEN >>(14.945973)} =     0.00000000 (   0.00000000)
 RES{<<ZDIPLEN ,ZDIPLEN >>(14.945973)} =     0.00000000 (   0.00000000)


 CCSD  Transition strength matrix for state nr.  1 of symmetry 1
 CCSD  excitation energy:14.94597345

 Gauge: length

               Column   1     Column   2     Column   3
       1     2.281952D-18   1.824917D-18   6.015385D-18
       2     1.824917D-18   1.456396D-18   4.786076D-18
       3     6.015385D-18   4.786076D-18   1.565781D-17
    ==== End of matrix output ====

 Principal values of diagonalized transition strength matrix:

             a.u.               
 1       0.00000000
 2       0.00000000
 3       0.00000000

 Principal axis of diagonalized transition strength matrix:


               Column   1     Column   2     Column   3
       1       1.00000000     0.00000000     0.00000000
       2       0.00000000     1.00000000     0.00000000
       3       0.00000000     0.00000000     1.00000000
    ==== End of matrix output ====


 CCSD   oscillator strength matrix for state nr.  1 of symmetry 1
 CCSD  excitation energy:14.94597345


               Column   1     Column   2     Column   3
       1     2.273733D-17   1.818344D-17   5.993719D-17
       2     1.818344D-17   1.451150D-17   4.768837D-17
       3     5.993719D-17   4.768837D-17   1.560141D-16
    ==== End of matrix output ====

 Principal values of diagonalized oscillator strength matrix:

             a.u.               
 1       0.00000000
 2       0.00000000
 3       0.00000000

 Principal axis of diagonalized oscillator strength matrix:


               Column   1     Column   2     Column   3
       1       1.00000000     0.00000000     0.00000000
       2       0.00000000     1.00000000     0.00000000
       3       0.00000000     0.00000000     1.00000000
    ==== End of matrix output ====

  Total time for      9 linear response residues:       2.90 seconds.
  

 *******************************************************************************
 *******************************************************************************
 *                                                                             *
 *                                                                             *
 *                   SUMMARY OF COUPLED CLUSTER CALCULATION                    *
 *                                                                             *
 *                                                                             *
 *******************************************************************************
 *******************************************************************************

                                                                                
                                                                                
            Total SCF   energy:                  -360.7533629505                
            Total MP2   energy:                  -361.8506379198                
            Total CCSD  energy:                  -361.8911880372                
                                                                                
                                                                                
            Total SCF   energy:                  -360.7533629505                
            Total RSTAR energy:                  -361.8911880372                
            Total CCSD  energy:                  -361.8913222061                
                                                                                
                                                                                
            Total SCF   energy:                  -360.7533629505                
            Total RSTAR energy:                  -361.8913222061                
            Total CCSD  energy:                  -361.8913235605                
                                                                                
                                                                                
            Total SCF   energy:                  -360.7533629505                
            Total RSTAR energy:                  -361.8913235605                
            Total CCSD  energy:                  -361.8913236948                
                                                                                
                                                                                
            Total SCF   energy:                  -360.7533629505                
            Total RSTAR energy:                  -361.8913236948                
            Total CCSD  energy:                  -361.8913237046                
                                                                                
                                                                                
            Total SCF   energy:                  -360.7533629505                
            Total RSTAR energy:                  -361.8913237046                
            Total CCSD  energy:                  -361.8913237053                
                                                                                
                                                                                
            Total SCF   energy:                  -360.7533629505                
            Total RSTAR energy:                  -361.8913237053                
            Total CCSD  energy:                  -361.8913237054                
            CCSD Total  energy:                  -362.2655387916                
            CCSD E(QM/MM)     :                    -0.3697906615                
                                                                                
                                                                                
                                                                                
 +=============================================================================+
 |  sym. | Exci.  |        CCSD       Excitation energies            | ||T1||  |
 |(spin, |        +------------------------------------------------------------+
 | spat) |        |     Hartree    |       eV.      |     cm-1       |    %    |
 +=============================================================================+
 | ^1A   |    1   |    14.9459735  |     406.70063  |   3280261.984  |  88.22  |
 +=============================================================================+
                                                                                
                                                                                
     Total energies in Hartree:                                                 
             1 ^1A       -346.9497746778                                        
                                                                                
                                                                                
 +=============================================================================+
 |  sym. | Exci.  |        CCSD       Length   Gauge Oscillator Strength       |
 |(spin, |        +------------------------------------------------------------+
 | spat) |        | Dipole Strength(a.u.) | Oscillator strength  | Direction   |
 +=============================================================================+
 | ^1A   |    1   |        0.0000000      |      0.0000000       |    -        |
 +=============================================================================+

  1 a.u. =        27.21138 eV.  
  1 a.u. =    219474.62934 cm-1.
  

 *******************************************************************************
 *******************************************************************************
 *                                                                             *
 *                                                                             *
 *                      END OF COUPLED CLUSTER CALCULATION                     *
 *                                                                             *
 *                                                                             *
 *******************************************************************************
 *******************************************************************************


 CPU and wall time for CC :    6011.592    9873.673

 
     Date and time (Linux)  : Thu Nov 29 11:38:44 2018
     Host name              : n-62-29-10                              


                      .-------------------------------------.
                      | End of Coupled Cluster Section (CC) |
                      `-------------------------------------'

  Total CPU  time used in DALTON:   1 hour  42 minutes  0 seconds
  Total wall time used in DALTON:   2 hours 48 minutes 47 seconds

 
     Date and time (Linux)  : Thu Nov 29 11:38:44 2018
     Host name              : n-62-29-10                              
  

 +---------------------------------------------------------+ 
 | List of selected calculated molecular properties (a.u.) | 
 +---------------------------------------------------------+ 

  Properties are read from unit number                      4

 CCSD       properties :
 #  1 1 CCSD/MM  Ground state Energy =    -362.2655387916
 #  2 1 E_QM/MM  Ground state Energy =      -0.3697906615
 #  3 1 Sy: 1 Sp: 1 Exc:  1 E_tot:   -346.9497746778 w:     14.9459734522 E_grs:   -361.8957481301
 #  4 1 Exctot   Excited state Energy =    -346.9497746778
 #  5 1 |<O|XDIPLEN |i(14.945973)>| =     0.00000000
 #  7 1 |<O|YDIPLEN |i(14.945973)>| =     0.00000000
 #  9 1 |<O|ZDIPLEN |i(14.945973)>| =     0.00000000

 THE_END   
