

     ************************************************************************
     *************** Dalton - An Electronic Structure Program ***************
     ************************************************************************

    This is output from DALTON release Dalton2017.alpha (2016)
         ( Web site: http://daltonprogram.org )

   ----------------------------------------------------------------------------

    NOTE:
     
    Dalton is an experimental code for the evaluation of molecular
    properties using (MC)SCF, DFT, CI, and CC wave functions.
    The authors accept no responsibility for the performance of
    the code or for the correctness of the results.
     
    The code (in whole or part) is provided under a licence and
    is not to be reproduced for further distribution without
    the written permission of the authors or their representatives.
     
    See the home page "http://daltonprogram.org" for further information.
     
    If results obtained with this code are published,
    the appropriate citations would be both of:
     
       K. Aidas, C. Angeli, K. L. Bak, V. Bakken, R. Bast,
       L. Boman, O. Christiansen, R. Cimiraglia, S. Coriani,
       P. Dahle, E. K. Dalskov, U. Ekstroem,
       T. Enevoldsen, J. J. Eriksen, P. Ettenhuber, B. Fernandez,
       L. Ferrighi, H. Fliegl, L. Frediani, K. Hald, A. Halkier,
       C. Haettig, H. Heiberg, T. Helgaker, A. C. Hennum,
       H. Hettema, E. Hjertenaes, S. Hoest, I.-M. Hoeyvik,
       M. F. Iozzi, B. Jansik, H. J. Aa. Jensen, D. Jonsson,
       P. Joergensen, J. Kauczor, S. Kirpekar,
       T. Kjaergaard, W. Klopper, S. Knecht, R. Kobayashi, H. Koch,
       J. Kongsted, A. Krapp, K. Kristensen, A. Ligabue,
       O. B. Lutnaes, J. I. Melo, K. V. Mikkelsen, R. H. Myhre,
       C. Neiss, C. B. Nielsen, P. Norman, J. Olsen,
       J. M. H. Olsen, A. Osted, M. J. Packer, F. Pawlowski,
       T. B. Pedersen, P. F. Provasi, S. Reine, Z. Rinkevicius,
       T. A. Ruden, K. Ruud, V. Rybkin, P. Salek, C. C. M. Samson,
       A. Sanchez de Meras, T. Saue, S. P. A. Sauer,
       B. Schimmelpfennig, K. Sneskov, A. H. Steindal,
       K. O. Sylvester-Hvid, P. R. Taylor, A. M. Teale,
       E. I. Tellgren, D. P. Tew, A. J. Thorvaldsen, L. Thoegersen,
       O. Vahtras, M. A. Watson, D. J. D. Wilson, M. Ziolkowski
       and H. Agren,
       "The Dalton quantum chemistry program system",
       WIREs Comput. Mol. Sci. 2014, 4:269–284 (doi: 10.1002/wcms.1172)
     
    and
     
       Dalton, a Molecular Electronic Structure Program,
       Release Dalton2017.alpha (2016), see http://daltonprogram.org
   ----------------------------------------------------------------------------

    Authors in alphabetical order (major contribution(s) in parenthesis):

  Kestutis Aidas,           Vilnius University,           Lithuania   (QM/MM)
  Celestino Angeli,         University of Ferrara,        Italy       (NEVPT2)
  Keld L. Bak,              UNI-C,                        Denmark     (AOSOPPA, non-adiabatic coupling, magnetic properties)
  Vebjoern Bakken,          University of Oslo,           Norway      (DALTON; geometry optimizer, symmetry detection)
  Radovan Bast,             UiT The Arctic U. of Norway,  Norway      (DALTON installation and execution frameworks)
  Pablo Baudin,             University of Valencia,       Spain       (Cholesky excitation energies)
  Linus Boman,              NTNU,                         Norway      (Cholesky decomposition and subsystems)
  Ove Christiansen,         Aarhus University,            Denmark     (CC module)
  Renzo Cimiraglia,         University of Ferrara,        Italy       (NEVPT2)
  Sonia Coriani,            University of Trieste,        Italy       (CC module, MCD in RESPONS)
  Janusz Cukras,            University of Trieste,        Italy       (MChD in RESPONS)
  Paal Dahle,               University of Oslo,           Norway      (Parallelization)
  Erik K. Dalskov,          UNI-C,                        Denmark     (SOPPA)
  Thomas Enevoldsen,        Univ. of Southern Denmark,    Denmark     (SOPPA)
  Janus J. Eriksen,         Aarhus University,            Denmark     (Polarizable embedding model, TDA)
  Rasmus Faber,             University of Copenhagen,     Denmark     (Vib.avg. NMR with SOPPA, parallel AO-SOPPA)
  Berta Fernandez,          U. of Santiago de Compostela, Spain       (doublet spin, ESR in RESPONS)
  Lara Ferrighi,            Aarhus University,            Denmark     (PCM Cubic response)
  Heike Fliegl,             University of Oslo,           Norway      (CCSD(R12))
  Luca Frediani,            UiT The Arctic U. of Norway,  Norway      (PCM)
  Bin Gao,                  UiT The Arctic U. of Norway,  Norway      (Gen1Int library)
  Christof Haettig,         Ruhr-University Bochum,       Germany     (CC module)
  Kasper Hald,              Aarhus University,            Denmark     (CC module)
  Asger Halkier,            Aarhus University,            Denmark     (CC module)
  Frederik Beyer Hansen,    University of Copenhagen,     Denmark     (Parallel AO-SOPPA)
  Erik D. Hedegaard,        Univ. of Southern Denmark,    Denmark     (Polarizable embedding model, QM/MM)
  Hanne Heiberg,            University of Oslo,           Norway      (geometry analysis, selected one-electron integrals)
  Trygve Helgaker,          University of Oslo,           Norway      (DALTON; ABACUS, ERI, DFT modules, London, and much more)
  Alf Christian Hennum,     University of Oslo,           Norway      (Parity violation)
  Hinne Hettema,            University of Auckland,       New Zealand (quadratic response in RESPONS; SIRIUS supersymmetry)
  Eirik Hjertenaes,         NTNU,                         Norway      (Cholesky decomposition)
  Pi A. B. Haase,           University of Copenhagen,     Denmark     (Triplet AO-SOPPA)
  Maria Francesca Iozzi,    University of Oslo,           Norway      (RPA)
  Brano Jansik              Technical Univ. of Ostrava    Czech Rep.  (DFT cubic response)
  Hans Joergen Aa. Jensen,  Univ. of Southern Denmark,    Denmark     (DALTON; SIRIUS, RESPONS, ABACUS modules, London, and much more)
  Dan Jonsson,              UiT The Arctic U. of Norway,  Norway      (cubic response in RESPONS module)
  Poul Joergensen,          Aarhus University,            Denmark     (RESPONS, ABACUS, and CC modules)
  Maciej Kaminski,          University of Warsaw,         Poland      (CPPh in RESPONS)
  Joanna Kauczor,           Linkoeping University,        Sweden      (Complex polarization propagator (CPP) module)
  Sheela Kirpekar,          Univ. of Southern Denmark,    Denmark     (Mass-velocity & Darwin integrals)
  Wim Klopper,              KIT Karlsruhe,                Germany     (R12 code in CC, SIRIUS, and ABACUS modules)
  Stefan Knecht,            ETH Zurich,                   Switzerland (Parallel CI and MCSCF)
  Rika Kobayashi,           Australian National Univ.,    Australia   (DIIS in CC, London in MCSCF)
  Henrik Koch,              NTNU,                         Norway      (CC module, Cholesky decomposition)
  Jacob Kongsted,           Univ. of Southern Denmark,    Denmark     (Polarizable embedding model, QM/MM)
  Andrea Ligabue,           University of Modena,         Italy       (CTOCD, AOSOPPA)
  Nanna H. List             Univ. of Southern Denmark,    Denmark     (Polarizable embedding model)
  Ola B. Lutnaes,           University of Oslo,           Norway      (DFT Hessian)
  Juan I. Melo,             University of Buenos Aires,   Argentina   (LRESC, Relativistic Effects on NMR Shieldings)
  Kurt V. Mikkelsen,        University of Copenhagen,     Denmark     (MC-SCRF and QM/MM)
  Rolf H. Myhre,            NTNU,                         Norway      (Cholesky, subsystems and ECC2)
  Christian Neiss,          Univ. Erlangen-Nuernberg,     Germany     (CCSD(R12))
  Christian B. Nielsen,     University of Copenhagen,     Denmark     (QM/MM)
  Patrick Norman,           Linkoeping University,        Sweden      (Cubic response and complex frequency response in RESPONS)
  Jeppe Olsen,              Aarhus University,            Denmark     (SIRIUS CI/density modules)
  Jogvan Magnus H. Olsen,   Univ. of Southern Denmark,    Denmark     (Polarizable embedding model, QM/MM)
  Anders Osted,             Copenhagen University,        Denmark     (QM/MM)
  Martin J. Packer,         University of Sheffield,      UK          (SOPPA)
  Filip Pawlowski,          Kazimierz Wielki University,  Poland      (CC3)
  Morten N. Pedersen,       Univ. of Southern Denmark,    Denmark     (Polarizable embedding model)
  Thomas B. Pedersen,       University of Oslo,           Norway      (Cholesky decomposition)
  Patricio F. Provasi,      University of Northeastern,   Argentina   (Analysis of coupling constants in localized orbitals)
  Zilvinas Rinkevicius,     KTH Stockholm,                Sweden      (open-shell DFT, ESR)
  Elias Rudberg,            KTH Stockholm,                Sweden      (DFT grid and basis info)
  Torgeir A. Ruden,         University of Oslo,           Norway      (Numerical derivatives in ABACUS)
  Kenneth Ruud,             UiT The Arctic U. of Norway,  Norway      (DALTON; ABACUS magnetic properties and much more)
  Pawel Salek,              KTH Stockholm,                Sweden      (DALTON; DFT code)
  Claire C. M. Samson       University of Karlsruhe       Germany     (Boys localization, r12 integrals in ERI)
  Alfredo Sanchez de Meras, University of Valencia,       Spain       (CC module, Cholesky decomposition)
  Trond Saue,               Paul Sabatier University,     France      (direct Fock matrix construction)
  Stephan P. A. Sauer,      University of Copenhagen,     Denmark     (SOPPA(CCSD), SOPPA prop., AOSOPPA, vibrational g-factors)
  Bernd Schimmelpfennig,    Forschungszentrum Karlsruhe,  Germany     (AMFI module)
  Kristian Sneskov,         Aarhus University,            Denmark     (Polarizable embedding model, QM/MM)
  Arnfinn H. Steindal,      UiT The Arctic U. of Norway,  Norway      (parallel QM/MM, Polarizable embedding model)
  Casper Steinmann,         Univ. of Southern Denmark,    Denmark     (QFIT, Polarizable embedding model)
  K. O. Sylvester-Hvid,     University of Copenhagen,     Denmark     (MC-SCRF)
  Peter R. Taylor,          VLSCI/Univ. of Melbourne,     Australia   (Symmetry handling ABACUS, integral transformation)
  Andrew M. Teale,          University of Nottingham,     England     (DFT-AC, DFT-D)
  David P. Tew,             University of Bristol,        England     (CCSD(R12))
  Olav Vahtras,             KTH Stockholm,                Sweden      (triplet response, spin-orbit, ESR, TDDFT, open-shell DFT)
  David J. Wilson,          La Trobe University,          Australia   (DFT Hessian and DFT magnetizabilities)
  Hans Agren,               KTH Stockholm,                Sweden      (SIRIUS module, RESPONS, MC-SCRF solvation model)
 --------------------------------------------------------------------------------

     Date and time (Linux)  : Mon Dec  3 17:54:11 2018
     Host name              : n-62-29-7                               

 * Work memory size             :  1280000000 =  9.537 gigabytes.

 * Directories for basis set searches:
   1) /zhome/d7/7/119775/My_Codes/dalton-private/build2016/basis/diffs
   2) /zhome/37/3/129401/NH3NH4/CCSD/AIMD_SAMPLING/nh3_4h2o_nd
   3) /zhome/9a/4/124800/source/dalton/build-mlcc/basis


Compilation information
-----------------------

 Who compiled             | rfaber
 Host                     | hpclogin1
 System                   | Linux-2.6.32-696.1.1.el6.x86_64
 CMake generator          | Unix Makefiles
 Processor                | x86_64
 64-bit integers          | ON
 MPI                      | OFF
 Fortran compiler         | /opt/intel/2016update2/compilers_and_libraries_201
                          | 6.2.181/linux/bin/intel64/ifort
 Fortran compiler version | ifort (IFORT) 16.0.2 20160204
 C compiler               | /opt/intel/2016update2/compilers_and_libraries_201
                          | 6.2.181/linux/bin/intel64/icc
 C compiler version       | icc (ICC) 16.0.2 20160204
 C++ compiler             | /opt/intel/2016update2/compilers_and_libraries_201
                          | 6.2.181/linux/bin/intel64/icpc
 C++ compiler version     | icpc (ICC) 16.0.2 20160204
 Static linking           | OFF
 Last Git revision        | bb4d1599ca5680a9f3980451fc8bbefdba436d59
 Git branch               | mlcc
 Configuration time       | 2017-06-13 16:11:03.928841


   Content of the .dal input file
 ----------------------------------

**DALTON
.RUN WAVE FUNCTIONS
*QMMM
.QMMM
**INTEGRALS
.DIPLEN
**WAVE FUNCTIONS
.CC
*PRINT
!To check the origin of excit
.PRINTL
   0 11
*SCF INP
.THRESH
1.0D-7
*CC INP
.CCSD
.THRLEQ
 1.0D-9
.THRENR
 1.0D-10
.FROIMP
4
0
.PRINT
 1
.MAX IT
 1200
.MAXRED
 1200
.MXLRV
1199
*CCSLV
.CCMM
.MXSLIT
200
.MXINIT
4 5
*CCEXCI
.NCCEXC
 1
.IONISATION
1
1
.CVSEPARA
1
1
*CCLRSD
.DIPOLE
**END OF DALTON INPUT


   Content of the .mol file
 ----------------------------

ATOMBASIS


Atomtypes=5 Charge=0 Nosymm Angstrom
   7.00000    1    Basis=6-311G**
N          0.000000        0.000000        0.000000
   1.00000    3    Basis=6-311G**
H          0.482492        0.487304        0.798772
H         -0.878430       -0.435245        0.381402
H          0.654499       -0.741495       -0.247164
   8.00000    4    Basis=6-311G**
O         -2.806199       -0.940521       -0.058955
O          2.205261       -2.724279       -0.851200
O         -0.987821        1.238745       -2.324273
O         -0.398500        2.141423        2.929055
   1.00000    8    Basis=6-311G**
H         -3.735148       -0.752658        0.092539
H         -2.698471       -0.339135       -0.855785
H          2.553504       -1.936333       -0.457320
H          2.976675       -3.370492       -0.881827
H         -0.339997        1.066577       -3.079680
H         -0.461708        0.932739       -1.495756
H         -0.298292        2.080754        3.975973
H          0.416886        2.489454        2.528814
   0.00000    1    Basis=diffs
X          0.000000        0.000000        0.000000


       *******************************************************************
       *********** Output from DALTON general input processing ***********
       *******************************************************************

 --------------------------------------------------------------------------------
   Overall default print level:    0
   Print level for DALTON.STAT:    1

    HERMIT 1- and 2-electron integral sections will be executed
    "Old" integral transformation used (limited to max 255 basis functions)
    Wave function sections will be executed (SIRIUS module)
 --------------------------------------------------------------------------------


 Changes of defaults for *QMMM  :
 --------------------------------

 +------------------+
 |  WORD: | CHANGE: |
 +------------------+
 |   QMMM |       T |
 +------------------+
 


   ****************************************************************************
   *************** Output of molecule and basis set information ***************
   ****************************************************************************


    The two title cards from your ".mol" input:
    ------------------------------------------------------------------------
 1:                                                                         
 2:                                                                         
    ------------------------------------------------------------------------

  Coordinates are entered in Angstrom and converted to atomic units.
          - Conversion factor : 1 bohr = 0.52917721 A

  Atomic type no.    1
  --------------------
  Nuclear charge:   7.00000
  Number of symmetry independent centers:    1
  Number of basis sets to read;    2
  The basis set is "6-311G**" from the basis set library.
  Basis set file used for this atomic type with Z =   7 :
     "/zhome/9a/4/124800/source/dalton/build-mlcc/basis/6-311G**"

  Info about the basis set file: your basis has no documentation.
  Basis set: 6-311G**                                                                        

  Atomic type no.    2
  --------------------
  Nuclear charge:   1.00000
  Number of symmetry independent centers:    3
  Number of basis sets to read;    2
  The basis set is "6-311G**" from the basis set library.
  Basis set file used for this atomic type with Z =   1 :
     "/zhome/9a/4/124800/source/dalton/build-mlcc/basis/6-311G**"

  Info about the basis set file: your basis has no documentation.
  Basis set: 6-311G**                                                                        

  Atomic type no.    3
  --------------------
  Nuclear charge:   8.00000
  Number of symmetry independent centers:    4
  Number of basis sets to read;    2
  The basis set is "6-311G**" from the basis set library.
  Basis set file used for this atomic type with Z =   8 :
     "/zhome/9a/4/124800/source/dalton/build-mlcc/basis/6-311G**"

  Info about the basis set file: your basis has no documentation.
  Basis set: 6-311G**                                                                        

  Atomic type no.    4
  --------------------
  Nuclear charge:   1.00000
  Number of symmetry independent centers:    8
  Number of basis sets to read;    2
  The basis set is "6-311G**" from the basis set library.
  Basis set file used for this atomic type with Z =   1 :
     "/zhome/9a/4/124800/source/dalton/build-mlcc/basis/6-311G**"

  Info about the basis set file: your basis has no documentation.
  Basis set: 6-311G**                                                                        

  Atomic type no.    5
  --------------------
  Nuclear charge:   0.00000
  Number of symmetry independent centers:    1
  Number of basis sets to read;    2
  The basis set is "diffs" from the basis set library.
  Basis set file used for this atomic type with Z =   0 :
     "/zhome/9a/4/124800/source/dalton/build-mlcc/basis/diffs"

  Info about the basis set file: your basis has no documentation.
  Basis set: diffs                                                                           


                         SYMGRP: Point group information
                         -------------------------------

@    Point group: C1 


                                 Isotopic Masses
                                 ---------------

                           N          14.003074
                           H           1.007825
                           H           1.007825
                           H           1.007825
                           O          15.994915
                           O          15.994915
                           O          15.994915
                           O          15.994915
                           H           1.007825
                           H           1.007825
                           H           1.007825
                           H           1.007825
                           H           1.007825
                           H           1.007825
                           H           1.007825
                           H           1.007825

                       Total mass:    89.068809 amu
                       Natural abundance:  98.514 %

 Center-of-mass coordinates (a.u.):   -0.702783   -0.107679   -0.087380


  Atoms and basis sets
  --------------------

  Number of atom types :    5
  Total number of atoms:   17

  label    atoms   charge   prim   cont     basis
  ----------------------------------------------------------------------
  N           1    7.0000    31    18      [11s5p1d|4s3p1d]                                   
  H           3    1.0000     8     6      [5s1p|3s1p]                                        
  O           4    8.0000    31    18      [11s5p1d|4s3p1d]                                   
  H           8    1.0000     8     6      [5s1p|3s1p]                                        
  X           1    0.0000     1     1      [1s|1s]                                            
  ----------------------------------------------------------------------
  total:     17   50.0000   244   157
  ----------------------------------------------------------------------
  Spherical harmonic basis used.

  Threshold for neglecting AO integrals:  1.00D-12


  Cartesian Coordinates (a.u.)
  ----------------------------

  Total number of coordinates:   51
  N       :     1  x   0.0000000000    2  y   0.0000000000    3  z   0.0000000000
  H       :     4  x   0.9117777375    5  y   0.9208710996    6  z   1.5094603163
  H       :     7  x  -1.6599921200    8  y  -0.8224938473    9  z   0.7207453235
  H       :    10  x   1.2368238591   11  y  -1.4012224731   12  z  -0.4670722680
  O       :    13  x  -5.3029475622   14  y  -1.7773271048   15  z  -0.1114088037
  O       :    16  x   4.1673393241   17  y  -5.1481411981   18  z  -1.6085348776
  O       :    19  x  -1.8667111505   20  y   2.3408887887   21  z  -4.3922394097
  O       :    22  x  -0.7530558608   23  y   4.0467029878   24  z   5.5351117550
  H       :    25  x  -7.0584067563   26  y  -1.4223174858   27  z   0.1748733659
  H       :    28  x  -5.0993711462   29  y  -0.6408722694   30  z  -1.6171992719
  H       :    31  x   4.8254232191   32  y  -3.6591390568   33  z  -0.8642095515
  H       :    34  x   5.6251005131   35  y  -6.3693067865   36  z  -1.6664115196
  H       :    37  x  -0.6425012133   38  y   2.0155384212   39  z  -5.8197517526
  H       :    40  x  -0.8725016697   41  y   1.7626212561   42  z  -2.8265691898
  H       :    43  x  -0.5636901853   44  y   3.9320551935   45  z   7.5135000504
  H       :    46  x   0.7878003653   47  y   4.7043862608   48  z   4.7787658810
  X       :    49  x   0.0000000000   50  y   0.0000000000   51  z   0.0000000000

  Max    interatomic separation is    8.0025 Angstrom (   15.1225 Bohr)
  between atoms   15 and   12, "H     " and "H     ".

  Min HX interatomic separation is    0.9472 Angstrom (    1.7900 Bohr)

  Min YX interatomic separation is    2.8129 Angstrom (    5.3157 Bohr)


  Bond distances (Angstrom):
  --------------------------

                  atom 1     atom 2       distance
                  ------     ------       --------
  bond distance:  H          N            1.052758
  bond distance:  H          N            1.051924
  bond distance:  H          N            1.019448
  bond distance:  H          O            0.959786
  bond distance:  H          O            1.004096
  bond distance:  H          O            0.947245
  bond distance:  H          O            1.006781
  bond distance:  H          O            1.009929
  bond distance:  H          O            1.028044
  bond distance:  H          O            1.053451
  bond distance:  H          O            0.972714


  Bond angles (degrees):
  ----------------------

                  atom 1     atom 2     atom 3         angle
                  ------     ------     ------         -----
  bond angle:     H          N          H            107.406
  bond angle:     H          N          H            103.085
  bond angle:     H          N          H            108.849
  bond angle:     H          O          H             96.423
  bond angle:     H          O          H            105.360
  bond angle:     H          O          H            102.932
  bond angle:     H          O          H            110.474




 Principal moments of inertia (u*A**2) and principal axes
 --------------------------------------------------------

   IA     367.370484         -0.460260    0.690720    0.557733
   IB     531.960617          0.720820   -0.075982    0.688945
   IC     661.420286          0.518246    0.719119   -0.462914


 Rotational constants
 --------------------

               A                   B                   C

           1375.6658            950.0309            764.0815 MHz
            0.045887            0.031690            0.025487 cm-1


@  Nuclear repulsion energy :  174.835635445162 Hartree

  Number of floating/multiple basis set orbitals :    1


                     .---------------------------------------.
                     | Starting in Integral Section (HERMIT) |
                     `---------------------------------------'



 ***************************************************************************************
 ****************** Output from **INTEGRALS input processing (HERMIT) ******************
 ***************************************************************************************



    *************************************************************************
    ****************** Output from HERMIT input processing ******************
    *************************************************************************


 Default print level:        1

 * Nuclear model: Point charge

 Calculation of one- and two-electron Hamiltonian integrals.

 The following one-electron property integrals are calculated as requested:
          - overlap integrals
          - dipole length integrals

 Center of mass  (bohr):     -0.702783422585     -0.107678958260     -0.087380059791
 Operator center (bohr):      0.000000000000      0.000000000000      0.000000000000
 Gauge origin    (bohr):      0.000000000000      0.000000000000      0.000000000000
 Dipole origin   (bohr):      0.000000000000      0.000000000000      0.000000000000
 
  *********************************** 
  QMMM electrostatic potential: 
  Multipole order                                    0
  Isotropic polarization  
  *********************************** 
 
  ---------------- 
  QMMM information 
  ---------------- 
 
  MM coordinates in au 
  -------------------- 
     1      7.823721      6.866091    -10.761590
     2      8.374665      6.164738    -12.421374
     3      6.243249      7.730565    -11.116854
     4     -8.866631     -8.432725      4.594451
     5     -7.491335     -9.474102      5.209833
     6     -9.064343     -7.352365      6.204509
     7     -9.332341     -6.009138      9.479845
     8     -8.435339     -6.937387     10.802117
     9    -11.097470     -6.512510      9.532769
    10      9.432816      5.551284      7.964755
    11     11.175294      6.068160      7.365414
    12      9.184504      3.979374      7.039472
    13     -1.850509     -4.913985     -6.022043
    14     -2.363010     -4.281532     -7.766192
    15     -3.164016     -6.188054     -5.590607
    16      7.934106      4.201619     -6.375968
    17      6.673031      4.716144     -5.254440
    18      7.674501      5.158467     -7.945316
    19     -1.815424    -10.146323    -11.319233
    20     -3.599968     -9.528190    -10.951082
    21     -1.562465    -10.920924    -12.932809
    22      4.200672    -10.312950     10.454256
    23      4.933296     -9.486544     12.047140
    24      3.221050     -8.973383      9.705482
    25    -10.389493      3.046051     -6.764441
    26    -12.229761      3.332252     -6.581060
    27    -10.543814      1.903408     -8.265862
    28     -7.503972     -3.682609     -7.989720
    29     -6.893687     -2.362621     -6.806950
    30     -8.532331     -4.695489     -6.877979
    31     -4.789821     -9.027261     -4.372509
    32     -3.664258    -10.335523     -3.465350
    33     -5.808105     -8.331865     -3.091180
    34     -8.121964      1.784916      9.464463
    35     -7.282661      3.355035     10.112794
    36     -8.872034      2.430413      7.825670
    37    -11.661984     -0.752954     -2.663015
    38    -10.863544      0.243329     -3.800245
    39    -13.407038     -0.038237     -2.600550
    40     11.590066      7.479052      0.639064
    41     11.588715      9.201619      1.456113
    42     12.643883      7.527968     -0.906742
    43      4.483540      5.131848      4.212802
    44      5.350366      4.879494      2.582315
    45      5.230238      3.772846      5.149838
    46     -1.992595     -2.324966    -10.897109
    47     -0.775997     -3.513110    -11.714817
    48     -3.494478     -2.236464    -11.980922
    49     -9.652948      8.880093      8.825792
    50     -8.385866      8.057133      9.992859
    51    -10.905866      9.785361      9.951351
    52     -9.299150      3.725461      4.264150
    53    -10.266703      4.948161      3.367834
    54     -7.514844      4.404691      3.894000
    55      9.102924     -7.042567      9.650221
    56      8.404925     -5.703426     10.649136
    57      8.699042     -8.600042     10.605973
    58     -1.188199    -11.466104      7.067865
    59      0.497259    -12.086751      6.365497
    60     -1.573482     -9.735209      6.373608
    61      8.006751     10.313692      7.068507
    62      8.515246      8.524177      7.137543
    63      7.872278     10.850806      8.749120
    64     -0.710131      5.031545     10.476092
    65      0.786168      6.307129     10.486421
    66     -0.195141      3.643152     11.667084
    67      5.100460     -9.075232     -7.914356
    68      4.345522     -7.468239     -7.027497
    69      6.222980     -9.864903     -6.769779
    70      3.665532     10.179754     -0.191904
    71      2.162992     10.587261     -1.126853
    72      3.606833     11.095884      1.480196
    73      0.529609     -6.258707      9.878568
    74     -0.278856     -7.393608     11.107228
    75     -0.419778     -6.530712      8.230674
    76     -5.941511      6.188477     11.558478
    77     -6.190242      5.672525     13.296722
    78     -3.995561      6.112665     11.292378
    79     -6.217099      0.285543     -5.221480
    80     -7.434319      1.606171     -5.772270
    81     -4.532406      1.092137     -5.037532
    82      3.131928      8.488330    -11.066741
    83      2.216501      8.814208     -9.508529
    84      3.055266     10.140386    -11.831367
    85      5.671656     -1.753887      3.028241
    86      6.545569     -0.621119      4.232512
    87      3.977101     -1.838433      3.920615
    88      0.321571      1.735844     -9.405518
    89     -0.704392      0.327522    -10.044002
    90      2.048408      0.884783     -9.488857
    91     -9.887601    -10.854696     -6.979565
    92    -10.749779     -9.575293     -6.033376
    93     -9.431289    -12.460193     -5.942070
    94      6.569884      5.841283     -0.832876
    95      5.873050      7.533881     -0.750650
    96      8.422717      6.203300     -0.599988
    97      2.939981     -4.880259     -6.368307
    98      0.937865     -5.029808     -6.188961
    99      3.397847     -4.665089     -4.516050
   100      0.830886     11.259361     -7.404966
   101     -0.163416     12.271664     -8.683898
   102      2.329297     12.466068     -6.977460
   103     -4.923840     -3.164770      8.487272
   104     -6.684827     -3.558810      8.799007
   105     -4.916002     -1.546807      7.553679
   106    -10.569471     -0.324700    -10.623396
   107     -9.780181      0.291052    -12.341412
   108     -9.484373     -1.741413    -10.222695
   109     -0.259641     -7.095546      0.493396
   110      1.451604     -6.657794     -0.011930
   111     -0.783131     -8.643250     -0.422904
   112      1.712390     -1.531374      6.486031
   113     -0.019455     -1.949870      5.869145
   114      2.209734     -2.749691      7.851419
   115     -6.453655     -8.020478    -10.677142
   116     -6.316791     -6.260589     -9.801928
   117     -7.265957     -8.904792     -9.216519
   118     -9.353804      7.846647     -4.401125
   119     -9.526589      6.424560     -5.704133
   120     -7.539416      7.884285     -3.849548
   121      8.034800     -8.662561     -1.768578
   122      9.507439     -7.453087     -2.021015
   123      8.462766     -9.476173     -0.241549
   124     -1.254846     11.492574     -2.868453
   125     -1.895958      9.747532     -2.448567
   126     -0.502032     11.525914     -4.629510
   127      7.816567     10.630479     -5.330887
   128      7.435898     11.329507     -3.595682
   129      9.592072     10.234260     -5.293739
   130     -4.345920      6.573032     -2.549547
   131     -3.449986      4.997999     -3.121971
   132     -4.795826      6.371703     -0.827373
   133     10.800690    -10.567895      2.595280
   134     12.224438    -10.016085      3.741042
   135      9.606472    -11.232674      3.848166
   136     -4.951740      5.964875      2.933267
   137     -3.393402      5.549030      3.777595
   138     -5.509177      7.566308      3.810272
   139      5.108274     -0.690740     -8.758682
   140      4.523141     -2.283568     -7.875995
   141      5.702479      0.263080     -7.332251
   142    -10.769986     -1.623781      2.780309
   143     -9.849459      0.057202      3.125492
   144    -11.643175     -1.266886      1.193251
   145      6.769600      0.579093     -1.643009
   146      6.204508      2.311309     -1.728107
   147      6.599149      0.118371      0.119741
   148     10.663451     11.006904    -11.556401
   149     11.788217     11.736925    -10.347934
   150      9.463291      9.847163    -10.538521
   151     -6.636850     -6.953858      0.286687
   152     -5.746281     -5.339376      0.483352
   153     -7.161612     -7.286809      2.078122
   154      8.159656     -2.256787     11.087632
   155      9.668782     -1.219268     11.762818
   156      6.890045     -1.390366     12.283643
   157      8.953640      0.375404      6.279749
   158     10.369802     -0.366023      5.374695
   159      8.582048     -0.581884      7.854373
   160     -1.704115     -6.615228      5.257173
   161     -3.217121     -5.563722      5.981389
   162     -1.865158     -6.566059      3.449844
   163     -6.381225     10.677153      5.615701
   164     -7.549065     10.005981      7.145277
   165     -4.634113     10.894581      6.317392
   166     -3.549752     -0.245880      4.966522
   167     -2.287515      1.138753      4.818785
   168     -4.059028     -0.790316      3.314472
   169      3.388413     11.739285      4.912982
   170      3.809070     13.505808      4.928020
   171      4.868528     10.771467      5.462671
   172      6.373398     -7.229206      4.643327
   173      6.196677     -5.800097      3.462456
   174      7.525710     -6.645558      5.979938
   175    -11.122011     -5.780160     -3.014155
   176     -9.960077     -6.397301     -1.773825
   177    -11.311804     -3.993779     -2.708331
 
  MM charges 
  ---------- 
     1     -0.674440
     2      0.337220
     3      0.337220
     4     -0.674440
     5      0.337220
     6      0.337220
     7     -0.674440
     8      0.337220
     9      0.337220
    10     -0.674440
    11      0.337220
    12      0.337220
    13     -0.674440
    14      0.337220
    15      0.337220
    16     -0.674440
    17      0.337220
    18      0.337220
    19     -0.674440
    20      0.337220
    21      0.337220
    22     -0.674440
    23      0.337220
    24      0.337220
    25     -0.674440
    26      0.337220
    27      0.337220
    28     -0.674440
    29      0.337220
    30      0.337220
    31     -0.674440
    32      0.337220
    33      0.337220
    34     -0.674440
    35      0.337220
    36      0.337220
    37     -0.674440
    38      0.337220
    39      0.337220
    40     -0.674440
    41      0.337220
    42      0.337220
    43     -0.674440
    44      0.337220
    45      0.337220
    46     -0.674440
    47      0.337220
    48      0.337220
    49     -0.674440
    50      0.337220
    51      0.337220
    52     -0.674440
    53      0.337220
    54      0.337220
    55     -0.674440
    56      0.337220
    57      0.337220
    58     -0.674440
    59      0.337220
    60      0.337220
    61     -0.674440
    62      0.337220
    63      0.337220
    64     -0.674440
    65      0.337220
    66      0.337220
    67     -0.674440
    68      0.337220
    69      0.337220
    70     -0.674440
    71      0.337220
    72      0.337220
    73     -0.674440
    74      0.337220
    75      0.337220
    76     -0.674440
    77      0.337220
    78      0.337220
    79     -0.674440
    80      0.337220
    81      0.337220
    82     -0.674440
    83      0.337220
    84      0.337220
    85     -0.674440
    86      0.337220
    87      0.337220
    88     -0.674440
    89      0.337220
    90      0.337220
    91     -0.674440
    92      0.337220
    93      0.337220
    94     -0.674440
    95      0.337220
    96      0.337220
    97     -0.674440
    98      0.337220
    99      0.337220
   100     -0.674440
   101      0.337220
   102      0.337220
   103     -0.674440
   104      0.337220
   105      0.337220
   106     -0.674440
   107      0.337220
   108      0.337220
   109     -0.674440
   110      0.337220
   111      0.337220
   112     -0.674440
   113      0.337220
   114      0.337220
   115     -0.674440
   116      0.337220
   117      0.337220
   118     -0.674440
   119      0.337220
   120      0.337220
   121     -0.674440
   122      0.337220
   123      0.337220
   124     -0.674440
   125      0.337220
   126      0.337220
   127     -0.674440
   128      0.337220
   129      0.337220
   130     -0.674440
   131      0.337220
   132      0.337220
   133     -0.674440
   134      0.337220
   135      0.337220
   136     -0.674440
   137      0.337220
   138      0.337220
   139     -0.674440
   140      0.337220
   141      0.337220
   142     -0.674440
   143      0.337220
   144      0.337220
   145     -0.674440
   146      0.337220
   147      0.337220
   148     -0.674440
   149      0.337220
   150      0.337220
   151     -0.674440
   152      0.337220
   153      0.337220
   154     -0.674440
   155      0.337220
   156      0.337220
   157     -0.674440
   158      0.337220
   159      0.337220
   160     -0.674440
   161      0.337220
   162      0.337220
   163     -0.674440
   164      0.337220
   165      0.337220
   166     -0.674440
   167      0.337220
   168      0.337220
   169     -0.674440
   170      0.337220
   171      0.337220
   172     -0.674440
   173      0.337220
   174      0.337220
   175     -0.674440
   176      0.337220
   177      0.337220
 
  MM isotropic polarizabilities in au 
  ----------------------------------- 
     1      5.739350
     2      2.308390
     3      2.308390
     4      5.739350
     5      2.308390
     6      2.308390
     7      5.739350
     8      2.308390
     9      2.308390
    10      5.739350
    11      2.308390
    12      2.308390
    13      5.739350
    14      2.308390
    15      2.308390
    16      5.739350
    17      2.308390
    18      2.308390
    19      5.739350
    20      2.308390
    21      2.308390
    22      5.739350
    23      2.308390
    24      2.308390
    25      5.739350
    26      2.308390
    27      2.308390
    28      5.739350
    29      2.308390
    30      2.308390
    31      5.739350
    32      2.308390
    33      2.308390
    34      5.739350
    35      2.308390
    36      2.308390
    37      5.739350
    38      2.308390
    39      2.308390
    40      5.739350
    41      2.308390
    42      2.308390
    43      5.739350
    44      2.308390
    45      2.308390
    46      5.739350
    47      2.308390
    48      2.308390
    49      5.739350
    50      2.308390
    51      2.308390
    52      5.739350
    53      2.308390
    54      2.308390
    55      5.739350
    56      2.308390
    57      2.308390
    58      5.739350
    59      2.308390
    60      2.308390
    61      5.739350
    62      2.308390
    63      2.308390
    64      5.739350
    65      2.308390
    66      2.308390
    67      5.739350
    68      2.308390
    69      2.308390
    70      5.739350
    71      2.308390
    72      2.308390
    73      5.739350
    74      2.308390
    75      2.308390
    76      5.739350
    77      2.308390
    78      2.308390
    79      5.739350
    80      2.308390
    81      2.308390
    82      5.739350
    83      2.308390
    84      2.308390
    85      5.739350
    86      2.308390
    87      2.308390
    88      5.739350
    89      2.308390
    90      2.308390
    91      5.739350
    92      2.308390
    93      2.308390
    94      5.739350
    95      2.308390
    96      2.308390
    97      5.739350
    98      2.308390
    99      2.308390
   100      5.739350
   101      2.308390
   102      2.308390
   103      5.739350
   104      2.308390
   105      2.308390
   106      5.739350
   107      2.308390
   108      2.308390
   109      5.739350
   110      2.308390
   111      2.308390
   112      5.739350
   113      2.308390
   114      2.308390
   115      5.739350
   116      2.308390
   117      2.308390
   118      5.739350
   119      2.308390
   120      2.308390
   121      5.739350
   122      2.308390
   123      2.308390
   124      5.739350
   125      2.308390
   126      2.308390
   127      5.739350
   128      2.308390
   129      2.308390
   130      5.739350
   131      2.308390
   132      2.308390
   133      5.739350
   134      2.308390
   135      2.308390
   136      5.739350
   137      2.308390
   138      2.308390
   139      5.739350
   140      2.308390
   141      2.308390
   142      5.739350
   143      2.308390
   144      2.308390
   145      5.739350
   146      2.308390
   147      2.308390
   148      5.739350
   149      2.308390
   150      2.308390
   151      5.739350
   152      2.308390
   153      2.308390
   154      5.739350
   155      2.308390
   156      2.308390
   157      5.739350
   158      2.308390
   159      2.308390
   160      5.739350
   161      2.308390
   162      2.308390
   163      5.739350
   164      2.308390
   165      2.308390
   166      5.739350
   167      2.308390
   168      2.308390
   169      5.739350
   170      2.308390
   171      2.308390
   172      5.739350
   173      2.308390
   174      2.308390
   175      5.739350
   176      2.308390
   177      2.308390


     ************************************************************************
     ************************** Output from HERINT **************************
     ************************************************************************



                      Nuclear contribution to dipole moments
                      --------------------------------------

                 au               Debye          C m (/(10**-30)

      x    -32.55253939       -82.74029681      -275.99192241
      y     -5.28289190       -13.42777098       -44.79022277
      z     -3.18043930        -8.08386986       -26.96488735



 Threshold for neglecting two-electron integrals:  1.00D-12
 HERMIT - Number of two-electron integrals written:    25654742 ( 33.4% )
 HERMIT - Megabytes written:                            293.759

  Time used in TWOINT     is       5.27 seconds
  Total CPU  time used in HERMIT:   5.46 seconds
  Total wall time used in HERMIT:   6.61 seconds


                        .----------------------------------.
                        | End of Integral Section (HERMIT) |
                        `----------------------------------'



                   .--------------------------------------------.
                   | Starting in Wave Function Section (SIRIUS) |
                   `--------------------------------------------'

NCCEXCI for singlet:    1
 CCSD_INPUT: core-val requested
 Requested number of virtual orbs per sym
                     1
 Indices of requested virtual orbs
                     1
 CCSD_INPUT: core-val requested
 Requested number of core orbs per sym
                     1
 Indices of requested core orbs
                     1

 *** Output from Huckel module :

     Using EWMO model:          T
     Using EHT  model:          F
     Number of Huckel orbitals each symmetry:   36

 EWMO - Energy Weighted Maximum Overlap - is a Huckel type method,
        which normally is better than Extended Huckel Theory.
 Reference: Linderberg and Ohrn, Propagators in Quantum Chemistry (Wiley, 1973)

 Huckel EWMO eigenvalues for symmetry :  1
          -20.684695     -20.684681     -20.684201     -20.684062     -15.673306
           -1.701700      -1.604753      -1.578583      -1.571928      -1.459131
           -0.823557      -0.800537      -0.785305      -0.775209      -0.717855
           -0.712091      -0.691449      -0.684263      -0.674493      -0.666049
           -0.616358      -0.614682      -0.609890      -0.596958      -0.518091
           -0.259803      -0.250967      -0.240126      -0.225594      -0.189325
           -0.181363      -0.175734      -0.173501      -0.163400      -0.155304
           -0.146857

 **********************************************************************
 *SIRIUS* a direct, restricted step, second order MCSCF program       *
 **********************************************************************

 
     Date and time (Linux)  : Mon Dec  3 17:54:19 2018
     Host name              : n-62-29-7                               

 Title lines from ".mol" input file:
                                                                             
                                                                             

 Print level on unit LUPRI =   2 is   0
 Print level on unit LUW4  =   2 is  11

@    (Integral direct) CC calculation.

@    This is a combination run starting with
@              a restricted, closed shell Hartree-Fock calculation


 Initial molecular orbitals are obtained according to
 ".MOSTART EWMO  " input option

@    QM part is embedded in an environment :

@         Model: QMMM

     Wave function specification
     ============================

     For the specification of the Coupled Cluster: see later.

@    Wave function type        --- CC ---
@    Number of closed shell electrons          50
@    Number of electrons in active shells       0
@    Total charge of the molecule               0

@    Spin multiplicity and 2 M_S                1         0
@    Total number of symmetries                 1 (point group: C1 )
@    Reference state symmetry                   1 (irrep name : A  )

     Orbital specifications
     ======================
@    Abelian symmetry species          All |    1
@                                          |  A  
                                       --- |  ---
@    Occupied SCF orbitals              25 |   25
@    Secondary orbitals                132 |  132
@    Total number of orbitals          157 |  157
@    Number of basis functions         157 |  157

     Optimization information
     ========================
@    Number of configurations                 1
@    Number of orbital rotations           3300
     ------------------------------------------
@    Total number of variables             3301

     Maximum number of Fock   iterations      0
     Maximum number of DIIS   iterations     60
     Maximum number of QC-SCF iterations     60
     Threshold for SCF convergence     1.00D-07


 Changes of defaults for CC:
 ---------------------------


 -Implicit frozen core calculation
 -Excitation energies calculated
 -One-photon absorption strengths will be calculated
 -Oscillator strengths calculated
  
* Read MO coefficients from SIRIUS.RST with label "NEWORB  " and header info:  3Dec18  REORTHO 


 ***********************************************
 ***** DIIS acceleration of SCF iterations *****
 ***********************************************

 C1-DIIS algorithm; max error vectors =    8
 -----------------------------------------------------------------------------

 *** DIIS iteration number    1
 RDSUPM called. NFMAT, ISYMDM(1:NFMAT)                     1
                     1

Calculating AOSUPINT
     (Precalculated two-electron integrals are transformed to P-supermatrix elements.
      Threshold for discarding integrals :  1.00D-12 )
  CPU  time used in FORMSUP    is   4.25 seconds
  WALL time used in FORMSUP    is  19.11 seconds

 ITDIIS, energy, error norm, change in energy, scr.thr., difden:
@ DIIS iter.   1    -359.920960583        3.74904D+00   -3.60D+02  -20    F

 (DIIS_RED) Control Parameters C2DIIS =         F NEVC =    1


 (DIIS_RED) B matrix:

               Column   1
       1      14.05527556
    ==== End of matrix output ====

 DIIS C vector; C2DIIS = F, LAMBDA = -1.41D+01
    1.000000
* Read MO coefficients from SIRIUS.RST with label "NEWORB  " and header info:  3Dec18  DIIS   1
      Virial theorem: -V/T =      1.998422
@      MULPOP N      -0.36; H       0.16; H       0.16; H       0.17; O      -0.63; O      -0.64; O      -0.80; O      -0.65; H       0.32; H       0.32; 
@             H       0.33; H       0.31; H       0.32; H       0.32; H       0.33; H       0.33; 
   1  Level shift: doubly occupied orbital energies shifted by -2.00D-01

 DIIS Fock eigenvalues in symmetry 1
      -20.74109      -20.72849      -20.72829      -20.56863      -15.98501
       -1.57145       -1.55556       -1.55387       -1.46637       -1.43676
       -0.95964       -0.94429       -0.93811       -0.92489       -0.91733
       -0.86665       -0.81795       -0.81248       -0.80435       -0.77351
       -0.76741       -0.76376       -0.76335       -0.71865       -0.67696
        0.00000        0.08888        0.13124        0.14642        0.18584
        0.21326        0.22635        0.26316        0.27110        0.27669
        0.30781        0.34843        0.40639        0.44297        0.48263
        0.50250        0.53171        0.55366        0.58087        0.58463
        0.58743        0.59845        0.62240        0.81000        0.84940
        0.87556        0.92899        0.93756        0.94443        0.97335
        0.97765        1.01841        1.03945        1.05293        1.08815
        1.11421        1.13326        1.17732        1.23944        1.26603
        1.27080        1.29001        1.29788        1.32265        1.37752
        1.44077        1.45066        1.46829        1.47509        1.47657
        1.54413        1.54553        1.59075        1.60341        1.66096
        1.67090        1.69010        1.70055        1.75718        1.77102
        1.83943        1.85898        1.86441        1.92339        2.00400
        2.03078        2.08746        2.13402        2.13979        2.20727
        2.25400        2.26103        2.31182        2.32076        2.40432
        2.46411        2.51115        2.56868        2.57638        2.61974
        2.64396        2.67768        2.71248        2.77191        2.78539
        2.80744        2.81522        2.83112        2.85220        3.04958
        3.25874        3.32161        3.33887        3.40813        3.43007
        3.46162        3.47922        3.48571        3.49486        3.53574
        3.54782        3.63039        3.63837        3.67403        3.91773
        3.94509        3.98338        4.00370        4.10886        4.20432
        4.21693        4.27008        4.40861        4.91814        4.99791
        5.28823        5.29811        5.32488        5.43726        5.60517
        5.71575        5.77976        5.81563        6.03079        6.03554
        6.11485        6.12464       36.74189       51.50653       51.54991
       51.55165       51.70235
 Time used in FCKEIG, thr_jaco:   4.50D-02  5.80D-02  1.63D-04
 CPU and wall times used in FCKEIG, THR_FCKEIG:   4.50D-02  5.80D-02  3.75D-02
 -----------------------------------------------------------------------------

 *** DIIS iteration number    2
 RDSUPM called. NFMAT, ISYMDM(1:NFMAT)                     1
                     1

 ITDIIS, energy, error norm, change in energy, scr.thr., difden:
@ DIIS iter.   2    -360.703670792        9.19542D-01   -7.83D-01  -20    F

 (DIIS_RED) Control Parameters C2DIIS =         F NEVC =    2


 (DIIS_RED) B matrix:

               Column   1     Column   2
       1      14.05527556
       2       0.94629531     0.84555742
    ==== End of matrix output ====

 DIIS C vector; C2DIIS = F, LAMBDA = -8.45D-01
   -0.007744    1.007744
* Read MO coefficients from SIRIUS.RST with label "NEWORB  " and header info:  3Dec18  DIIS   2
      Virial theorem: -V/T =      2.004562
@      MULPOP N      -0.64; H       0.21; H       0.22; H       0.24; O      -0.53; O      -0.61; O      -0.69; O      -0.63; H       0.26; H       0.29; 
@             H       0.29; H       0.33; H       0.31; H       0.31; H       0.32; H       0.31; 
   2  Level shift: doubly occupied orbital energies shifted by -5.00D-02

 DIIS Fock eigenvalues in symmetry 1
      -20.67366      -20.65631      -20.65322      -20.61614      -15.50707
       -1.41702       -1.39876       -1.38956       -1.37891       -1.16090
       -0.76917       -0.76385       -0.75120       -0.73300       -0.69028
       -0.66181       -0.65711       -0.65349       -0.64716       -0.64140
       -0.60070       -0.59561       -0.58215       -0.58148       -0.47505
        0.00000        0.13230        0.16189        0.18264        0.21681
        0.23145        0.25933        0.28860        0.29316        0.31410
        0.34433        0.36588        0.46571        0.50450        0.51740
        0.53849        0.56335        0.58772        0.61743        0.62499
        0.63004        0.63498        0.66635        0.89685        0.92959
        0.93930        0.94905        0.96042        0.96438        0.97189
        0.99615        1.03534        1.06093        1.06765        1.09600
        1.12382        1.16027        1.19297        1.28667        1.31250
        1.33453        1.34945        1.35591        1.39134        1.41053
        1.46999        1.49613        1.52522        1.52687        1.53393
        1.57368        1.58680        1.62337        1.65556        1.71464
        1.72602        1.73320        1.77576        1.82637        1.83290
        1.90998        1.92162        1.93662        1.99348        2.06886
        2.14101        2.17626        2.18942        2.20088        2.25781
        2.26781        2.32009        2.37732        2.39210        2.46437
        2.55367        2.57839        2.62918        2.63814        2.66116
        2.72285        2.75563        2.77548        2.83567        2.85843
        2.87726        2.93677        2.95827        2.98562        3.17397
        3.35840        3.41222        3.42880        3.43894        3.44612
        3.47349        3.48350        3.49997        3.50712        3.52682
        3.57377        3.62610        3.64826        3.67361        3.93029
        3.95193        3.96589        4.01652        4.13100        4.17572
        4.24409        4.27923        4.58200        5.13021        5.20612
        5.29319        5.29906        5.30622        5.32258        5.60004
        5.66683        5.72645        5.80354        6.02193        6.04242
        6.04272        6.14352       37.06444       51.44696       51.45273
       51.47704       51.51475
 Time used in FCKEIG, thr_jaco:   3.10D-02  4.00D-02  4.00D-05
 CPU and wall times used in FCKEIG, THR_FCKEIG:   3.10D-02  4.00D-02  9.20D-03
 -----------------------------------------------------------------------------

 *** DIIS iteration number    3
 RDSUPM called. NFMAT, ISYMDM(1:NFMAT)                     1
                     1

 ITDIIS, energy, error norm, change in energy, scr.thr., difden:
@ DIIS iter.   3    -360.764338100        3.41262D-01   -6.07D-02  -20    F

 (DIIS_RED) Control Parameters C2DIIS =         F NEVC =    3


 (DIIS_RED) B matrix:

               Column   1     Column   2     Column   3
       1      14.05527556
       2       0.94629531     0.84555742
       3       0.61215275     0.06690984     0.11645987
    ==== End of matrix output ====

 DIIS C vector; C2DIIS = F, LAMBDA = -9.24D-02
   -0.040616    0.078645    0.961970
* Read MO coefficients from SIRIUS.RST with label "NEWORB  " and header info:  3Dec18  DIIS   3
      Virial theorem: -V/T =      2.002349
@      MULPOP N      -0.57; H       0.18; H       0.19; H       0.22; O      -0.58; O      -0.67; O      -0.79; O      -0.68; H       0.28; H       0.32; 
@             H       0.31; H       0.36; H       0.37; H       0.36; H       0.35; H       0.34; 
   3  Level shift: doubly occupied orbital energies shifted by -2.50D-02

 DIIS Fock eigenvalues in symmetry 1
      -20.59180      -20.57866      -20.56733      -20.51945      -15.60985
       -1.37140       -1.35988       -1.35622       -1.31268       -1.17038
       -0.73014       -0.72079       -0.71621       -0.67712       -0.66528
       -0.64939       -0.62046       -0.61405       -0.60654       -0.59408
       -0.55288       -0.54384       -0.53919       -0.50825       -0.47201
        0.00000        0.13558        0.16725        0.18536        0.21906
        0.23674        0.26192        0.29490        0.29706        0.31344
        0.34460        0.37004        0.46605        0.50466        0.52546
        0.54705        0.57248        0.59584        0.62280        0.63272
        0.63681        0.64318        0.66909        0.89535        0.92794
        0.94031        0.96253        0.97079        0.97660        0.99153
        1.00962        1.04802        1.06815        1.07889        1.11239
        1.14094        1.16832        1.20141        1.29754        1.31670
        1.34076        1.34795        1.35922        1.39749        1.41860
        1.48359        1.50570        1.53277        1.54132        1.54251
        1.58787        1.59677        1.63338        1.66702        1.72362
        1.73277        1.74300        1.77949        1.83293        1.83446
        1.91408        1.92771        1.94324        1.99671        2.07526
        2.13005        2.18690        2.18777        2.20821        2.26562
        2.28603        2.33215        2.39481        2.40172        2.47942
        2.55600        2.59036        2.63845        2.64402        2.66985
        2.73034        2.76112        2.78194        2.84084        2.86808
        2.88359        2.92608        2.93452        2.96208        3.15690
        3.37950        3.38822        3.45169        3.45562        3.47205
        3.47972        3.50541        3.52558        3.53571        3.54238
        3.59474        3.67343        3.67804        3.68954        3.95825
        3.98642        3.99905        4.03159        4.15357        4.22209
        4.26110        4.30892        4.52798        5.07638        5.15507
        5.31765        5.32053        5.34626        5.39393        5.62630
        5.73622        5.74862        5.83914        6.06843        6.07253
        6.09934        6.16196       36.94057       51.48367       51.52935
       51.53887       51.58073
 Time used in FCKEIG, thr_jaco:   2.90D-02  5.10D-02  1.49D-05
 CPU and wall times used in FCKEIG, THR_FCKEIG:   2.90D-02  5.10D-02  3.41D-03
 -----------------------------------------------------------------------------

 *** DIIS iteration number    4
 RDSUPM called. NFMAT, ISYMDM(1:NFMAT)                     1
                     1

 ITDIIS, energy, error norm, change in energy, scr.thr., difden:
@ DIIS iter.   4    -360.772478359        1.22971D-01   -8.14D-03  -20    F

 (DIIS_RED) Control Parameters C2DIIS =         F NEVC =    4


 (DIIS_RED) B matrix:

               Column   1     Column   2     Column   3     Column   4
       1      14.05527556
       2       0.94629531     0.84555742
       3       0.61215275     0.06690984     0.11645987
       4      -0.00864160     0.08256780    -0.01049515     0.01512193
    ==== End of matrix output ====

 DIIS C vector; C2DIIS = F, LAMBDA = -3.95D-03
   -0.000067   -0.099384    0.174673    0.924778
* Read MO coefficients from SIRIUS.RST with label "NEWORB  " and header info:  3Dec18  DIIS   4
      Virial theorem: -V/T =      2.003314
@      MULPOP N      -0.64; H       0.20; H       0.21; H       0.24; O      -0.59; O      -0.68; O      -0.77; O      -0.69; H       0.29; H       0.32; 
@             H       0.32; H       0.37; H       0.37; H       0.36; H       0.36; H       0.35; 
   4  Level shift: doubly occupied orbital energies shifted by -1.25D-02

 DIIS Fock eigenvalues in symmetry 1
      -20.58896      -20.58022      -20.56206      -20.54819      -15.56127
       -1.36376       -1.35142       -1.34762       -1.31363       -1.14620
       -0.72098       -0.71019       -0.70697       -0.67339       -0.64686
       -0.62783       -0.60721       -0.60313       -0.59576       -0.59114
       -0.54071       -0.53226       -0.52672       -0.50555       -0.44847
        0.00000        0.13602        0.16678        0.18478        0.21874
        0.23591        0.26242        0.29538        0.29688        0.31492
        0.34552        0.37100        0.47019        0.50904        0.52487
        0.54675        0.57282        0.59422        0.62157        0.63065
        0.63553        0.64156        0.67105        0.90012        0.93355
        0.94490        0.96271        0.97009        0.97657        0.98979
        1.00910        1.04736        1.06803        1.07753        1.11035
        1.13649        1.16939        1.20149        1.29560        1.31715
        1.34159        1.34988        1.36261        1.39874        1.41980
        1.48106        1.50377        1.53034        1.53846        1.53988
        1.58591        1.59499        1.63083        1.66627        1.72210
        1.72999        1.74154        1.78327        1.83299        1.83661
        1.91621        1.92512        1.94436        1.99904        2.07709
        2.13807        2.18538        2.19464        2.20657        2.26239
        2.27911        2.32908        2.39168        2.39831        2.47866
        2.56032        2.58911        2.63636        2.64212        2.66745
        2.73399        2.76271        2.78192        2.83820        2.86749
        2.88347        2.93460        2.94605        2.97383        3.16628
        3.37702        3.40161        3.45171        3.45969        3.46569
        3.47664        3.50260        3.51893        3.52815        3.53990
        3.59213        3.66181        3.67364        3.68719        3.95439
        3.98326        3.98702        4.02875        4.15078        4.21088
        4.25869        4.30510        4.54634        5.09562        5.17380
        5.31380        5.31575        5.33893        5.37212        5.62168
        5.71792        5.74206        5.83265        6.06295        6.06346
        6.08033        6.15750       36.97599       51.47427       51.51556
       51.53185       51.54029
 Time used in FCKEIG, thr_jaco:   2.80D-02  4.40D-02  5.35D-06
 CPU and wall times used in FCKEIG, THR_FCKEIG:   2.80D-02  4.40D-02  1.23D-03
 -----------------------------------------------------------------------------

 *** DIIS iteration number    5
 RDSUPM called. NFMAT, ISYMDM(1:NFMAT)                     1
                     1

 ITDIIS, energy, error norm, change in energy, scr.thr., difden:
@ DIIS iter.   5    -360.773656218        2.36105D-02   -1.18D-03  -20    F

 (DIIS_RED) Control Parameters C2DIIS =         F NEVC =    5


 (DIIS_RED) B matrix:

               Column   1     Column   2     Column   3     Column   4     Column   5
       1      14.05527556
       2       0.94629531     0.84555742
       3       0.61215275     0.06690984     0.11645987
       4      -0.00864160     0.08256780    -0.01049515     0.01512193
       5       0.01239641     0.00645342     0.00484583     0.00077798     0.00055745
    ==== End of matrix output ====

 DIIS C vector; C2DIIS = F, LAMBDA = -2.79D-04
    0.001448    0.010005   -0.074943   -0.149773    1.213263
* Read MO coefficients from SIRIUS.RST with label "NEWORB  " and header info:  3Dec18  DIIS   5
      Virial theorem: -V/T =      2.002932
@      MULPOP N      -0.63; H       0.19; H       0.21; H       0.23; O      -0.60; O      -0.69; O      -0.79; O      -0.71; H       0.29; H       0.33; 
@             H       0.32; H       0.38; H       0.39; H       0.36; H       0.37; H       0.35; 

 DIIS Fock eigenvalues in symmetry 1
      -20.57553      -20.56601      -20.54933      -20.53013      -15.54564
       -1.35055       -1.33861       -1.33514       -1.29925       -1.13299
       -0.70878       -0.69761       -0.69480       -0.66004       -0.63423
       -0.61477       -0.59458       -0.59062       -0.58367       -0.57726
       -0.52699       -0.51839       -0.51335       -0.49046       -0.43479
        0.00000        0.13594        0.16665        0.18458        0.21853
        0.23594        0.26229        0.29535        0.29691        0.31489
        0.34543        0.37123        0.47027        0.50913        0.52460
        0.54675        0.57298        0.59397        0.62114        0.63020
        0.63541        0.64155        0.67113        0.90089        0.93398
        0.94526        0.96324        0.97067        0.97717        0.99088
        1.00986        1.04822        1.06795        1.07737        1.11082
        1.13697        1.16963        1.20177        1.29564        1.31715
        1.34174        1.35005        1.36283        1.39884        1.42024
        1.48136        1.50323        1.52971        1.53774        1.53989
        1.58603        1.59457        1.63088        1.66620        1.72157
        1.72922        1.74144        1.78317        1.83240        1.83660
        1.91629        1.92424        1.94420        1.99900        2.07693
        2.13837        2.18474        2.19481        2.20644        2.26145
        2.27912        2.32855        2.39165        2.39759        2.47889
        2.56052        2.58878        2.63562        2.64140        2.66683
        2.73376        2.76243        2.78143        2.83714        2.86707
        2.88288        2.93498        2.94652        2.97433        3.16671
        3.37734        3.40242        3.45160        3.46118        3.46659
        3.47759        3.50279        3.52022        3.52907        3.53967
        3.59235        3.66354        3.67407        3.68698        3.95494
        3.98347        3.98875        4.02850        4.15099        4.21277
        4.25852        4.30565        4.54782        5.09695        5.17503
        5.31405        5.31643        5.34018        5.37534        5.62211
        5.72062        5.74218        5.83346        6.06330        6.06443
        6.08252        6.15720       36.97906       51.47518       51.51725
       51.53208       51.54573
 Time used in FCKEIG, thr_jaco:   2.40D-02  3.10D-02  1.03D-06
 CPU and wall times used in FCKEIG, THR_FCKEIG:   2.40D-02  3.10D-02  2.36D-04
 -----------------------------------------------------------------------------

 *** DIIS iteration number    6
 RDSUPM called. NFMAT, ISYMDM(1:NFMAT)                     1
                     1

 ITDIIS, energy, error norm, change in energy, scr.thr., difden:
@ DIIS iter.   6    -360.773740065        7.13931D-03   -8.38D-05  -20    F

 (DIIS_RED) Control Parameters C2DIIS =         F NEVC =    6


 (DIIS_RED) B matrix:

               Column   1     Column   2     Column   3     Column   4     Column   5     Column   6
       1      14.05527556
       2       0.94629531     0.84555742
       3       0.61215275     0.06690984     0.11645987
       4      -0.00864160     0.08256780    -0.01049515     0.01512193
       5       0.01239641     0.00645342     0.00484583     0.00077798     0.00055745
       6      -0.00182209    -0.00031228     0.00047905     0.00015283     0.00006793     0.00005097
    ==== End of matrix output ====

 DIIS C vector; C2DIIS = F, LAMBDA = -3.28D-05
    0.000428    0.007627   -0.022688   -0.071900    0.143679    0.942852
* Read MO coefficients from SIRIUS.RST with label "NEWORB  " and header info:  3Dec18  DIIS   6
      Virial theorem: -V/T =      2.003052
@      MULPOP N      -0.63; H       0.19; H       0.21; H       0.23; O      -0.60; O      -0.70; O      -0.80; O      -0.71; H       0.29; H       0.33; 
@             H       0.32; H       0.38; H       0.39; H       0.36; H       0.37; H       0.35; 

 DIIS Fock eigenvalues in symmetry 1
      -20.57569      -20.56645      -20.54928      -20.53227      -15.54882
       -1.35063       -1.33859       -1.33507       -1.29982       -1.13400
       -0.70891       -0.69779       -0.69492       -0.66064       -0.63490
       -0.61557       -0.59507       -0.59081       -0.58381       -0.57792
       -0.52683       -0.51837       -0.51315       -0.49087       -0.43569
        0.00000        0.13584        0.16658        0.18449        0.21843
        0.23584        0.26218        0.29524        0.29682        0.31472
        0.34528        0.37105        0.46998        0.50878        0.52450
        0.54658        0.57283        0.59390        0.62107        0.63010
        0.63522        0.64137        0.67084        0.90035        0.93356
        0.94485        0.96309        0.97045        0.97726        0.99074
        1.00971        1.04795        1.06781        1.07730        1.11061
        1.13663        1.16939        1.20154        1.29562        1.31700
        1.34151        1.34964        1.36246        1.39855        1.41991
        1.48108        1.50308        1.52960        1.53760        1.53970
        1.58579        1.59446        1.63057        1.66601        1.72143
        1.72910        1.74118        1.78285        1.83223        1.83619
        1.91594        1.92409        1.94394        1.99869        2.07668
        2.13772        2.18458        2.19421        2.20619        2.26130
        2.27870        2.32841        2.39147        2.39745        2.47852
        2.56007        2.58859        2.63546        2.64121        2.66662
        2.73347        2.76217        2.78119        2.83693        2.86687
        2.88267        2.93423        2.94557        2.97339        3.16594
        3.37730        3.40129        3.45160        3.46035        3.46616
        3.47685        3.50273        3.51969        3.52868        3.53968
        3.59232        3.66288        3.67391        3.68700        3.95479
        3.98338        3.98807        4.02848        4.15095        4.21201
        4.25853        4.30548        4.54614        5.09531        5.17343
        5.31412        5.31640        5.33991        5.37426        5.62203
        5.71959        5.74210        5.83321        6.06317        6.06400
        6.08160        6.15718       36.97594       51.47502       51.51680
       51.53211       51.54364
 Time used in FCKEIG, thr_jaco:   2.60D-02  3.80D-02  3.11D-07
 CPU and wall times used in FCKEIG, THR_FCKEIG:   2.60D-02  3.80D-02  7.14D-05
 -----------------------------------------------------------------------------

 *** DIIS iteration number    7
 RDSUPM called. NFMAT, ISYMDM(1:NFMAT)                     1
                     1

 ITDIIS, energy, error norm, change in energy, scr.thr., difden:
@ DIIS iter.   7    -360.773745299        2.47351D-03   -5.23D-06  -20    F

 (DIIS_RED) Control Parameters C2DIIS =         F NEVC =    7


 (DIIS_RED) B matrix:

               Column   1     Column   2     Column   3     Column   4     Column   5     Column   6
       1      14.05527556
       2       0.94629531     0.84555742
       3       0.61215275     0.06690984     0.11645987
       4      -0.00864160     0.08256780    -0.01049515     0.01512193
       5       0.01239641     0.00645342     0.00484583     0.00077798     0.00055745
       6      -0.00182209    -0.00031228     0.00047905     0.00015283     0.00006793     0.00005097
       7       0.00069240    -0.00000256     0.00007495    -0.00000302     0.00003315    -0.00000074

               Column   7
       7       0.00000612
    ==== End of matrix output ====

 DIIS C vector; C2DIIS = F, LAMBDA = -1.35D-06
   -0.000215   -0.001468    0.009980    0.022862   -0.167402    0.085828    1.050415
* Read MO coefficients from SIRIUS.RST with label "NEWORB  " and header info:  3Dec18  DIIS   7
      Virial theorem: -V/T =      2.003026
@      MULPOP N      -0.63; H       0.19; H       0.21; H       0.23; O      -0.60; O      -0.70; O      -0.80; O      -0.71; H       0.29; H       0.33; 
@             H       0.32; H       0.38; H       0.39; H       0.36; H       0.37; H       0.35; 

 DIIS Fock eigenvalues in symmetry 1
      -20.57567      -20.56638      -20.54936      -20.53152      -15.54812
       -1.35056       -1.33853       -1.33505       -1.29950       -1.13376
       -0.70890       -0.69776       -0.69491       -0.66041       -0.63481
       -0.61543       -0.59504       -0.59084       -0.58388       -0.57770
       -0.52674       -0.51827       -0.51310       -0.49051       -0.43543
        0.00000        0.13587        0.16660        0.18450        0.21845
        0.23590        0.26220        0.29527        0.29687        0.31475
        0.34531        0.37115        0.47006        0.50887        0.52452
        0.54665        0.57292        0.59392        0.62108        0.63011
        0.63526        0.64142        0.67093        0.90051        0.93367
        0.94494        0.96316        0.97052        0.97731        0.99087
        1.00981        1.04810        1.06784        1.07733        1.11070
        1.13678        1.16944        1.20163        1.29566        1.31706
        1.34157        1.34976        1.36254        1.39861        1.42001
        1.48123        1.50307        1.52959        1.53759        1.53975
        1.58589        1.59446        1.63069        1.66604        1.72143
        1.72908        1.74130        1.78289        1.83223        1.83630
        1.91602        1.92408        1.94398        1.99877        2.07674
        2.13784        2.18456        2.19432        2.20622        2.26128
        2.27883        2.32842        2.39147        2.39744        2.47866
        2.56017        2.58859        2.63544        2.64121        2.66671
        2.73350        2.76218        2.78119        2.83691        2.86687
        2.88276        2.93440        2.94577        2.97359        3.16609
        3.37734        3.40154        3.45160        3.46064        3.46632
        3.47705        3.50278        3.51991        3.52884        3.53968
        3.59236        3.66320        3.67399        3.68701        3.95484
        3.98343        3.98838        4.02848        4.15100        4.21234
        4.25854        4.30555        4.54654        5.09566        5.17378
        5.31411        5.31644        5.34000        5.37471        5.62207
        5.72000        5.74211        5.83328        6.06322        6.06414
        6.08195        6.15716       36.97663       51.47504       51.51688
       51.53204       51.54437
 Time used in FCKEIG, thr_jaco:   2.50D-02  4.40D-02  1.08D-07
 CPU and wall times used in FCKEIG, THR_FCKEIG:   2.50D-02  4.40D-02  2.47D-05
 -----------------------------------------------------------------------------

 *** DIIS iteration number    8
 RDSUPM called. NFMAT, ISYMDM(1:NFMAT)                     1
                     1

 ITDIIS, energy, error norm, change in energy, scr.thr., difden:
@ DIIS iter.   8    -360.773745880        3.69724D-04   -5.81D-07  -20    F

 (DIIS_RED) Control Parameters C2DIIS =         F NEVC =    8


 (DIIS_RED) B matrix:

               Column   1     Column   2     Column   3     Column   4     Column   5     Column   6
       1      14.05527556
       2       0.94629531     0.84555742
       3       0.61215275     0.06690984     0.11645987
       4      -0.00864160     0.08256780    -0.01049515     0.01512193
       5       0.01239641     0.00645342     0.00484583     0.00077798     0.00055745
       6      -0.00182209    -0.00031228     0.00047905     0.00015283     0.00006793     0.00005097
       7       0.00069240    -0.00000256     0.00007495    -0.00000302     0.00003315    -0.00000074
       8       0.00003688     0.00000468    -0.00000381     0.00000472     0.00000107     0.00000140

               Column   7     Column   8
       7       0.00000612
       8       0.00000025     0.00000014
    ==== End of matrix output ====

 DIIS C vector; C2DIIS = F, LAMBDA = -7.59D-08
    0.000006   -0.000010   -0.000569   -0.001175    0.018212   -0.047639   -0.133334    1.164510
* Read MO coefficients from SIRIUS.RST with label "NEWORB  " and header info:  3Dec18  DIIS   8
      Virial theorem: -V/T =      2.003042
@      MULPOP N      -0.63; H       0.19; H       0.21; H       0.23; O      -0.60; O      -0.70; O      -0.80; O      -0.71; H       0.29; H       0.33; 
@             H       0.32; H       0.38; H       0.39; H       0.36; H       0.37; H       0.35; 

 DIIS Fock eigenvalues in symmetry 1
      -20.57565      -20.56634      -20.54932      -20.53157      -15.54815
       -1.35055       -1.33852       -1.33504       -1.29952       -1.13377
       -0.70889       -0.69775       -0.69490       -0.66043       -0.63483
       -0.61544       -0.59506       -0.59086       -0.58388       -0.57772
       -0.52673       -0.51826       -0.51309       -0.49052       -0.43544
        0.00000        0.13587        0.16660        0.18450        0.21845
        0.23590        0.26219        0.29526        0.29686        0.31475
        0.34531        0.37114        0.47005        0.50886        0.52452
        0.54665        0.57291        0.59392        0.62108        0.63011
        0.63526        0.64142        0.67092        0.90050        0.93366
        0.94493        0.96315        0.97052        0.97731        0.99087
        1.00981        1.04809        1.06784        1.07733        1.11070
        1.13677        1.16944        1.20163        1.29567        1.31706
        1.34156        1.34975        1.36253        1.39860        1.42001
        1.48122        1.50307        1.52959        1.53759        1.53974
        1.58588        1.59445        1.63069        1.66603        1.72143
        1.72909        1.74129        1.78288        1.83223        1.83628
        1.91602        1.92408        1.94397        1.99876        2.07673
        2.13783        2.18456        2.19430        2.20621        2.26128
        2.27883        2.32842        2.39147        2.39744        2.47863
        2.56015        2.58859        2.63544        2.64121        2.66670
        2.73348        2.76218        2.78119        2.83691        2.86686
        2.88275        2.93438        2.94576        2.97358        3.16608
        3.37734        3.40152        3.45161        3.46062        3.46631
        3.47704        3.50278        3.51990        3.52883        3.53969
        3.59236        3.66318        3.67399        3.68702        3.95484
        3.98343        3.98836        4.02849        4.15100        4.21232
        4.25855        4.30556        4.54652        5.09564        5.17376
        5.31412        5.31645        5.34001        5.37468        5.62207
        5.71997        5.74212        5.83329        6.06322        6.06414
        6.08193        6.15718       36.97660       51.47506       51.51691
       51.53207       51.54432
 Time used in FCKEIG, thr_jaco:   3.00D-02  4.40D-02  1.61D-08
 CPU and wall times used in FCKEIG, THR_FCKEIG:   3.00D-02  4.40D-02  3.70D-06
 -----------------------------------------------------------------------------

 *** DIIS iteration number    9
 RDSUPM called. NFMAT, ISYMDM(1:NFMAT)                     1
                     1

 ITDIIS, energy, error norm, change in energy, scr.thr., difden:
@ DIIS iter.   9    -360.773745899        9.58669D-05   -1.89D-08  -20    F

 (DIIS_RED) Control Parameters C2DIIS =         F NEVC =    8


 (DIIS_RED) B matrix:

               Column   1     Column   2     Column   3     Column   4     Column   5     Column   6
       1       0.00000001
       2       0.00000190     0.84555742
       3      -0.00000011     0.06690984     0.11645987
       4       0.00000038     0.08256780    -0.01049515     0.01512193
       5       0.00000015     0.00645342     0.00484583     0.00077798     0.00055745
[...]
 | 1 1 1 1 |  24   1  12   1 |     1476        1 |      1088551 |    0.072354  |
 | 1 1 1 1 |  25   1  12   1 |     1477        1 |      1090027 |    0.097566  |
 | 1 1 1 1 |  26   1  12   1 |     1478        1 |      1091504 |    0.094464  |
 | 1 1 1 1 |  25   1  13   1 |     1609        1 |      1293637 |    0.078888  |
 | 1 1 1 1 |   6   1  21   1 |     2646        1 |      3499336 |   -0.078622  |
 | 1 1 1 1 |  12   1  21   1 |     2652        1 |      3515227 |   -0.130096  |
 | 1 1 1 1 |  24   1  21   1 |     2664        1 |      3547117 |   -0.153322  |
 | 1 1 1 1 |  25   1  21   1 |     2665        1 |      3549781 |    0.095554  |
 | 1 1 1 1 |  32   1  21   1 |     2672        1 |      3568457 |    0.077669  |
 | 1 1 1 1 | 113   1  21   1 |     2753        1 |      3788129 |    0.103400  |
 +=============================================================================+


          Norm of Printed Amplitude Vector :             0.8529

          Printed all single excitations greater than 0.377213

          Printed all double excitations greater than 0.065638



+======================================================================+
| contributions of excitation levels to right eigenvectors as computed |
| from the (RE|RE) self overlap                                        |
+----------------------------------------------------------------------+
| sym | multi | state |    E / eV  | % singles | % doubles | % triples |
+======================================================================+
|    1|   1   |   1   |  406.84795 |  88.0274  |  11.9726  |   0.0000  |
+======================================================================+





+======================================================================+
| contributions of excitation levels to excited states as computed     |
| from the (LE|RE) overlap                                             |
+----------------------------------------------------------------------+
| sym | multi | state |    E / eV  | % singles | % doubles | % triples |
+======================================================================+
|    1|   1   |   1   |  406.84795 |  78.5844  |  21.4156  |   0.0000  |
+======================================================================+



 --------------------------
 Symmetry class Nr.:     1
 Multiplicity      :     3
 --------------------------

 Length of Excitation vectors in this class is:   7689528
 No Excitation Energies calculated in this symmetry class
     

   *******************************************************************
   *                                                                 *
   *--------   OUTPUT FROM PROPERTY AND SYMMETRY ANALYSIS   ---------*
   *                                                                 *
   *******************************************************************



                         +-------------------------------+
                         ! REQUESTED PROPERTY OPERATORS: !
                         +-------------------------------+

             Index   Oper. Label  Symmetry  Transp.  PDBS  Atom
             --------------------------------------------------
                1     HAM0            1        1      T      0
                2     XDIPLEN         1        1      F      0
                3     YDIPLEN         1        1      F      0
                4     ZDIPLEN         1        1      F      0
             --------------------------------------------------




                         +-------------------------------+
                         ! REQUESTED EXPECTATION VALUES: !
                         +-------------------------------+

                       Index   Oper. Label  Symmetry
                       -----------------------------
                       -----------------------------




                       +------------------------------------+
                       ! REQUESTED EFFECTIVE FOCK MATRICES: !
                       +------------------------------------+

                       Index   Oper. Label  Symmetry
                       -----------------------------
                       -----------------------------




                        +----------------------------------+
                        ! REQUESTED FIRST ORDER M-VECTORS: !
                        +----------------------------------+

               Index   State Symmetry  Frequency
               --------------------------------------------------
                  1             1    1     1.495139D+01
               --------------------------------------------------


      

    *******************************************************************
    *          SOLVING COUPLED CLUSTER RESPONSE EQUATIONS             *
    *******************************************************************



 
 +======================================================================+
 !                     RHS & ETA VECTORS TO COMPUTE:                    !
 +======================================================================+
 | TYPE | # VEC. |  NEEDED FOR:                                         |
 +----------------------------------------------------------------------+
 +======================================================================+



 +======================================================================+
 !                       LINEAR EQUATIONS TO SOLVE:                     !
 +======================================================================+
 | TYPE | # VEC. |  EQUATION:                                           |
 +----------------------------------------------------------------------+
 |  M1  |    1   |  first-order ground - excited state multipliers      |
 +======================================================================+



 +======================================================================+
 !                F MATRIX TRANSFORMATIONS TO COMPUTE:                  !
 +======================================================================+
 | TYPE | # VEC. |  TRANSFORMED:                                        |
 +----------------------------------------------------------------------+
 |  FR  |    1   |  right eigenvectors (RE)                             |
 +======================================================================+





 Testing R1 list: 

 List nr.  Label     Symmetry      Frequency      T1-norm        T2-norm


 Testing L1 list: 

 List nr.  Label     Symmetry      Frequency      T1-norm        T2-norm
  Solvent 1-order response equations converged in                     0 
  solvent iterations
 SONIAPRI                     0
 CCEQ_STR: CVSEPARATION =  T
 CCEQ_STR: IONIZATION =  T
 CCEQ_STR: REMOVE_CORE =  F
 could not find required file CCM1_1___1
 IOPTSV is    33 ... program continues nevertheless.
 Vector nr.  1 of type M1  and symmetry  1 was not found on file.
     M1  start vector nr.  1 of symmetry  1 generated from gradient
 CCEQ_STR: freeze VALENCE OR VIRT
 CCEQ_SOL: CVSEPARA=     T
 CCEQ_SOL: LIONISAT=     T
 CCEQ_SOL: REMOVE_CORE =  F



 ----- COUPLED CLUSTER RESPONSE SOLVER -----

    Iter  #Vectors  time (min)   residual
    --------------------------------------
 CCRED CVS/IONIS sigma_                     1 
 project out valence occupied or virtual
      1       1         2.02     0.33E+00
 CCRED CVS/IONIS sigma_                     2 
 project out valence occupied or virtual
      2       1         2.03     0.71E-01
 CCRED CVS/IONIS sigma_                     3 
 project out valence occupied or virtual
                    -1  vectors with norm le:  1.000000000000000E-035  REMOVED

 CCORT,**WARNING**  number vectors added is zero after check for vector norm , NBADD :    0

 CCORT, number vectors added is zero , NBADD :    0

 CCORT, number vectors added is zero , NBADD :    0

 CCORT, number vectors added is zero , NBADD :    0

 *** MICROITERATIONS STOPPED DUE TO LINEAR DEPENDENCE BETWEEN ALL NEW TRIAL VECTORS
                     0  trial vectors converged
  LINEAR DEPENDENCE BETWEEN                     1  NON CONVERGED TRIAL VECTORS
      3       1         2.05     0.74E-02

 ***  CCEQ_SOL -MICROITERATIONS STOPPED  
     LINEAR DEPENDENCE BETWEEN ALL NEW TRIAL VECTORS
    --------------------------------------
    converged in  3 iterations
    threshold:    0.10E-08


         Routine          Time (min)
         ---------------------------
         CC_TRDRV            6.10
         CCRED               0.03
         CCNEX               0.05
         ---------------------------
         Total time          6.18


  Total CPU  time used in CCEQ_SOLV:  6 minutes 11 seconds
  Total wall time used in CCEQ_SOLV:  6 minutes 21 seconds


 xxxxxxxxxxxxxxxxxxxxxxxxxxxxxxxxxxxxx

 
 Solution of CC response equations completed.
 

 *******************************************************************
 *                                                                 *
 *--------  OUTPUT FROM COUPLED CLUSTER LINEAR RESPONSE   ---------*
 *                                                                 *
 *--------      CALCULATION OF SECOND ORDER RESIDUES      ---------*
 *                                                                 *
 *******************************************************************



                  +---------------------------------------------+
                  ! CC_SOPR: Calculation of CCSD       Residues !
                  +---------------------------------------------+

 Doing the Mf*CsiA
 Doing the Mf*CsiA
 Doing the Mf*CsiA


 CCSD  Right transition moments in atomic units:
 -----------------------------------------------

  1      14.951387  <XDIPLEN |f> =       0.00000001
  1      14.951387  <YDIPLEN |f> =       0.00000000
  1      14.951387  <ZDIPLEN |f> =       0.00000002


 CCSD  Left  transition moments in atomic units:
 -----------------------------------------------

  1      14.951387  <f|XDIPLEN > =       0.00000000
  1      14.951387  <f|YDIPLEN > =       0.00000000
  1      14.951387  <f|ZDIPLEN > =       0.00000001


 CCSD  linear response residue property in atomic units:
 -------------------------------------------------------

 RES{<<XDIPLEN ,XDIPLEN >>(14.951387)} =     0.00000000 (   0.00000000)
 RES{<<XDIPLEN ,YDIPLEN >>(14.951387)} =     0.00000000 (   0.00000000)
 RES{<<XDIPLEN ,ZDIPLEN >>(14.951387)} =     0.00000000 (   0.00000001)
 RES{<<YDIPLEN ,XDIPLEN >>(14.951387)} =     0.00000000 (   0.00000000)
 RES{<<YDIPLEN ,YDIPLEN >>(14.951387)} =     0.00000000 (   0.00000000)
 RES{<<YDIPLEN ,ZDIPLEN >>(14.951387)} =     0.00000000 (   0.00000001)
 RES{<<ZDIPLEN ,XDIPLEN >>(14.951387)} =     0.00000000 (   0.00000001)
 RES{<<ZDIPLEN ,YDIPLEN >>(14.951387)} =     0.00000000 (   0.00000001)
 RES{<<ZDIPLEN ,ZDIPLEN >>(14.951387)} =     0.00000000 (   0.00000001)


 CCSD  Transition strength matrix for state nr.  1 of symmetry 1
 CCSD  excitation energy:14.95138748

 Gauge: length

               Column   1     Column   2     Column   3
       1     1.697815D-17   1.060443D-17   4.807800D-17
       2     1.060443D-17   6.607803D-18   3.004055D-17
       3     4.807800D-17   3.004055D-17   1.361370D-16
    ==== End of matrix output ====

 Principal values of diagonalized transition strength matrix:

             a.u.               
 1       0.00000000
 2       0.00000000
 3       0.00000000

 Principal axis of diagonalized transition strength matrix:


               Column   1     Column   2     Column   3
       1       1.00000000     0.00000000     0.00000000
       2       0.00000000     1.00000000     0.00000000
       3       0.00000000     0.00000000     1.00000000
    ==== End of matrix output ====


 CCSD   oscillator strength matrix for state nr.  1 of symmetry 1
 CCSD  excitation energy:14.95138748


               Column   1     Column   2     Column   3
       1     1.692312D-16   1.057007D-16   4.792218D-16
       2     1.057007D-16   6.586388D-17   2.994320D-16
       3     4.792218D-16   2.994320D-16   1.356958D-15
    ==== End of matrix output ====

 Principal values of diagonalized oscillator strength matrix:

             a.u.               
 1       0.00000000
 2       0.00000000
 3       0.00000000

 Principal axis of diagonalized oscillator strength matrix:


               Column   1     Column   2     Column   3
       1       1.00000000     0.00000000     0.00000000
       2       0.00000000     1.00000000     0.00000000
       3       0.00000000     0.00000000     1.00000000
    ==== End of matrix output ====

  Total time for      9 linear response residues:       3.86 seconds.
  

 *******************************************************************************
 *******************************************************************************
 *                                                                             *
 *                                                                             *
 *                   SUMMARY OF COUPLED CLUSTER CALCULATION                    *
 *                                                                             *
 *                                                                             *
 *******************************************************************************
 *******************************************************************************

                                                                                
                                                                                
            Total SCF   energy:                  -360.7737459001                
            Total MP2   energy:                  -361.8772843695                
            Total CCSD  energy:                  -361.9169389828                
                                                                                
                                                                                
            Total SCF   energy:                  -360.7737459001                
            Total RSTAR energy:                  -361.9169389828                
            Total CCSD  energy:                  -361.9170995607                
                                                                                
                                                                                
            Total SCF   energy:                  -360.7737459001                
            Total RSTAR energy:                  -361.9170995607                
            Total CCSD  energy:                  -361.9171018719                
                                                                                
                                                                                
            Total SCF   energy:                  -360.7737459001                
            Total RSTAR energy:                  -361.9171018719                
            Total CCSD  energy:                  -361.9171020322                
                                                                                
                                                                                
            Total SCF   energy:                  -360.7737459001                
            Total RSTAR energy:                  -361.9171020322                
            Total CCSD  energy:                  -361.9171020399                
                                                                                
                                                                                
            Total SCF   energy:                  -360.7737459001                
            Total RSTAR energy:                  -361.9171020399                
            Total CCSD  energy:                  -361.9171020403                
            CCSD Total  energy:                  -362.3335653566                
            CCSD E(QM/MM)     :                    -0.4109283792                
                                                                                
                                                                                
                                                                                
 +=============================================================================+
 |  sym. | Exci.  |        CCSD       Excitation energies            | ||T1||  |
 |(spin, |        +------------------------------------------------------------+
 | spat) |        |     Hartree    |       eV.      |     cm-1       |    %    |
 +=============================================================================+
 | ^1A   |    1   |    14.9513875  |     406.84795  |   3281450.225  |  88.03  |
 +=============================================================================+
                                                                                
                                                                                
     Total energies in Hartree:                                                 
             1 ^1A       -346.9712494978                                        
                                                                                
                                                                                
 +=============================================================================+
 |  sym. | Exci.  |        CCSD       Length   Gauge Oscillator Strength       |
 |(spin, |        +------------------------------------------------------------+
 | spat) |        | Dipole Strength(a.u.) | Oscillator strength  | Direction   |
 +=============================================================================+
 | ^1A   |    1   |        0.0000000      |      0.0000000       |    -        |
 +=============================================================================+

  1 a.u. =        27.21138 eV.  
  1 a.u. =    219474.62934 cm-1.
  

 *******************************************************************************
 *******************************************************************************
 *                                                                             *
 *                                                                             *
 *                      END OF COUPLED CLUSTER CALCULATION                     *
 *                                                                             *
 *                                                                             *
 *******************************************************************************
 *******************************************************************************


 CPU and wall time for CC :    8025.887    9552.085

 
     Date and time (Linux)  : Mon Dec  3 20:37:52 2018
     Host name              : n-62-29-7                               


                      .-------------------------------------.
                      | End of Coupled Cluster Section (CC) |
                      `-------------------------------------'

  Total CPU  time used in DALTON:   2 hours 15 minutes 38 seconds
  Total wall time used in DALTON:   2 hours 43 minutes 40 seconds

 
     Date and time (Linux)  : Mon Dec  3 20:37:52 2018
     Host name              : n-62-29-7                               
  

 +---------------------------------------------------------+ 
 | List of selected calculated molecular properties (a.u.) | 
 +---------------------------------------------------------+ 

  Properties are read from unit number                      4

 CCSD       properties :
 #  1 1 CCSD/MM  Ground state Energy =    -362.3335653566
 #  2 1 E_QM/MM  Ground state Energy =      -0.4109283792
 #  3 1 Sy: 1 Sp: 1 Exc:  1 E_tot:   -346.9712494978 w:     14.9513874796 E_grs:   -361.9226369774
 #  4 1 Exctot   Excited state Energy =    -346.9712494978
 #  5 1 |<O|XDIPLEN |i(14.951387)>| =     0.00000000
 #  7 1 |<O|YDIPLEN |i(14.951387)>| =     0.00000000
 #  9 1 |<O|ZDIPLEN |i(14.951387)>| =     0.00000001

 THE_END   
