

     ************************************************************************
     *************** Dalton - An Electronic Structure Program ***************
     ************************************************************************

    This is output from DALTON release Dalton2017.alpha (2016)
         ( Web site: http://daltonprogram.org )

   ----------------------------------------------------------------------------

    NOTE:
     
    Dalton is an experimental code for the evaluation of molecular
    properties using (MC)SCF, DFT, CI, and CC wave functions.
    The authors accept no responsibility for the performance of
    the code or for the correctness of the results.
     
    The code (in whole or part) is provided under a licence and
    is not to be reproduced for further distribution without
    the written permission of the authors or their representatives.
     
    See the home page "http://daltonprogram.org" for further information.
     
    If results obtained with this code are published,
    the appropriate citations would be both of:
     
       K. Aidas, C. Angeli, K. L. Bak, V. Bakken, R. Bast,
       L. Boman, O. Christiansen, R. Cimiraglia, S. Coriani,
       P. Dahle, E. K. Dalskov, U. Ekstroem,
       T. Enevoldsen, J. J. Eriksen, P. Ettenhuber, B. Fernandez,
       L. Ferrighi, H. Fliegl, L. Frediani, K. Hald, A. Halkier,
       C. Haettig, H. Heiberg, T. Helgaker, A. C. Hennum,
       H. Hettema, E. Hjertenaes, S. Hoest, I.-M. Hoeyvik,
       M. F. Iozzi, B. Jansik, H. J. Aa. Jensen, D. Jonsson,
       P. Joergensen, J. Kauczor, S. Kirpekar,
       T. Kjaergaard, W. Klopper, S. Knecht, R. Kobayashi, H. Koch,
       J. Kongsted, A. Krapp, K. Kristensen, A. Ligabue,
       O. B. Lutnaes, J. I. Melo, K. V. Mikkelsen, R. H. Myhre,
       C. Neiss, C. B. Nielsen, P. Norman, J. Olsen,
       J. M. H. Olsen, A. Osted, M. J. Packer, F. Pawlowski,
       T. B. Pedersen, P. F. Provasi, S. Reine, Z. Rinkevicius,
       T. A. Ruden, K. Ruud, V. Rybkin, P. Salek, C. C. M. Samson,
       A. Sanchez de Meras, T. Saue, S. P. A. Sauer,
       B. Schimmelpfennig, K. Sneskov, A. H. Steindal,
       K. O. Sylvester-Hvid, P. R. Taylor, A. M. Teale,
       E. I. Tellgren, D. P. Tew, A. J. Thorvaldsen, L. Thoegersen,
       O. Vahtras, M. A. Watson, D. J. D. Wilson, M. Ziolkowski
       and H. Agren,
       "The Dalton quantum chemistry program system",
       WIREs Comput. Mol. Sci. 2014, 4:269–284 (doi: 10.1002/wcms.1172)
     
    and
     
       Dalton, a Molecular Electronic Structure Program,
       Release Dalton2017.alpha (2016), see http://daltonprogram.org
   ----------------------------------------------------------------------------

    Authors in alphabetical order (major contribution(s) in parenthesis):

  Kestutis Aidas,           Vilnius University,           Lithuania   (QM/MM)
  Celestino Angeli,         University of Ferrara,        Italy       (NEVPT2)
  Keld L. Bak,              UNI-C,                        Denmark     (AOSOPPA, non-adiabatic coupling, magnetic properties)
  Vebjoern Bakken,          University of Oslo,           Norway      (DALTON; geometry optimizer, symmetry detection)
  Radovan Bast,             UiT The Arctic U. of Norway,  Norway      (DALTON installation and execution frameworks)
  Pablo Baudin,             University of Valencia,       Spain       (Cholesky excitation energies)
  Linus Boman,              NTNU,                         Norway      (Cholesky decomposition and subsystems)
  Ove Christiansen,         Aarhus University,            Denmark     (CC module)
  Renzo Cimiraglia,         University of Ferrara,        Italy       (NEVPT2)
  Sonia Coriani,            University of Trieste,        Italy       (CC module, MCD in RESPONS)
  Janusz Cukras,            University of Trieste,        Italy       (MChD in RESPONS)
  Paal Dahle,               University of Oslo,           Norway      (Parallelization)
  Erik K. Dalskov,          UNI-C,                        Denmark     (SOPPA)
  Thomas Enevoldsen,        Univ. of Southern Denmark,    Denmark     (SOPPA)
  Janus J. Eriksen,         Aarhus University,            Denmark     (Polarizable embedding model, TDA)
  Rasmus Faber,             University of Copenhagen,     Denmark     (Vib.avg. NMR with SOPPA, parallel AO-SOPPA)
  Berta Fernandez,          U. of Santiago de Compostela, Spain       (doublet spin, ESR in RESPONS)
  Lara Ferrighi,            Aarhus University,            Denmark     (PCM Cubic response)
  Heike Fliegl,             University of Oslo,           Norway      (CCSD(R12))
  Luca Frediani,            UiT The Arctic U. of Norway,  Norway      (PCM)
  Bin Gao,                  UiT The Arctic U. of Norway,  Norway      (Gen1Int library)
  Christof Haettig,         Ruhr-University Bochum,       Germany     (CC module)
  Kasper Hald,              Aarhus University,            Denmark     (CC module)
  Asger Halkier,            Aarhus University,            Denmark     (CC module)
  Frederik Beyer Hansen,    University of Copenhagen,     Denmark     (Parallel AO-SOPPA)
  Erik D. Hedegaard,        Univ. of Southern Denmark,    Denmark     (Polarizable embedding model, QM/MM)
  Hanne Heiberg,            University of Oslo,           Norway      (geometry analysis, selected one-electron integrals)
  Trygve Helgaker,          University of Oslo,           Norway      (DALTON; ABACUS, ERI, DFT modules, London, and much more)
  Alf Christian Hennum,     University of Oslo,           Norway      (Parity violation)
  Hinne Hettema,            University of Auckland,       New Zealand (quadratic response in RESPONS; SIRIUS supersymmetry)
  Eirik Hjertenaes,         NTNU,                         Norway      (Cholesky decomposition)
  Pi A. B. Haase,           University of Copenhagen,     Denmark     (Triplet AO-SOPPA)
  Maria Francesca Iozzi,    University of Oslo,           Norway      (RPA)
  Brano Jansik              Technical Univ. of Ostrava    Czech Rep.  (DFT cubic response)
  Hans Joergen Aa. Jensen,  Univ. of Southern Denmark,    Denmark     (DALTON; SIRIUS, RESPONS, ABACUS modules, London, and much more)
  Dan Jonsson,              UiT The Arctic U. of Norway,  Norway      (cubic response in RESPONS module)
  Poul Joergensen,          Aarhus University,            Denmark     (RESPONS, ABACUS, and CC modules)
  Maciej Kaminski,          University of Warsaw,         Poland      (CPPh in RESPONS)
  Joanna Kauczor,           Linkoeping University,        Sweden      (Complex polarization propagator (CPP) module)
  Sheela Kirpekar,          Univ. of Southern Denmark,    Denmark     (Mass-velocity & Darwin integrals)
  Wim Klopper,              KIT Karlsruhe,                Germany     (R12 code in CC, SIRIUS, and ABACUS modules)
  Stefan Knecht,            ETH Zurich,                   Switzerland (Parallel CI and MCSCF)
  Rika Kobayashi,           Australian National Univ.,    Australia   (DIIS in CC, London in MCSCF)
  Henrik Koch,              NTNU,                         Norway      (CC module, Cholesky decomposition)
  Jacob Kongsted,           Univ. of Southern Denmark,    Denmark     (Polarizable embedding model, QM/MM)
  Andrea Ligabue,           University of Modena,         Italy       (CTOCD, AOSOPPA)
  Nanna H. List             Univ. of Southern Denmark,    Denmark     (Polarizable embedding model)
  Ola B. Lutnaes,           University of Oslo,           Norway      (DFT Hessian)
  Juan I. Melo,             University of Buenos Aires,   Argentina   (LRESC, Relativistic Effects on NMR Shieldings)
  Kurt V. Mikkelsen,        University of Copenhagen,     Denmark     (MC-SCRF and QM/MM)
  Rolf H. Myhre,            NTNU,                         Norway      (Cholesky, subsystems and ECC2)
  Christian Neiss,          Univ. Erlangen-Nuernberg,     Germany     (CCSD(R12))
  Christian B. Nielsen,     University of Copenhagen,     Denmark     (QM/MM)
  Patrick Norman,           Linkoeping University,        Sweden      (Cubic response and complex frequency response in RESPONS)
  Jeppe Olsen,              Aarhus University,            Denmark     (SIRIUS CI/density modules)
  Jogvan Magnus H. Olsen,   Univ. of Southern Denmark,    Denmark     (Polarizable embedding model, QM/MM)
  Anders Osted,             Copenhagen University,        Denmark     (QM/MM)
  Martin J. Packer,         University of Sheffield,      UK          (SOPPA)
  Filip Pawlowski,          Kazimierz Wielki University,  Poland      (CC3)
  Morten N. Pedersen,       Univ. of Southern Denmark,    Denmark     (Polarizable embedding model)
  Thomas B. Pedersen,       University of Oslo,           Norway      (Cholesky decomposition)
  Patricio F. Provasi,      University of Northeastern,   Argentina   (Analysis of coupling constants in localized orbitals)
  Zilvinas Rinkevicius,     KTH Stockholm,                Sweden      (open-shell DFT, ESR)
  Elias Rudberg,            KTH Stockholm,                Sweden      (DFT grid and basis info)
  Torgeir A. Ruden,         University of Oslo,           Norway      (Numerical derivatives in ABACUS)
  Kenneth Ruud,             UiT The Arctic U. of Norway,  Norway      (DALTON; ABACUS magnetic properties and much more)
  Pawel Salek,              KTH Stockholm,                Sweden      (DALTON; DFT code)
  Claire C. M. Samson       University of Karlsruhe       Germany     (Boys localization, r12 integrals in ERI)
  Alfredo Sanchez de Meras, University of Valencia,       Spain       (CC module, Cholesky decomposition)
  Trond Saue,               Paul Sabatier University,     France      (direct Fock matrix construction)
  Stephan P. A. Sauer,      University of Copenhagen,     Denmark     (SOPPA(CCSD), SOPPA prop., AOSOPPA, vibrational g-factors)
  Bernd Schimmelpfennig,    Forschungszentrum Karlsruhe,  Germany     (AMFI module)
  Kristian Sneskov,         Aarhus University,            Denmark     (Polarizable embedding model, QM/MM)
  Arnfinn H. Steindal,      UiT The Arctic U. of Norway,  Norway      (parallel QM/MM, Polarizable embedding model)
  Casper Steinmann,         Univ. of Southern Denmark,    Denmark     (QFIT, Polarizable embedding model)
  K. O. Sylvester-Hvid,     University of Copenhagen,     Denmark     (MC-SCRF)
  Peter R. Taylor,          VLSCI/Univ. of Melbourne,     Australia   (Symmetry handling ABACUS, integral transformation)
  Andrew M. Teale,          University of Nottingham,     England     (DFT-AC, DFT-D)
  David P. Tew,             University of Bristol,        England     (CCSD(R12))
  Olav Vahtras,             KTH Stockholm,                Sweden      (triplet response, spin-orbit, ESR, TDDFT, open-shell DFT)
  David J. Wilson,          La Trobe University,          Australia   (DFT Hessian and DFT magnetizabilities)
  Hans Agren,               KTH Stockholm,                Sweden      (SIRIUS module, RESPONS, MC-SCRF solvation model)
 --------------------------------------------------------------------------------

     Date and time (Linux)  : Tue Dec  4 09:19:30 2018
     Host name              : n-62-23-29                              

 * Work memory size             :  1280000000 =  9.537 gigabytes.

 * Directories for basis set searches:
   1) /zhome/d7/7/119775/My_Codes/dalton-private/build2016/basis/diffs
   2) /zhome/37/3/129401/NH3NH4/CCSD/AIMD_SAMPLING/nh3_4h2o_nd
   3) /zhome/9a/4/124800/source/dalton/build-mlcc/basis


Compilation information
-----------------------

 Who compiled             | rfaber
 Host                     | hpclogin1
 System                   | Linux-2.6.32-696.1.1.el6.x86_64
 CMake generator          | Unix Makefiles
 Processor                | x86_64
 64-bit integers          | ON
 MPI                      | OFF
 Fortran compiler         | /opt/intel/2016update2/compilers_and_libraries_201
                          | 6.2.181/linux/bin/intel64/ifort
 Fortran compiler version | ifort (IFORT) 16.0.2 20160204
 C compiler               | /opt/intel/2016update2/compilers_and_libraries_201
                          | 6.2.181/linux/bin/intel64/icc
 C compiler version       | icc (ICC) 16.0.2 20160204
 C++ compiler             | /opt/intel/2016update2/compilers_and_libraries_201
                          | 6.2.181/linux/bin/intel64/icpc
 C++ compiler version     | icpc (ICC) 16.0.2 20160204
 Static linking           | OFF
 Last Git revision        | bb4d1599ca5680a9f3980451fc8bbefdba436d59
 Git branch               | mlcc
 Configuration time       | 2017-06-13 16:11:03.928841


   Content of the .dal input file
 ----------------------------------

**DALTON
.RUN WAVE FUNCTIONS
*QMMM
.QMMM
**INTEGRALS
.DIPLEN
**WAVE FUNCTIONS
.CC
*PRINT
!To check the origin of excit
.PRINTL
   0 11
*SCF INP
.THRESH
1.0D-7
*CC INP
.CCSD
.THRLEQ
 1.0D-9
.THRENR
 1.0D-10
.FROIMP
4
0
.PRINT
 1
.MAX IT
 1200
.MAXRED
 1200
.MXLRV
1199
*CCSLV
.CCMM
.MXSLIT
200
.MXINIT
4 5
*CCEXCI
.NCCEXC
 1
.IONISATION
1
1
.CVSEPARA
1
1
*CCLRSD
.DIPOLE
**END OF DALTON INPUT


   Content of the .mol file
 ----------------------------

ATOMBASIS


Atomtypes=5 Charge=0 Nosymm Angstrom
   7.00000    1    Basis=6-311G**
N          0.000000        0.000000        0.000000
   1.00000    3    Basis=6-311G**
H          0.549772        0.695656        0.434849
H         -0.980846        0.151612        0.268378
H          0.235076       -0.880928        0.439881
   8.00000    4    Basis=6-311G**
O         -2.768195       -1.212167        0.605989
O         -0.542977        0.800358       -2.974576
O         -0.014037       -3.074924        0.853872
O          0.637320        1.936551        2.571750
   1.00000    8    Basis=6-311G**
H         -3.395258       -0.639608        1.135169
H         -2.996898       -1.068061       -0.370487
H         -0.170740        0.436317       -3.819324
H          0.024204        0.351381       -2.273599
H          0.875312       -3.446809        0.914181
H         -0.433361       -3.476722        0.047644
H          0.480828        2.092259        3.513869
H          1.474456        2.322608        2.399682
   0.00000    1    Basis=diffs
X          0.000000        0.000000        0.000000


       *******************************************************************
       *********** Output from DALTON general input processing ***********
       *******************************************************************

 --------------------------------------------------------------------------------
   Overall default print level:    0
   Print level for DALTON.STAT:    1

    HERMIT 1- and 2-electron integral sections will be executed
    "Old" integral transformation used (limited to max 255 basis functions)
    Wave function sections will be executed (SIRIUS module)
 --------------------------------------------------------------------------------


 Changes of defaults for *QMMM  :
 --------------------------------

 +------------------+
 |  WORD: | CHANGE: |
 +------------------+
 |   QMMM |       T |
 +------------------+
 


   ****************************************************************************
   *************** Output of molecule and basis set information ***************
   ****************************************************************************


    The two title cards from your ".mol" input:
    ------------------------------------------------------------------------
 1:                                                                         
 2:                                                                         
    ------------------------------------------------------------------------

  Coordinates are entered in Angstrom and converted to atomic units.
          - Conversion factor : 1 bohr = 0.52917721 A

  Atomic type no.    1
  --------------------
  Nuclear charge:   7.00000
  Number of symmetry independent centers:    1
  Number of basis sets to read;    2
  The basis set is "6-311G**" from the basis set library.
  Basis set file used for this atomic type with Z =   7 :
     "/zhome/9a/4/124800/source/dalton/build-mlcc/basis/6-311G**"

  Info about the basis set file: your basis has no documentation.
  Basis set: 6-311G**                                                                        

  Atomic type no.    2
  --------------------
  Nuclear charge:   1.00000
  Number of symmetry independent centers:    3
  Number of basis sets to read;    2
  The basis set is "6-311G**" from the basis set library.
  Basis set file used for this atomic type with Z =   1 :
     "/zhome/9a/4/124800/source/dalton/build-mlcc/basis/6-311G**"

  Info about the basis set file: your basis has no documentation.
  Basis set: 6-311G**                                                                        

  Atomic type no.    3
  --------------------
  Nuclear charge:   8.00000
  Number of symmetry independent centers:    4
  Number of basis sets to read;    2
  The basis set is "6-311G**" from the basis set library.
  Basis set file used for this atomic type with Z =   8 :
     "/zhome/9a/4/124800/source/dalton/build-mlcc/basis/6-311G**"

  Info about the basis set file: your basis has no documentation.
  Basis set: 6-311G**                                                                        

  Atomic type no.    4
  --------------------
  Nuclear charge:   1.00000
  Number of symmetry independent centers:    8
  Number of basis sets to read;    2
  The basis set is "6-311G**" from the basis set library.
  Basis set file used for this atomic type with Z =   1 :
     "/zhome/9a/4/124800/source/dalton/build-mlcc/basis/6-311G**"

  Info about the basis set file: your basis has no documentation.
  Basis set: 6-311G**                                                                        

  Atomic type no.    5
  --------------------
  Nuclear charge:   0.00000
  Number of symmetry independent centers:    1
  Number of basis sets to read;    2
  The basis set is "diffs" from the basis set library.
  Basis set file used for this atomic type with Z =   0 :
     "/zhome/9a/4/124800/source/dalton/build-mlcc/basis/diffs"

  Info about the basis set file: your basis has no documentation.
  Basis set: diffs                                                                           


                         SYMGRP: Point group information
                         -------------------------------

@    Point group: C1 


                                 Isotopic Masses
                                 ---------------

                           N          14.003074
                           H           1.007825
                           H           1.007825
                           H           1.007825
                           O          15.994915
                           O          15.994915
                           O          15.994915
                           O          15.994915
                           H           1.007825
                           H           1.007825
                           H           1.007825
                           H           1.007825
                           H           1.007825
                           H           1.007825
                           H           1.007825
                           H           1.007825

                       Total mass:    89.068809 amu
                       Natural abundance:  98.514 %

 Center-of-mass coordinates (a.u.):   -1.004896   -0.600096    0.416235


  Atoms and basis sets
  --------------------

  Number of atom types :    5
  Total number of atoms:   17

  label    atoms   charge   prim   cont     basis
  ----------------------------------------------------------------------
  N           1    7.0000    31    18      [11s5p1d|4s3p1d]                                   
  H           3    1.0000     8     6      [5s1p|3s1p]                                        
  O           4    8.0000    31    18      [11s5p1d|4s3p1d]                                   
  H           8    1.0000     8     6      [5s1p|3s1p]                                        
  X           1    0.0000     1     1      [1s|1s]                                            
  ----------------------------------------------------------------------
  total:     17   50.0000   244   157
  ----------------------------------------------------------------------
  Spherical harmonic basis used.

  Threshold for neglecting AO integrals:  1.00D-12


  Cartesian Coordinates (a.u.)
  ----------------------------

  Total number of coordinates:   51
  N       :     1  x   0.0000000000    2  y   0.0000000000    3  z   0.0000000000
  H       :     4  x   1.0389185112    5  y   1.3145993172    6  z   0.8217455157
  H       :     7  x  -1.8535303108    8  y   0.2865051573    9  z   0.5071609180
  H       :    10  x   0.4442292586   11  y  -1.6647126558   12  z   0.8312546176
  O       :    13  x  -5.2311304106   14  y  -2.2906636478   15  z   1.1451532448
  O       :    16  x  -1.0260778222   17  y   1.5124574219   18  z  -5.6211339780
  O       :    19  x  -0.0265260856   20  y  -5.8107642152   21  z   1.6135842258
  O       :    22  x   1.2043602540   23  y   3.6595510171   24  z   4.8599031620
  H       :    25  x  -6.4161077437   26  y  -1.2086839474   27  z   2.1451585156
  H       :    28  x  -5.6633164445   29  y  -2.0183427748   30  z  -0.7001189629
  H       :    31  x  -0.3226518386   32  y   0.8245196337   33  z  -7.2174763426
  H       :    34  x   0.0457389311   35  y   0.6640138555   36  z  -4.2964794281
  H       :    37  x   1.6540999539   38  y  -6.5135250152   39  z   1.7275517187
  H       :    40  x  -0.8189336033   41  y  -6.5700523927   42  z   0.0900341115
  H       :    43  x   0.9086332332   44  y   3.9537964926   45  z   6.6402500491
  H       :    46  x   2.7863180234   47  y   4.3890930157   48  z   4.5347417671
  X       :    49  x   0.0000000000   50  y   0.0000000000   51  z   0.0000000000

  Max    interatomic separation is    7.5460 Angstrom (   14.2599 Bohr)
  between atoms   15 and   11, "H     " and "H     ".

  Min HX interatomic separation is    0.9378 Angstrom (    1.7722 Bohr)

  Min YX interatomic separation is    3.0821 Angstrom (    5.8244 Bohr)


  Bond distances (Angstrom):
  --------------------------

                  atom 1     atom 2       distance
                  ------     ------       --------
  bond distance:  H          N            0.987563
  bond distance:  H          N            1.028140
  bond distance:  H          N            1.012319
  bond distance:  H          O            1.000532
  bond distance:  H          O            1.013201
  bond distance:  H          O            0.992313
  bond distance:  H          O            1.007295
  bond distance:  H          O            0.965856
  bond distance:  H          O            0.993619
  bond distance:  H          O            0.967638
  bond distance:  H          O            0.937787


  Bond angles (degrees):
  ----------------------

                  atom 1     atom 2     atom 3         angle
                  ------     ------     ------         -----
  bond angle:     H          N          H            108.196
  bond angle:     H          N          H            107.001
  bond angle:     H          N          H            103.676
  bond angle:     H          O          H            106.671
  bond angle:     H          O          H            102.572
  bond angle:     H          O          H            106.472
  bond angle:     H          O          H            104.878




 Principal moments of inertia (u*A**2) and principal axes
 --------------------------------------------------------

   IA     390.913092          0.328993    0.462905    0.823094
   IB     422.263988          0.187159    0.822362   -0.537301
   IC     604.018973          0.925600   -0.330818   -0.183914


 Rotational constants
 --------------------

               A                   B                   C

           1292.8168           1196.8319            836.6939 MHz
            0.043124            0.039922            0.027909 cm-1


@  Nuclear repulsion energy :  178.794838550496 Hartree

  Number of floating/multiple basis set orbitals :    1


                     .---------------------------------------.
                     | Starting in Integral Section (HERMIT) |
                     `---------------------------------------'



 ***************************************************************************************
 ****************** Output from **INTEGRALS input processing (HERMIT) ******************
 ***************************************************************************************



    *************************************************************************
    ****************** Output from HERMIT input processing ******************
    *************************************************************************


 Default print level:        1

 * Nuclear model: Point charge

 Calculation of one- and two-electron Hamiltonian integrals.

 The following one-electron property integrals are calculated as requested:
          - overlap integrals
          - dipole length integrals

 Center of mass  (bohr):     -1.004896078192     -0.600095610629      0.416234964383
 Operator center (bohr):      0.000000000000      0.000000000000      0.000000000000
 Gauge origin    (bohr):      0.000000000000      0.000000000000      0.000000000000
 Dipole origin   (bohr):      0.000000000000      0.000000000000      0.000000000000
 
  *********************************** 
  QMMM electrostatic potential: 
  Multipole order                                    0
  Isotropic polarization  
  *********************************** 
 
  ---------------- 
  QMMM information 
  ---------------- 
 
  MM coordinates in au 
  -------------------- 
     1      8.967697      6.719418    -10.301936
     2      9.342290      5.275817    -11.490251
     3      7.255853      7.177911    -10.825848
     4     -8.483642     -9.621507      5.771214
     5     -6.918446    -10.797470      5.861779
     6     -8.589338     -8.785176      7.491878
     7     -9.385882     -8.060466     10.621262
     8     -9.452302     -9.094205     12.194826
     9    -11.157716     -7.153957     10.434384
    10    -10.711304      2.996263     10.533715
    11    -10.161721      4.742126     10.852667
    12    -11.365622      2.998765      8.763165
    13     -1.314873     -4.455594     -4.732165
    14     -1.806548     -4.148913     -6.488923
    15     -2.114851     -6.044775     -4.419291
    16      8.840976      4.275314     -5.773229
    17      8.124551      5.636127     -4.638123
    18      9.102892      5.199476     -7.274181
    19     -1.701396     11.260421    -10.096886
    20     -3.040962     11.968420     -8.998604
    21     -1.937610     12.298273    -11.551267
    22      6.090912     -9.319388    -10.276911
    23      5.742980     -9.612991     -8.407012
    24      4.716244     -8.207368    -10.702872
    25    -10.520961      1.604198     -4.288713
    26    -12.017069      2.616674     -4.665745
    27    -10.331288      0.668523     -5.880214
    28     -7.536668     -5.921381     -6.102288
    29     -6.276574     -4.842678     -5.198672
    30     -8.757395     -5.981499     -4.704154
    31     -3.229310     -8.513738     -2.329014
    32     -2.349147    -10.150469     -1.758265
    33     -4.487905     -8.111933     -1.088167
    34     -4.793513      0.806293    -11.003284
    35     -4.219226      2.462222    -10.400869
    36     -4.459345      0.660610    -12.827514
    37     11.399357     -1.302909     -0.524080
    38     11.468404     -0.186790     -1.957150
    39      9.691192     -1.175740      0.171273
    40    -11.035041      7.612344      0.728438
    41    -11.705100      8.998071      1.749457
    42    -10.374113      8.091958     -0.948763
    43      6.532092      5.339548      5.048075
    44      7.235871      5.110277      3.327063
    45      6.988850      3.738704      5.894564
    46     -2.237999     -3.791692     -9.886461
    47     -0.459083     -3.987910    -10.161764
    48     -2.765627     -2.043268    -10.153969
    49     -8.046148      7.410604     10.348231
    50     -6.422281      6.773738     11.062691
    51     -8.761305      8.788083     11.336450
    52     -9.792761      5.049112      5.013742
    53     -9.625012      5.927729      3.317667
    54     -9.081353      6.167295      6.262460
    55      9.539262     -5.947527     10.918488
    56      9.337382     -4.147932     11.729783
    57      8.557598     -7.236213     11.921606
    58      0.139137     -9.346047      9.505576
    59      1.537918    -10.244322      8.620823
    60     -1.029876     -8.929559      8.103854
    61      8.658880      8.892879      7.588836
    62      7.935446      7.232161      7.054973
    63     10.380405      8.483224      8.028386
    64      2.018050      4.720952      9.779707
    65      2.542982      6.274165     10.599179
    66      2.578966      3.348192     10.776692
    67      5.972591     -9.513855     -5.091714
    68      4.963897     -8.037967     -4.551574
    69      7.117096     -9.668873     -3.681409
    70      3.780114      9.723669      0.806696
    71      2.141190      9.903372     -0.077067
    72      3.577567     10.742112      2.262531
    73      2.467177     -5.083341     11.594777
    74      1.696774     -6.622689     10.753638
    75      3.924258     -4.727887     10.433478
    76     -3.354676      6.383529    -11.086133
    77     -3.004867      8.203335    -10.693323
    78     -1.794123      5.740784    -11.803307
    79     -5.722270     -0.877330     -3.932513
    80     -7.119080      0.356208     -3.559511
    81     -4.106579      0.077857     -4.183922
    82      5.056420     -6.328672      2.500017
    83      4.862800     -4.574307      3.008287
    84      6.239783     -6.335035      1.124842
    85      4.306306      8.602564    -11.159067
    86      3.493017      9.045605     -9.471600
    87      4.734488     10.253752    -11.896047
    88      4.693464     -1.815473      4.700187
    89      5.970429     -1.290447      6.059635
    90      3.133126     -1.847056      5.811719
    91      2.228766      0.588952    -10.357493
    92      1.808714     -0.806690    -11.541083
    93      3.660042      0.157856     -9.189776
    94    -11.265081     10.362978     -4.512012
    95    -10.351910     11.840928     -3.772275
    96     -9.935904      8.975972     -4.797174
    97      8.028003      5.039777      0.018729
    98      7.144028      6.159814     -1.112348
    99      9.850719      5.716497      0.240815
   100      4.519694     -3.901357     -3.619028
   101      2.725563     -4.239311     -3.782381
   102      4.563131     -2.809348     -2.119184
   103      2.306193     10.506152     -6.748779
   104      0.983002     11.333676     -7.905837
   105      3.629232     11.658920     -6.100979
   106     -5.524323     -4.946619      9.448529
   107     -6.809698     -5.849026     10.347813
   108     -4.317102     -4.454646     10.750697
   109     -9.464618     -0.889080     -8.893006
   110     -7.993500     -0.018510     -9.775731
   111     -8.507396     -2.475670     -8.468186
   112      0.698779     -1.752736      7.542944
   113     -1.049720     -1.048182      7.104732
   114      0.456866     -3.419554      8.259010
   115     -5.716463    -10.584331     -7.009469
   116     -6.138059     -8.726118     -7.190457
   117     -4.979700    -10.560479     -5.312351
   118     -7.859335      6.479880     -4.179662
   119     -8.432170      4.757860     -4.133319
   120     -6.033448      6.407581     -3.828908
   121      8.601502     -9.638418     -0.876593
   122      9.999954     -8.308980     -0.935928
   123      8.809412    -10.572184      0.675951
   124     -0.478012     10.193451     -2.115050
   125     -1.315716      8.509327     -2.211034
   126      0.491896     10.056699     -3.665967
   127      6.942723      8.677840     -3.563706
   128      5.684610      9.554998     -2.564738
   129      8.631369      9.496605     -3.334114
   130     -3.180112      5.341190     -2.351139
   131     -2.191939      4.181985     -3.398147
   132     -3.315337      4.723507     -0.605474
   133     10.907626     11.578592      3.359646
   134     12.386465     12.485910      4.068686
   135      9.709466     11.325393      4.766560
   136     -3.552371      4.518197      2.674293
   137     -1.849091      4.580868      3.485177
   138     -4.491384      5.991709      3.351648
   139      6.518040     -0.275411     -6.963138
   140      5.920380     -1.681100     -5.764077
   141      7.114556      1.277995     -6.047689
   142     -9.460147     -0.277427      4.290190
   143     -9.072267      1.592718      4.696056
   144    -10.516352     -0.334104      2.848326
   145      6.875665      0.025870      0.465581
   146      6.999816      1.844556      0.244374
   147      5.843167     -0.387148      2.061999
   148    -11.160490     10.759587    -10.080850
   149    -10.936397     10.487678     -8.242443
   150    -12.679656      9.827353    -10.352560
   151     -6.855074     -7.055034      1.189307
   152     -6.373920     -5.323576      1.655143
   153     -7.158232     -7.998555      2.768173
   154      9.182780     -1.018517    -11.319860
   155     11.039691     -1.073550    -11.061363
   156      8.301429     -0.812643     -9.676751
   157      8.467904      0.810963      7.208631
   158      9.826946      0.164497      6.316924
   159      8.992817      0.466995      9.024646
   160     -2.970196     -7.894189      5.684481
   161     -4.241812     -6.879142      6.692777
   162     -2.120575     -6.753724      4.455848
   163     -5.223515      9.110804      5.972409
   164     -5.893292      8.262533      7.558787
   165     -3.650490      9.982297      6.578849
   166     -3.948097      0.826653      7.046314
   167     -4.161332      2.055584      5.621045
   168     -5.122821     -0.547737      6.861573
   169      3.833534    -11.514498      6.369500
   170      4.735019     -9.916659      6.358588
   171      5.254990    -12.577794      6.864959
   172      5.564951     -6.696913      7.736841
   173      5.701381     -6.189509      6.019579
   174      7.280085     -6.716368      8.497257
   175    -11.170326     -6.211579     -2.034636
   176     -9.730207     -6.857130     -1.046347
   177    -11.334275     -4.441367     -1.439185
 
  MM charges 
  ---------- 
     1     -0.674440
     2      0.337220
     3      0.337220
     4     -0.674440
     5      0.337220
     6      0.337220
     7     -0.674440
     8      0.337220
     9      0.337220
    10     -0.674440
    11      0.337220
    12      0.337220
    13     -0.674440
    14      0.337220
    15      0.337220
    16     -0.674440
    17      0.337220
    18      0.337220
    19     -0.674440
    20      0.337220
    21      0.337220
    22     -0.674440
    23      0.337220
    24      0.337220
    25     -0.674440
    26      0.337220
    27      0.337220
    28     -0.674440
    29      0.337220
    30      0.337220
    31     -0.674440
    32      0.337220
    33      0.337220
    34     -0.674440
    35      0.337220
    36      0.337220
    37     -0.674440
    38      0.337220
    39      0.337220
    40     -0.674440
    41      0.337220
    42      0.337220
    43     -0.674440
    44      0.337220
    45      0.337220
    46     -0.674440
    47      0.337220
    48      0.337220
    49     -0.674440
    50      0.337220
    51      0.337220
    52     -0.674440
    53      0.337220
    54      0.337220
    55     -0.674440
    56      0.337220
    57      0.337220
    58     -0.674440
    59      0.337220
    60      0.337220
    61     -0.674440
    62      0.337220
    63      0.337220
    64     -0.674440
    65      0.337220
    66      0.337220
    67     -0.674440
    68      0.337220
    69      0.337220
    70     -0.674440
    71      0.337220
    72      0.337220
    73     -0.674440
    74      0.337220
    75      0.337220
    76     -0.674440
    77      0.337220
    78      0.337220
    79     -0.674440
    80      0.337220
    81      0.337220
    82     -0.674440
    83      0.337220
    84      0.337220
    85     -0.674440
    86      0.337220
    87      0.337220
    88     -0.674440
    89      0.337220
    90      0.337220
    91     -0.674440
    92      0.337220
    93      0.337220
    94     -0.674440
    95      0.337220
    96      0.337220
    97     -0.674440
    98      0.337220
    99      0.337220
   100     -0.674440
   101      0.337220
   102      0.337220
   103     -0.674440
   104      0.337220
   105      0.337220
   106     -0.674440
   107      0.337220
   108      0.337220
   109     -0.674440
   110      0.337220
   111      0.337220
   112     -0.674440
   113      0.337220
   114      0.337220
   115     -0.674440
   116      0.337220
   117      0.337220
   118     -0.674440
   119      0.337220
   120      0.337220
   121     -0.674440
   122      0.337220
   123      0.337220
   124     -0.674440
   125      0.337220
   126      0.337220
   127     -0.674440
   128      0.337220
   129      0.337220
   130     -0.674440
   131      0.337220
   132      0.337220
   133     -0.674440
   134      0.337220
   135      0.337220
   136     -0.674440
   137      0.337220
   138      0.337220
   139     -0.674440
   140      0.337220
   141      0.337220
   142     -0.674440
   143      0.337220
   144      0.337220
   145     -0.674440
   146      0.337220
   147      0.337220
   148     -0.674440
   149      0.337220
   150      0.337220
   151     -0.674440
   152      0.337220
   153      0.337220
   154     -0.674440
   155      0.337220
   156      0.337220
   157     -0.674440
   158      0.337220
   159      0.337220
   160     -0.674440
   161      0.337220
   162      0.337220
   163     -0.674440
   164      0.337220
   165      0.337220
   166     -0.674440
   167      0.337220
   168      0.337220
   169     -0.674440
   170      0.337220
   171      0.337220
   172     -0.674440
   173      0.337220
   174      0.337220
   175     -0.674440
   176      0.337220
   177      0.337220
 
  MM isotropic polarizabilities in au 
  ----------------------------------- 
     1      5.739350
     2      2.308390
     3      2.308390
     4      5.739350
     5      2.308390
     6      2.308390
     7      5.739350
     8      2.308390
     9      2.308390
    10      5.739350
    11      2.308390
    12      2.308390
    13      5.739350
    14      2.308390
    15      2.308390
    16      5.739350
    17      2.308390
    18      2.308390
    19      5.739350
    20      2.308390
    21      2.308390
    22      5.739350
    23      2.308390
    24      2.308390
    25      5.739350
    26      2.308390
    27      2.308390
    28      5.739350
    29      2.308390
    30      2.308390
    31      5.739350
    32      2.308390
    33      2.308390
    34      5.739350
    35      2.308390
    36      2.308390
    37      5.739350
    38      2.308390
    39      2.308390
    40      5.739350
    41      2.308390
    42      2.308390
    43      5.739350
    44      2.308390
    45      2.308390
    46      5.739350
    47      2.308390
    48      2.308390
    49      5.739350
    50      2.308390
    51      2.308390
    52      5.739350
    53      2.308390
    54      2.308390
    55      5.739350
    56      2.308390
    57      2.308390
    58      5.739350
    59      2.308390
    60      2.308390
    61      5.739350
    62      2.308390
    63      2.308390
    64      5.739350
    65      2.308390
    66      2.308390
    67      5.739350
    68      2.308390
    69      2.308390
    70      5.739350
    71      2.308390
    72      2.308390
    73      5.739350
    74      2.308390
    75      2.308390
    76      5.739350
    77      2.308390
    78      2.308390
    79      5.739350
    80      2.308390
    81      2.308390
    82      5.739350
    83      2.308390
    84      2.308390
    85      5.739350
    86      2.308390
    87      2.308390
    88      5.739350
    89      2.308390
    90      2.308390
    91      5.739350
    92      2.308390
    93      2.308390
    94      5.739350
    95      2.308390
    96      2.308390
    97      5.739350
    98      2.308390
    99      2.308390
   100      5.739350
   101      2.308390
   102      2.308390
   103      5.739350
   104      2.308390
   105      2.308390
   106      5.739350
   107      2.308390
   108      2.308390
   109      5.739350
   110      2.308390
   111      2.308390
   112      5.739350
   113      2.308390
   114      2.308390
   115      5.739350
   116      2.308390
   117      2.308390
   118      5.739350
   119      2.308390
   120      2.308390
   121      5.739350
   122      2.308390
   123      2.308390
   124      5.739350
   125      2.308390
   126      2.308390
   127      5.739350
   128      2.308390
   129      2.308390
   130      5.739350
   131      2.308390
   132      2.308390
   133      5.739350
   134      2.308390
   135      2.308390
   136      5.739350
   137      2.308390
   138      2.308390
   139      5.739350
   140      2.308390
   141      2.308390
   142      5.739350
   143      2.308390
   144      2.308390
   145      5.739350
   146      2.308390
   147      2.308390
   148      5.739350
   149      2.308390
   150      2.308390
   151      5.739350
   152      2.308390
   153      2.308390
   154      5.739350
   155      2.308390
   156      2.308390
   157      5.739350
   158      2.308390
   159      2.308390
   160      5.739350
   161      2.308390
   162      2.308390
   163      5.739350
   164      2.308390
   165      2.308390
   166      5.739350
   167      2.308390
   168      2.308390
   169      5.739350
   170      2.308390
   171      2.308390
   172      5.739350
   173      2.308390
   174      2.308390
   175      5.739350
   176      2.308390
   177      2.308390


     ************************************************************************
     ************************** Output from HERINT **************************
     ************************************************************************



                      Nuclear contribution to dipole moments
                      --------------------------------------

                 au               Debye          C m (/(10**-30)

      x    -48.83159454      -124.11752513      -414.01149969
      y    -29.97814471       -76.19683862      -254.16529530
      z     21.06387572        53.53902833       178.58697542



 Threshold for neglecting two-electron integrals:  1.00D-12
 HERMIT - Number of two-electron integrals written:    26594762 ( 34.6% )
 HERMIT - Megabytes written:                            304.525

  Time used in TWOINT     is       6.53 seconds
  Total CPU  time used in HERMIT:   6.73 seconds
  Total wall time used in HERMIT:  10.07 seconds


                        .----------------------------------.
                        | End of Integral Section (HERMIT) |
                        `----------------------------------'



                   .--------------------------------------------.
                   | Starting in Wave Function Section (SIRIUS) |
                   `--------------------------------------------'

NCCEXCI for singlet:    1
 CCSD_INPUT: core-val requested
 Requested number of virtual orbs per sym
                     1
 Indices of requested virtual orbs
                     1
 CCSD_INPUT: core-val requested
 Requested number of core orbs per sym
                     1
 Indices of requested core orbs
                     1

 *** Output from Huckel module :

     Using EWMO model:          T
     Using EHT  model:          F
     Number of Huckel orbitals each symmetry:   36

 EWMO - Energy Weighted Maximum Overlap - is a Huckel type method,
        which normally is better than Extended Huckel Theory.
 Reference: Linderberg and Ohrn, Propagators in Quantum Chemistry (Wiley, 1973)

 Huckel EWMO eigenvalues for symmetry :  1
          -20.685059     -20.684690     -20.684343     -20.684214     -15.674119
           -1.675039      -1.615250      -1.593361      -1.579952      -1.486545
           -0.803531      -0.788263      -0.784429      -0.772505      -0.736407
           -0.722181      -0.698524      -0.690417      -0.675615      -0.671071
           -0.617021      -0.615970      -0.596832      -0.589009      -0.525591
           -0.257362      -0.239880      -0.235845      -0.230887      -0.183650
           -0.182664      -0.174689      -0.166546      -0.165842      -0.147872
           -0.140625

 **********************************************************************
 *SIRIUS* a direct, restricted step, second order MCSCF program       *
 **********************************************************************

 
     Date and time (Linux)  : Tue Dec  4 09:19:41 2018
     Host name              : n-62-23-29                              

 Title lines from ".mol" input file:
                                                                             
                                                                             

 Print level on unit LUPRI =   2 is   0
 Print level on unit LUW4  =   2 is  11

@    (Integral direct) CC calculation.

@    This is a combination run starting with
@              a restricted, closed shell Hartree-Fock calculation


 Initial molecular orbitals are obtained according to
 ".MOSTART EWMO  " input option

@    QM part is embedded in an environment :

@         Model: QMMM

     Wave function specification
     ============================

     For the specification of the Coupled Cluster: see later.

@    Wave function type        --- CC ---
@    Number of closed shell electrons          50
@    Number of electrons in active shells       0
@    Total charge of the molecule               0

@    Spin multiplicity and 2 M_S                1         0
@    Total number of symmetries                 1 (point group: C1 )
@    Reference state symmetry                   1 (irrep name : A  )

     Orbital specifications
     ======================
@    Abelian symmetry species          All |    1
@                                          |  A  
                                       --- |  ---
@    Occupied SCF orbitals              25 |   25
@    Secondary orbitals                132 |  132
@    Total number of orbitals          157 |  157
@    Number of basis functions         157 |  157

     Optimization information
     ========================
@    Number of configurations                 1
@    Number of orbital rotations           3300
     ------------------------------------------
@    Total number of variables             3301

     Maximum number of Fock   iterations      0
     Maximum number of DIIS   iterations     60
     Maximum number of QC-SCF iterations     60
     Threshold for SCF convergence     1.00D-07


 Changes of defaults for CC:
 ---------------------------


 -Implicit frozen core calculation
 -Excitation energies calculated
 -One-photon absorption strengths will be calculated
 -Oscillator strengths calculated
  
* Read MO coefficients from SIRIUS.RST with label "NEWORB  " and header info:  4Dec18  REORTHO 


 ***********************************************
 ***** DIIS acceleration of SCF iterations *****
 ***********************************************

 C1-DIIS algorithm; max error vectors =    8
 -----------------------------------------------------------------------------

 *** DIIS iteration number    1
 RDSUPM called. NFMAT, ISYMDM(1:NFMAT)                     1
                     1

Calculating AOSUPINT
     (Precalculated two-electron integrals are transformed to P-supermatrix elements.
      Threshold for discarding integrals :  1.00D-12 )
  CPU  time used in FORMSUP    is   5.39 seconds
  WALL time used in FORMSUP    is  33.51 seconds

 ITDIIS, energy, error norm, change in energy, scr.thr., difden:
@ DIIS iter.   1    -359.882627022        3.79888D+00   -3.60D+02  -20    F

 (DIIS_RED) Control Parameters C2DIIS =         F NEVC =    1


 (DIIS_RED) B matrix:

               Column   1
       1      14.43145431
    ==== End of matrix output ====

 DIIS C vector; C2DIIS = F, LAMBDA = -1.44D+01
    1.000000
* Read MO coefficients from SIRIUS.RST with label "NEWORB  " and header info:  4Dec18  DIIS   1
      Virial theorem: -V/T =      1.998742
@      MULPOP N      -0.49; H       0.17; H       0.16; H       0.15; O      -0.61; O      -0.71; O      -0.62; O      -0.62; H       0.32; H       0.33; 
@             H       0.33; H       0.31; H       0.33; H       0.33; H       0.31; H       0.33; 
   1  Level shift: doubly occupied orbital energies shifted by -2.00D-01

 DIIS Fock eigenvalues in symmetry 1
      -20.73846      -20.70385      -20.70054      -20.65265      -15.87983
       -1.57497       -1.53177       -1.52268       -1.50673       -1.38877
       -0.95704       -0.91538       -0.90646       -0.89778       -0.89201
       -0.87876       -0.80824       -0.77487       -0.76631       -0.76539
       -0.76480       -0.73389       -0.72812       -0.71052       -0.69380
        0.00000        0.12038        0.14877        0.16925        0.17528
        0.22027        0.23982        0.25685        0.27728        0.28324
        0.30318        0.32191        0.44678        0.48199        0.52936
        0.55238        0.55543        0.56876        0.57859        0.58153
        0.58533        0.59301        0.65612        0.83744        0.90888
        0.92918        0.93951        0.96633        0.98511        1.00615
        1.01979        1.03950        1.06180        1.07999        1.09630
        1.10951        1.13624        1.14334        1.16994        1.25475
        1.29842        1.31761        1.35500        1.39492        1.42178
        1.45221        1.45548        1.45932        1.46120        1.46648
        1.49404        1.51172        1.54221        1.66264        1.66363
        1.66870        1.69461        1.79725        1.81731        1.83504
        1.87475        1.88652        1.88916        1.90975        1.98478
        2.16269        2.17104        2.18339        2.18550        2.20998
        2.21569        2.28658        2.31871        2.32801        2.33675
        2.45998        2.54734        2.58144        2.60902        2.64188
        2.65888        2.71162        2.74228        2.75652        2.78153
        2.78682        2.84830        2.93156        2.94657        3.11007
        3.38063        3.40279        3.43277        3.43865        3.45525
        3.46585        3.48176        3.50177        3.50419        3.51384
        3.62113        3.65887        3.66085        3.67916        3.97798
        3.98460        3.99531        4.00090        4.17150        4.21907
        4.22001        4.23026        4.44843        5.07274        5.17864
        5.29080        5.34965        5.38688        5.40758        5.72734
        5.73770        5.76216        5.79840        6.05126        6.07786
        6.12496        6.16285       36.91103       51.54825       51.56384
       51.57349       51.60567
 Time used in FCKEIG, thr_jaco:   4.10D-02  4.70D-02  1.65D-04
 CPU and wall times used in FCKEIG, THR_FCKEIG:   4.10D-02  4.70D-02  3.80D-02
 -----------------------------------------------------------------------------

 *** DIIS iteration number    2
 RDSUPM called. NFMAT, ISYMDM(1:NFMAT)                     1
                     1

 ITDIIS, energy, error norm, change in energy, scr.thr., difden:
@ DIIS iter.   2    -360.679272288        8.69792D-01   -7.97D-01  -20    F

 (DIIS_RED) Control Parameters C2DIIS =         F NEVC =    2


 (DIIS_RED) B matrix:

               Column   1     Column   2
       1      14.43145431
       2       1.04517663     0.75653786
    ==== End of matrix output ====

 DIIS C vector; C2DIIS = F, LAMBDA = -7.50D-01
   -0.022037    1.022037
* Read MO coefficients from SIRIUS.RST with label "NEWORB  " and header info:  4Dec18  DIIS   2
      Virial theorem: -V/T =      2.003382
@      MULPOP N      -0.63; H       0.19; H       0.20; H       0.21; O      -0.56; O      -0.59; O      -0.54; O      -0.56; H       0.27; H       0.31; 
@             H       0.28; H       0.27; H       0.29; H       0.28; H       0.30; H       0.27; 
   2  Level shift: doubly occupied orbital energies shifted by -5.00D-02

 DIIS Fock eigenvalues in symmetry 1
      -20.64145      -20.63488      -20.61139      -20.61048      -15.47543
       -1.40087       -1.37757       -1.37728       -1.37474       -1.14071
       -0.76752       -0.74163       -0.73841       -0.73599       -0.65789
       -0.64064       -0.63818       -0.63593       -0.62667       -0.61622
       -0.57767       -0.57110       -0.56938       -0.55605       -0.44485
        0.00000        0.15289        0.17750        0.19509        0.19828
        0.24690        0.25898        0.27075        0.29191        0.31469
        0.33100        0.35495        0.49975        0.51859        0.55713
        0.58480        0.59369        0.60663        0.61239        0.61951
        0.62898        0.63321        0.71277        0.91244        0.93429
        0.96070        0.98343        0.99374        1.01259        1.02267
        1.03967        1.06818        1.09360        1.10445        1.10815
        1.12507        1.15361        1.16718        1.22160        1.29797
        1.32680        1.35789        1.41002        1.44104        1.44598
        1.49662        1.51433        1.51680        1.52479        1.52777
        1.54424        1.55359        1.58604        1.71104        1.71910
        1.72511        1.74992        1.86317        1.88846        1.89674
        1.93891        1.94817        1.96530        1.97818        2.05256
        2.20747        2.22136        2.25456        2.25951        2.27567
        2.28000        2.33955        2.37500        2.39184        2.41181
        2.54610        2.61452        2.63714        2.67169        2.71529
        2.73156        2.77543        2.81389        2.81872        2.84288
        2.84672        2.94531        3.04938        3.06130        3.22227
        3.42876        3.44882        3.45551        3.47470        3.48733
        3.48954        3.52997        3.53496        3.54244        3.57177
        3.63436        3.65672        3.68263        3.72194        3.98249
        3.99731        4.01762        4.01869        4.17950        4.21038
        4.23659        4.26937        4.59861        5.22840        5.29700
        5.31090        5.34576        5.38016        5.40427        5.68815
        5.70731        5.77832        5.79477        6.04596        6.04930
        6.14045        6.20346       37.16163       51.46669       51.47102
       51.51840       51.54453
 Time used in FCKEIG, thr_jaco:   2.80D-02  3.60D-02  3.79D-05
 CPU and wall times used in FCKEIG, THR_FCKEIG:   2.80D-02  3.60D-02  8.70D-03
 -----------------------------------------------------------------------------

 *** DIIS iteration number    3
 RDSUPM called. NFMAT, ISYMDM(1:NFMAT)                     1
                     1

 ITDIIS, energy, error norm, change in energy, scr.thr., difden:
@ DIIS iter.   3    -360.735999798        2.81878D-01   -5.67D-02  -20    F

 (DIIS_RED) Control Parameters C2DIIS =         F NEVC =    3


 (DIIS_RED) B matrix:

               Column   1     Column   2     Column   3
       1      14.43145431
       2       1.04517663     0.75653786
       3       0.48969790     0.11211230     0.07945532
    ==== End of matrix output ====

 DIIS C vector; C2DIIS = F, LAMBDA = -6.65D-02
   -0.029220   -0.028410    1.057630
* Read MO coefficients from SIRIUS.RST with label "NEWORB  " and header info:  4Dec18  DIIS   3
      Virial theorem: -V/T =      2.001678
@      MULPOP N      -0.58; H       0.17; H       0.19; H       0.20; O      -0.62; O      -0.66; O      -0.59; O      -0.60; H       0.30; H       0.35; 
@             H       0.32; H       0.30; H       0.31; H       0.30; H       0.32; H       0.29; 
   3  Level shift: doubly occupied orbital energies shifted by -2.50D-02

 DIIS Fock eigenvalues in symmetry 1
      -20.56302      -20.55116      -20.54279      -20.53202      -15.55958
       -1.36735       -1.33382       -1.33009       -1.32449       -1.14377
       -0.73183       -0.69938       -0.69319       -0.68587       -0.64258
       -0.62192       -0.60280       -0.58475       -0.58018       -0.57155
       -0.53380       -0.51736       -0.50811       -0.50749       -0.43933
        0.00000        0.15756        0.18158        0.19997        0.20272
        0.24862        0.26270        0.27514        0.29767        0.31783
        0.33482        0.35701        0.50134        0.52558        0.56818
        0.59234        0.60267        0.61451        0.62073        0.62840
        0.63520        0.64111        0.71593        0.91147        0.94790
        0.97322        0.99515        1.00711        1.01759        1.02992
        1.05224        1.07915        1.10332        1.11599        1.12288
        1.13781        1.16550        1.17981        1.21993        1.30753
        1.33932        1.36460        1.41426        1.45039        1.45297
        1.50892        1.52429        1.52743        1.53325        1.53841
        1.55573        1.56524        1.59819        1.72271        1.72907
        1.73305        1.75861        1.86790        1.89420        1.90360
        1.94604        1.95614        1.96838        1.98221        2.05727
        2.22352        2.23787        2.24910        2.26987        2.27435
        2.28600        2.35597        2.39133        2.40557        2.42205
        2.55202        2.62287        2.64729        2.68143        2.72217
        2.73790        2.78356        2.82013        2.82676        2.85143
        2.85544        2.94239        3.02982        3.04358        3.20565
        3.45407        3.47319        3.48410        3.49062        3.50821
        3.52060        3.52416        3.55021        3.55853        3.55857
        3.66416        3.69222        3.70737        3.73814        4.01789
        4.02512        4.03427        4.04240        4.21077        4.24837
        4.26322        4.28645        4.54939        5.19319        5.30610
        5.32967        5.35120        5.41352        5.43142        5.73969
        5.74577        5.79795        5.82403        6.08667        6.09684
        6.17019        6.22167       37.05613       51.52549       51.55445
       51.56204       51.56754
 Time used in FCKEIG, thr_jaco:   2.30D-02  3.20D-02  1.23D-05
 CPU and wall times used in FCKEIG, THR_FCKEIG:   2.30D-02  3.20D-02  2.82D-03
 -----------------------------------------------------------------------------

 *** DIIS iteration number    4
 RDSUPM called. NFMAT, ISYMDM(1:NFMAT)                     1
                     1

 ITDIIS, energy, error norm, change in energy, scr.thr., difden:
@ DIIS iter.   4    -360.742560830        1.14814D-01   -6.56D-03  -20    F

 (DIIS_RED) Control Parameters C2DIIS =         F NEVC =    4


 (DIIS_RED) B matrix:

               Column   1     Column   2     Column   3     Column   4
       1      14.43145431
       2       1.04517663     0.75653786
       3       0.48969790     0.11211230     0.07945532
       4      -0.01315796     0.06063871    -0.00543867     0.01318228
    ==== End of matrix output ====

 DIIS C vector; C2DIIS = F, LAMBDA = -3.83D-03
   -0.000155   -0.099776    0.248231    0.851701
* Read MO coefficients from SIRIUS.RST with label "NEWORB  " and header info:  4Dec18  DIIS   4
      Virial theorem: -V/T =      2.002417
@      MULPOP N      -0.64; H       0.19; H       0.20; H       0.22; O      -0.63; O      -0.65; O      -0.60; O      -0.61; H       0.30; H       0.35; 
@             H       0.32; H       0.30; H       0.32; H       0.30; H       0.33; H       0.29; 
   4  Level shift: doubly occupied orbital energies shifted by -1.25D-02

 DIIS Fock eigenvalues in symmetry 1
      -20.56065      -20.55861      -20.55120      -20.54652      -15.50659
       -1.35858       -1.32725       -1.32508       -1.32201       -1.11851
       -0.72243       -0.69153       -0.68644       -0.68044       -0.62106
       -0.59976       -0.59139       -0.58020       -0.57230       -0.56317
       -0.52214       -0.50878       -0.50324       -0.49752       -0.41162
        0.00000        0.15762        0.18062        0.19891        0.20155
        0.24855        0.26270        0.27480        0.29703        0.31975
        0.33591        0.35918        0.50590        0.52709        0.56747
        0.59204        0.60255        0.61413        0.61948        0.62695
        0.63333        0.63959        0.71898        0.91752        0.94762
        0.97314        0.99951        1.00397        1.01939        1.03178
        1.05099        1.07834        1.10350        1.11482        1.11977
        1.13584        1.16412        1.17769        1.22265        1.30627
        1.33747        1.36647        1.41750        1.45041        1.45387
        1.50707        1.52295        1.52516        1.53113        1.53627
        1.55401        1.56328        1.59637        1.72089        1.72794
        1.73112        1.75799        1.86989        1.89657        1.90407
        1.94558        1.95588        1.97282        1.98435        2.06025
        2.22002        2.23403        2.25644        2.26996        2.27934
        2.28362        2.35199        2.38791        2.40210        2.41931
        2.55482        2.62051        2.64614        2.68056        2.72369
        2.74066        2.78466        2.81939        2.82636        2.85111
        2.85422        2.94927        3.04298        3.05601        3.21688
        3.44971        3.47175        3.47537        3.48786        3.51060
        3.51347        3.52477        3.55215        3.55572        3.56335
        3.65745        3.68310        3.70230        3.73552        4.00827
        4.01842        4.03111        4.03667        4.20364        4.23854
        4.25764        4.28378        4.57186        5.21123        5.32296
        5.32558        5.33634        5.40436        5.42307        5.72341
        5.73466        5.79350        5.81611        6.07493        6.08082
        6.16159        6.21693       37.09578       51.50389       51.52345
       51.54614       51.55950
 Time used in FCKEIG, thr_jaco:   2.30D-02  2.80D-02  5.00D-06
 CPU and wall times used in FCKEIG, THR_FCKEIG:   2.40D-02  2.80D-02  1.15D-03
 -----------------------------------------------------------------------------

 *** DIIS iteration number    5
 RDSUPM called. NFMAT, ISYMDM(1:NFMAT)                     1
                     1

 ITDIIS, energy, error norm, change in energy, scr.thr., difden:
@ DIIS iter.   5    -360.743513992        2.39781D-02   -9.53D-04  -20    F

 (DIIS_RED) Control Parameters C2DIIS =         F NEVC =    5


 (DIIS_RED) B matrix:

               Column   1     Column   2     Column   3     Column   4     Column   5
       1      14.43145431
       2       1.04517663     0.75653786
       3       0.48969790     0.11211230     0.07945532
       4      -0.01315796     0.06063871    -0.00543867     0.01318228
       5       0.01379774     0.00633311     0.00470270     0.00039440     0.00057495
    ==== End of matrix output ====

 DIIS C vector; C2DIIS = F, LAMBDA = -2.66D-04
    0.001288    0.012899   -0.101964   -0.115931    1.203709
* Read MO coefficients from SIRIUS.RST with label "NEWORB  " and header info:  4Dec18  DIIS   5
      Virial theorem: -V/T =      2.002020
@      MULPOP N      -0.63; H       0.18; H       0.20; H       0.22; O      -0.64; O      -0.67; O      -0.61; O      -0.62; H       0.30; H       0.36; 
@             H       0.33; H       0.30; H       0.32; H       0.31; H       0.33; H       0.30; 

 DIIS Fock eigenvalues in symmetry 1
      -20.54512      -20.54441      -20.53360      -20.53141      -15.49272
       -1.34582       -1.31383       -1.31131       -1.30740       -1.10564
       -0.71019       -0.67870       -0.67334       -0.66657       -0.60850
       -0.58708       -0.57902       -0.56619       -0.55917       -0.55010
       -0.50854       -0.49422       -0.48788       -0.48337       -0.39780
        0.00000        0.15763        0.18044        0.19894        0.20154
        0.24838        0.26268        0.27488        0.29709        0.32000
        0.33614        0.35931        0.50614        0.52725        0.56801
        0.59205        0.60267        0.61414        0.61976        0.62698
        0.63295        0.63955        0.71916        0.91828        0.94822
        0.97387        1.00038        1.00546        1.02025        1.03268
        1.05176        1.07866        1.10408        1.11503        1.12043
        1.13633        1.16466        1.17810        1.22306        1.30652
        1.33792        1.36684        1.41798        1.45115        1.45430
        1.50757        1.52261        1.52501        1.53061        1.53602
        1.55438        1.56332        1.59644        1.72124        1.72782
        1.73062        1.75786        1.86980        1.89645        1.90383
        1.94525        1.95567        1.97294        1.98425        2.06038
        2.22024        2.23439        2.25655        2.26977        2.27927
        2.28306        2.35210        2.38848        2.40210        2.41883
        2.55487        2.61991        2.64621        2.68025        2.72356
        2.74059        2.78437        2.81871        2.82594        2.85094
        2.85373        2.94937        3.04322        3.05624        3.21712
        3.45102        3.47259        3.47748        3.48809        3.51196
        3.51510        3.52555        3.55290        3.55578        3.56388
        3.65869        3.68513        3.70310        3.73560        4.01028
        4.01951        4.03118        4.03751        4.20496        4.24071
        4.25854        4.28391        4.57258        5.21186        5.32387
        5.32646        5.33912        5.40619        5.42504        5.72638
        5.73661        5.79391        5.81738        6.07675        6.08349
        6.16268        6.21705       37.09714       51.50758       51.52846
       51.54871       51.56048
 Time used in FCKEIG, thr_jaco:   3.50D-02  4.20D-02  1.04D-06
 CPU and wall times used in FCKEIG, THR_FCKEIG:   3.50D-02  4.20D-02  2.40D-04
 -----------------------------------------------------------------------------

 *** DIIS iteration number    6
 RDSUPM called. NFMAT, ISYMDM(1:NFMAT)                     1
                     1

 ITDIIS, energy, error norm, change in energy, scr.thr., difden:
@ DIIS iter.   6    -360.743603368        6.82972D-03   -8.94D-05  -20    F

 (DIIS_RED) Control Parameters C2DIIS =         F NEVC =    6


 (DIIS_RED) B matrix:

               Column   1     Column   2     Column   3     Column   4     Column   5     Column   6
       1      14.43145431
       2       1.04517663     0.75653786
       3       0.48969790     0.11211230     0.07945532
       4      -0.01315796     0.06063871    -0.00543867     0.01318228
       5       0.01379774     0.00633311     0.00470270     0.00039440     0.00057495
       6      -0.00246803    -0.00020446     0.00042146     0.00013405     0.00007846     0.00004665
    ==== End of matrix output ====

 DIIS C vector; C2DIIS = F, LAMBDA = -3.20D-05
    0.000403    0.007215   -0.025903   -0.053520    0.079624    0.992181
* Read MO coefficients from SIRIUS.RST with label "NEWORB  " and header info:  4Dec18  DIIS   6
      Virial theorem: -V/T =      2.002158
@      MULPOP N      -0.63; H       0.18; H       0.20; H       0.22; O      -0.64; O      -0.67; O      -0.61; O      -0.62; H       0.31; H       0.36; 
@             H       0.33; H       0.30; H       0.32; H       0.31; H       0.33; H       0.30; 

 DIIS Fock eigenvalues in symmetry 1
      -20.54586      -20.54548      -20.53487      -20.53241      -15.49563
       -1.34590       -1.31413       -1.31172       -1.30762       -1.10654
       -0.71038       -0.67906       -0.67379       -0.66683       -0.60926
       -0.58786       -0.57938       -0.56659       -0.55975       -0.55060
       -0.50851       -0.49450       -0.48798       -0.48357       -0.39853
        0.00000        0.15754        0.18036        0.19885        0.20147
        0.24828        0.26259        0.27480        0.29701        0.31985
        0.33600        0.35910        0.50584        0.52704        0.56794
        0.59192        0.60249        0.61392        0.61965        0.62680
        0.63282        0.63938        0.71889        0.91784        0.94790
        0.97380        0.99998        1.00534        1.01990        1.03231
        1.05150        1.07846        1.10379        1.11482        1.12018
        1.13610        1.16439        1.17781        1.22265        1.30631
        1.33774        1.36652        1.41759        1.45090        1.45395
        1.50749        1.52242        1.52476        1.53042        1.53579
        1.55429        1.56310        1.59618        1.72117        1.72758
        1.73045        1.75760        1.86950        1.89614        1.90355
        1.94505        1.95547        1.97258        1.98396        2.06008
        2.21996        2.23416        2.25592        2.26946        2.27868
        2.28277        2.35177        2.38828        2.40182        2.41862
        2.55450        2.61972        2.64613        2.67997        2.72324
        2.74026        2.78410        2.81846        2.82570        2.85082
        2.85352        2.94882        3.04229        3.05534        3.21629
        3.45046        3.47212        3.47715        3.48794        3.51139
        3.51466        3.52467        3.55248        3.55563        3.56288
        3.65820        3.68482        3.70274        3.73545        4.00995
        4.01903        4.03101        4.03709        4.20445        4.24035
        4.25814        4.28374        4.57101        5.21044        5.32275
        5.32608        5.33840        5.40557        5.42425        5.72577
        5.73583        5.79366        5.81683        6.07595        6.08288
        6.16211        6.21681       37.09430       51.50615       51.52721
       51.54772       51.56012
 Time used in FCKEIG, thr_jaco:   2.20D-02  2.90D-02  2.97D-07
 CPU and wall times used in FCKEIG, THR_FCKEIG:   2.20D-02  2.90D-02  6.83D-05
 -----------------------------------------------------------------------------

 *** DIIS iteration number    7
 RDSUPM called. NFMAT, ISYMDM(1:NFMAT)                     1
                     1

 ITDIIS, energy, error norm, change in energy, scr.thr., difden:
@ DIIS iter.   7    -360.743609172        2.65547D-03   -5.80D-06  -20    F

 (DIIS_RED) Control Parameters C2DIIS =         F NEVC =    7


 (DIIS_RED) B matrix:

               Column   1     Column   2     Column   3     Column   4     Column   5     Column   6
       1      14.43145431
       2       1.04517663     0.75653786
       3       0.48969790     0.11211230     0.07945532
       4      -0.01315796     0.06063871    -0.00543867     0.01318228
       5       0.01379774     0.00633311     0.00470270     0.00039440     0.00057495
       6      -0.00246803    -0.00020446     0.00042146     0.00013405     0.00007846     0.00004665
       7       0.00110566     0.00007087     0.00007488    -0.00000614     0.00003505    -0.00000006

               Column   7
       7       0.00000705
    ==== End of matrix output ====

 DIIS C vector; C2DIIS = F, LAMBDA = -1.26D-06
   -0.000225   -0.002075    0.015225    0.020509   -0.188188    0.127469    1.027284
* Read MO coefficients from SIRIUS.RST with label "NEWORB  " and header info:  4Dec18  DIIS   7
      Virial theorem: -V/T =      2.002125
@      MULPOP N      -0.63; H       0.18; H       0.20; H       0.22; O      -0.64; O      -0.67; O      -0.61; O      -0.62; H       0.31; H       0.36; 
@             H       0.33; H       0.30; H       0.32; H       0.31; H       0.33; H       0.30; 

 DIIS Fock eigenvalues in symmetry 1
      -20.54543      -20.54534      -20.53430      -20.53211      -15.49488
       -1.34585       -1.31399       -1.31151       -1.30734       -1.10629
       -0.71037       -0.67898       -0.67366       -0.66662       -0.60912
       -0.58770       -0.57938       -0.56642       -0.55966       -0.55055
       -0.50845       -0.49425       -0.48767       -0.48340       -0.39825
        0.00000        0.15757        0.18037        0.19890        0.20152
        0.24830        0.26261        0.27485        0.29704        0.31989
        0.33606        0.35914        0.50593        0.52711        0.56806
        0.59196        0.60255        0.61397        0.61974        0.62685
        0.63283        0.63941        0.71896        0.91801        0.94798
        0.97386        1.00014        1.00552        1.02005        1.03247
        1.05160        1.07851        1.10391        1.11488        1.12030
        1.13621        1.16450        1.17790        1.22279        1.30639
        1.33784        1.36662        1.41772        1.45104        1.45407
        1.50761        1.52243        1.52479        1.53041        1.53580
        1.55440        1.56315        1.59623        1.72127        1.72762
        1.73045        1.75764        1.86956        1.89619        1.90359
        1.94508        1.95551        1.97265        1.98402        2.06016
        2.22005        2.23427        2.25605        2.26950        2.27879
        2.28279        2.35183        2.38842        2.40187        2.41863
        2.55457        2.61972        2.64623        2.67999        2.72327
        2.74030        2.78411        2.81846        2.82572        2.85088
        2.85353        2.94892        3.04251        3.05555        3.21648
        3.45068        3.47227        3.47742        3.48797        3.51163
        3.51490        3.52494        3.55261        3.55566        3.56314
        3.65841        3.68510        3.70287        3.73549        4.01021
        4.01921        4.03104        4.03723        4.20467        4.24065
        4.25829        4.28379        4.57142        5.21079        5.32306
        5.32618        5.33878        5.40580        5.42454        5.72614
        5.73612        5.79371        5.81700        6.07625        6.08324
        6.16228        6.21685       37.09503       51.50666       51.52778
       51.54801       51.56017
 Time used in FCKEIG, thr_jaco:   2.30D-02  3.20D-02  1.16D-07
 CPU and wall times used in FCKEIG, THR_FCKEIG:   2.30D-02  3.20D-02  2.66D-05
 -----------------------------------------------------------------------------

 *** DIIS iteration number    8
 RDSUPM called. NFMAT, ISYMDM(1:NFMAT)                     1
                     1

 ITDIIS, energy, error norm, change in energy, scr.thr., difden:
@ DIIS iter.   8    -360.743609845        3.57900D-04   -6.74D-07  -20    F

 (DIIS_RED) Control Parameters C2DIIS =         F NEVC =    8


 (DIIS_RED) B matrix:

               Column   1     Column   2     Column   3     Column   4     Column   5     Column   6
       1      14.43145431
       2       1.04517663     0.75653786
       3       0.48969790     0.11211230     0.07945532
       4      -0.01315796     0.06063871    -0.00543867     0.01318228
       5       0.01379774     0.00633311     0.00470270     0.00039440     0.00057495
       6      -0.00246803    -0.00020446     0.00042146     0.00013405     0.00007846     0.00004665
       7       0.00110566     0.00007087     0.00007488    -0.00000614     0.00003505    -0.00000006
       8       0.00000398    -0.00000045    -0.00000300     0.00000529     0.00000082     0.00000138

               Column   7     Column   8
       7       0.00000705
       8       0.00000018     0.00000013
    ==== End of matrix output ====

 DIIS C vector; C2DIIS = F, LAMBDA = -5.58D-08
    0.000024    0.000232   -0.002164   -0.002894    0.034520   -0.062941   -0.180453    1.213676
* Read MO coefficients from SIRIUS.RST with label "NEWORB  " and header info:  4Dec18  DIIS   8
      Virial theorem: -V/T =      2.002146
@      MULPOP N      -0.63; H       0.18; H       0.20; H       0.22; O      -0.64; O      -0.67; O      -0.61; O      -0.62; H       0.31; H       0.36; 
@             H       0.33; H       0.30; H       0.32; H       0.31; H       0.33; H       0.30; 

 DIIS Fock eigenvalues in symmetry 1
      -20.54541      -20.54541      -20.53429      -20.53213      -15.49493
       -1.34585       -1.31400       -1.31153       -1.30733       -1.10630
       -0.71036       -0.67898       -0.67367       -0.66660       -0.60913
       -0.58772       -0.57940       -0.56643       -0.55970       -0.55058
       -0.50845       -0.49427       -0.48766       -0.48340       -0.39826
        0.00000        0.15757        0.18037        0.19889        0.20152
        0.24830        0.26261        0.27485        0.29703        0.31988
        0.33606        0.35913        0.50592        0.52711        0.56806
        0.59196        0.60254        0.61396        0.61974        0.62684
        0.63282        0.63941        0.71895        0.91800        0.94796
        0.97386        1.00013        1.00552        1.02004        1.03246
        1.05158        1.07851        1.10390        1.11488        1.12029
        1.13621        1.16450        1.17789        1.22278        1.30638
        1.33783        1.36661        1.41770        1.45104        1.45406
        1.50761        1.52243        1.52477        1.53041        1.53579
        1.55440        1.56314        1.59622        1.72127        1.72761
        1.73044        1.75763        1.86955        1.89617        1.90358
        1.94508        1.95551        1.97264        1.98401        2.06015
        2.22004        2.23427        2.25603        2.26949        2.27878
        2.28278        2.35181        2.38841        2.40186        2.41863
        2.55456        2.61971        2.64623        2.67998        2.72326
        2.74028        2.78410        2.81846        2.82571        2.85087
        2.85353        2.94891        3.04249        3.05553        3.21645
        3.45065        3.47225        3.47742        3.48797        3.51160
        3.51489        3.52492        3.55260        3.55566        3.56312
        3.65838        3.68510        3.70286        3.73549        4.01021
        4.01918        4.03104        4.03721        4.20464        4.24065
        4.25828        4.28379        4.57139        5.21076        5.32304
        5.32618        5.33878        5.40577        5.42450        5.72614
        5.73608        5.79371        5.81699        6.07621        6.08324
        6.16226        6.21685       37.09499       51.50659       51.52778
       51.54800       51.56019
 Time used in FCKEIG, thr_jaco:   2.20D-02  2.70D-02  1.56D-08
 CPU and wall times used in FCKEIG, THR_FCKEIG:   2.20D-02  2.70D-02  3.58D-06
 -----------------------------------------------------------------------------

 *** DIIS iteration number    9
 RDSUPM called. NFMAT, ISYMDM(1:NFMAT)                     1
                     1

 ITDIIS, energy, error norm, change in energy, scr.thr., difden:
@ DIIS iter.   9    -360.743609864        9.12440D-05   -1.89D-08  -20    F

 (DIIS_RED) Control Parameters C2DIIS =         F NEVC =    8


 (DIIS_RED) B matrix:

               Column   1     Column   2     Column   3     Column   4     Column   5     Column   6
       1       0.00000001
       2       0.00000350     0.75653786
       3       0.00000041     0.11211230     0.07945532
       4       0.00000006     0.06063871    -0.00543867     0.01318228
       5       0.00000016     0.00633311     0.00470270     0.00039440     0.00057495
[...]
 | 1 1 1 1 |  27   1  12   1 |     1479        1 |      1092982 |   -0.079871  |
 | 1 1 1 1 |  29   1  12   1 |     1481        1 |      1095941 |   -0.120135  |
 | 1 1 1 1 |  30   1  12   1 |     1482        1 |      1097422 |   -0.068542  |
 | 1 1 1 1 |  10   1  21   1 |     2650        1 |      3509926 |    0.068403  |
 | 1 1 1 1 |  11   1  21   1 |     2651        1 |      3512576 |    0.094558  |
 | 1 1 1 1 |  24   1  21   1 |     2664        1 |      3547117 |    0.217005  |
 | 1 1 1 1 | 113   1  21   1 |     2753        1 |      3788129 |    0.111456  |
 | 1 1 1 1 |   1  24  21   1 |     2641       24 |      3486144 |   -0.085688  |
 +=============================================================================+


          Norm of Printed Amplitude Vector :             0.8747

          Printed all single excitations greater than 0.379668

          Printed all double excitations greater than 0.065070



+======================================================================+
| contributions of excitation levels to right eigenvectors as computed |
| from the (RE|RE) self overlap                                        |
+----------------------------------------------------------------------+
| sym | multi | state |    E / eV  | % singles | % doubles | % triples |
+======================================================================+
|    1|   1   |   1   |  405.54665 |  88.2529  |  11.7471  |   0.0000  |
+======================================================================+





+======================================================================+
| contributions of excitation levels to excited states as computed     |
| from the (LE|RE) overlap                                             |
+----------------------------------------------------------------------+
| sym | multi | state |    E / eV  | % singles | % doubles | % triples |
+======================================================================+
|    1|   1   |   1   |  405.54665 |  79.0070  |  20.9930  |   0.0000  |
+======================================================================+



 --------------------------
 Symmetry class Nr.:     1
 Multiplicity      :     3
 --------------------------

 Length of Excitation vectors in this class is:   7689528
 No Excitation Energies calculated in this symmetry class
     

   *******************************************************************
   *                                                                 *
   *--------   OUTPUT FROM PROPERTY AND SYMMETRY ANALYSIS   ---------*
   *                                                                 *
   *******************************************************************



                         +-------------------------------+
                         ! REQUESTED PROPERTY OPERATORS: !
                         +-------------------------------+

             Index   Oper. Label  Symmetry  Transp.  PDBS  Atom
             --------------------------------------------------
                1     HAM0            1        1      T      0
                2     XDIPLEN         1        1      F      0
                3     YDIPLEN         1        1      F      0
                4     ZDIPLEN         1        1      F      0
             --------------------------------------------------




                         +-------------------------------+
                         ! REQUESTED EXPECTATION VALUES: !
                         +-------------------------------+

                       Index   Oper. Label  Symmetry
                       -----------------------------
                       -----------------------------




                       +------------------------------------+
                       ! REQUESTED EFFECTIVE FOCK MATRICES: !
                       +------------------------------------+

                       Index   Oper. Label  Symmetry
                       -----------------------------
                       -----------------------------




                        +----------------------------------+
                        ! REQUESTED FIRST ORDER M-VECTORS: !
                        +----------------------------------+

               Index   State Symmetry  Frequency
               --------------------------------------------------
                  1             1    1     1.490357D+01
               --------------------------------------------------


      

    *******************************************************************
    *          SOLVING COUPLED CLUSTER RESPONSE EQUATIONS             *
    *******************************************************************



 
 +======================================================================+
 !                     RHS & ETA VECTORS TO COMPUTE:                    !
 +======================================================================+
 | TYPE | # VEC. |  NEEDED FOR:                                         |
 +----------------------------------------------------------------------+
 +======================================================================+



 +======================================================================+
 !                       LINEAR EQUATIONS TO SOLVE:                     !
 +======================================================================+
 | TYPE | # VEC. |  EQUATION:                                           |
 +----------------------------------------------------------------------+
 |  M1  |    1   |  first-order ground - excited state multipliers      |
 +======================================================================+



 +======================================================================+
 !                F MATRIX TRANSFORMATIONS TO COMPUTE:                  !
 +======================================================================+
 | TYPE | # VEC. |  TRANSFORMED:                                        |
 +----------------------------------------------------------------------+
 |  FR  |    1   |  right eigenvectors (RE)                             |
 +======================================================================+





 Testing R1 list: 

 List nr.  Label     Symmetry      Frequency      T1-norm        T2-norm


 Testing L1 list: 

 List nr.  Label     Symmetry      Frequency      T1-norm        T2-norm
  Solvent 1-order response equations converged in                     0 
  solvent iterations
 SONIAPRI                     0
 CCEQ_STR: CVSEPARATION =  T
 CCEQ_STR: IONIZATION =  T
 CCEQ_STR: REMOVE_CORE =  F
 could not find required file CCM1_1___1
 IOPTSV is    33 ... program continues nevertheless.
 Vector nr.  1 of type M1  and symmetry  1 was not found on file.
     M1  start vector nr.  1 of symmetry  1 generated from gradient
 CCEQ_STR: freeze VALENCE OR VIRT
 CCEQ_SOL: CVSEPARA=     T
 CCEQ_SOL: LIONISAT=     T
 CCEQ_SOL: REMOVE_CORE =  F



 ----- COUPLED CLUSTER RESPONSE SOLVER -----

    Iter  #Vectors  time (min)   residual
    --------------------------------------
 CCRED CVS/IONIS sigma_                     1 
 project out valence occupied or virtual
      1       1         1.56     0.38E+00
 CCRED CVS/IONIS sigma_                     2 
 project out valence occupied or virtual
      2       1         1.56     0.81E-01
 CCRED CVS/IONIS sigma_                     3 
 project out valence occupied or virtual
      3       1         1.47     0.87E-02
 CCRED CVS/IONIS sigma_                     4 
 project out valence occupied or virtual
                    -1  vectors with norm le:  1.000000000000000E-035  REMOVED

 CCORT,**WARNING**  number vectors added is zero after check for vector norm , NBADD :    0

 CCORT, number vectors added is zero , NBADD :    0

 CCORT, number vectors added is zero , NBADD :    0

 CCORT, number vectors added is zero , NBADD :    0

 CCORT, number vectors added is zero , NBADD :    0

 *** MICROITERATIONS STOPPED DUE TO LINEAR DEPENDENCE BETWEEN ALL NEW TRIAL VECTORS
                     0  trial vectors converged
  LINEAR DEPENDENCE BETWEEN                     1  NON CONVERGED TRIAL VECTORS
      4       1         1.45     0.78E-03

 ***  CCEQ_SOL -MICROITERATIONS STOPPED  
     LINEAR DEPENDENCE BETWEEN ALL NEW TRIAL VECTORS
    --------------------------------------
    converged in  4 iterations
    threshold:    0.10E-08


         Routine          Time (min)
         ---------------------------
         CC_TRDRV            6.03
         CCRED               0.03
         CCNEX               0.05
         ---------------------------
         Total time          6.11


  Total CPU  time used in CCEQ_SOLV:  6 minutes  7 seconds
  Total wall time used in CCEQ_SOLV:  6 minutes 53 seconds


 xxxxxxxxxxxxxxxxxxxxxxxxxxxxxxxxxxxxx

 
 Solution of CC response equations completed.
 

 *******************************************************************
 *                                                                 *
 *--------  OUTPUT FROM COUPLED CLUSTER LINEAR RESPONSE   ---------*
 *                                                                 *
 *--------      CALCULATION OF SECOND ORDER RESIDUES      ---------*
 *                                                                 *
 *******************************************************************



                  +---------------------------------------------+
                  ! CC_SOPR: Calculation of CCSD       Residues !
                  +---------------------------------------------+

 Doing the Mf*CsiA
 Doing the Mf*CsiA
 Doing the Mf*CsiA


 CCSD  Right transition moments in atomic units:
 -----------------------------------------------

  1      14.903566  <XDIPLEN |f> =      -0.00000000
  1      14.903566  <YDIPLEN |f> =      -0.00000001
  1      14.903566  <ZDIPLEN |f> =       0.00000000


 CCSD  Left  transition moments in atomic units:
 -----------------------------------------------

  1      14.903566  <f|XDIPLEN > =      -0.00000000
  1      14.903566  <f|YDIPLEN > =      -0.00000000
  1      14.903566  <f|ZDIPLEN > =       0.00000000


 CCSD  linear response residue property in atomic units:
 -------------------------------------------------------

 RES{<<XDIPLEN ,XDIPLEN >>(14.903566)} =     0.00000000 (   0.00000000)
 RES{<<XDIPLEN ,YDIPLEN >>(14.903566)} =     0.00000000 (   0.00000000)
 RES{<<XDIPLEN ,ZDIPLEN >>(14.903566)} =    -0.00000000 (  -0.00000000)
 RES{<<YDIPLEN ,XDIPLEN >>(14.903566)} =     0.00000000 (   0.00000000)
 RES{<<YDIPLEN ,YDIPLEN >>(14.903566)} =     0.00000000 (   0.00000000)
 RES{<<YDIPLEN ,ZDIPLEN >>(14.903566)} =    -0.00000000 (  -0.00000000)
 RES{<<ZDIPLEN ,XDIPLEN >>(14.903566)} =    -0.00000000 (  -0.00000000)
 RES{<<ZDIPLEN ,YDIPLEN >>(14.903566)} =    -0.00000000 (  -0.00000000)
 RES{<<ZDIPLEN ,ZDIPLEN >>(14.903566)} =     0.00000000 (   0.00000000)


 CCSD  Transition strength matrix for state nr.  1 of symmetry 1
 CCSD  excitation energy:14.90356580

 Gauge: length

               Column   1     Column   2     Column   3
       1     4.768715D-18   9.077404D-18  -4.502359D-18
       2     9.077404D-18   1.727746D-17  -8.579285D-18
       3    -4.502359D-18  -8.579285D-18   4.203487D-18
    ==== End of matrix output ====

 Principal values of diagonalized transition strength matrix:

             a.u.               
 1       0.00000000
 2       0.00000000
 3       0.00000000

 Principal axis of diagonalized transition strength matrix:


               Column   1     Column   2     Column   3
       1       1.00000000     0.00000000     0.00000000
       2       0.00000000     1.00000000     0.00000000
       3       0.00000000     0.00000000     1.00000000
    ==== End of matrix output ====


 CCSD   oscillator strength matrix for state nr.  1 of symmetry 1
 CCSD  excitation energy:14.90356580


               Column   1     Column   2     Column   3
       1     4.738058D-17   9.019046D-17  -4.473413D-17
       2     9.019046D-17   1.716638D-16  -8.524129D-17
       3    -4.473413D-17  -8.524129D-17   4.176463D-17
    ==== End of matrix output ====

 Principal values of diagonalized oscillator strength matrix:

             a.u.               
 1       0.00000000
 2       0.00000000
 3       0.00000000

 Principal axis of diagonalized oscillator strength matrix:


               Column   1     Column   2     Column   3
       1       1.00000000     0.00000000     0.00000000
       2       0.00000000     1.00000000     0.00000000
       3       0.00000000     0.00000000     1.00000000
    ==== End of matrix output ====

  Total time for      9 linear response residues:       2.91 seconds.
  

 *******************************************************************************
 *******************************************************************************
 *                                                                             *
 *                                                                             *
 *                   SUMMARY OF COUPLED CLUSTER CALCULATION                    *
 *                                                                             *
 *                                                                             *
 *******************************************************************************
 *******************************************************************************

                                                                                
                                                                                
            Total SCF   energy:                  -360.7436098651                
            Total MP2   energy:                  -361.8413101828                
            Total CCSD  energy:                  -361.8823511401                
                                                                                
                                                                                
            Total SCF   energy:                  -360.7436098651                
            Total RSTAR energy:                  -361.8823511401                
            Total CCSD  energy:                  -361.8824819131                
                                                                                
                                                                                
            Total SCF   energy:                  -360.7436098651                
            Total RSTAR energy:                  -361.8824819131                
            Total CCSD  energy:                  -361.8824825806                
                                                                                
                                                                                
            Total SCF   energy:                  -360.7436098651                
            Total RSTAR energy:                  -361.8824825806                
            Total CCSD  energy:                  -361.8824826773                
                                                                                
                                                                                
            Total SCF   energy:                  -360.7436098651                
            Total RSTAR energy:                  -361.8824826773                
            Total CCSD  energy:                  -361.8824826800                
                                                                                
                                                                                
            Total SCF   energy:                  -360.7436098651                
            Total RSTAR energy:                  -361.8824826800                
            Total CCSD  energy:                  -361.8824826801                
            CCSD Total  energy:                  -362.2457535203                
            CCSD E(QM/MM)     :                    -0.3591998046                
                                                                                
                                                                                
                                                                                
 +=============================================================================+
 |  sym. | Exci.  |        CCSD       Excitation energies            | ||T1||  |
 |(spin, |        +------------------------------------------------------------+
 | spat) |        |     Hartree    |       eV.      |     cm-1       |    %    |
 +=============================================================================+
 | ^1A   |    1   |    14.9035658  |     405.54665  |   3270954.579  |  88.25  |
 +=============================================================================+
                                                                                
                                                                                
     Total energies in Hartree:                                                 
             1 ^1A       -346.9829879188                                        
                                                                                
                                                                                
 +=============================================================================+
 |  sym. | Exci.  |        CCSD       Length   Gauge Oscillator Strength       |
 |(spin, |        +------------------------------------------------------------+
 | spat) |        | Dipole Strength(a.u.) | Oscillator strength  | Direction   |
 +=============================================================================+
 | ^1A   |    1   |        0.0000000      |      0.0000000       |    -        |
 +=============================================================================+

  1 a.u. =        27.21138 eV.  
  1 a.u. =    219474.62934 cm-1.
  

 *******************************************************************************
 *******************************************************************************
 *                                                                             *
 *                                                                             *
 *                      END OF COUPLED CLUSTER CALCULATION                     *
 *                                                                             *
 *                                                                             *
 *******************************************************************************
 *******************************************************************************


 CPU and wall time for CC :    7276.763   14713.308

 
     Date and time (Linux)  : Tue Dec  4 13:31:23 2018
     Host name              : n-62-23-29                              


                      .-------------------------------------.
                      | End of Coupled Cluster Section (CC) |
                      `-------------------------------------'

  Total CPU  time used in DALTON:   2 hours  3 minutes 35 seconds
  Total wall time used in DALTON:   4 hours 11 minutes 53 seconds

 
     Date and time (Linux)  : Tue Dec  4 13:31:23 2018
     Host name              : n-62-23-29                              
  

 +---------------------------------------------------------+ 
 | List of selected calculated molecular properties (a.u.) | 
 +---------------------------------------------------------+ 

  Properties are read from unit number                      4

 CCSD       properties :
 #  1 1 CCSD/MM  Ground state Energy =    -362.2457535203
 #  2 1 E_QM/MM  Ground state Energy =      -0.3591998046
 #  3 1 Sy: 1 Sp: 1 Exc:  1 E_tot:   -346.9829879188 w:     14.9035657970 E_grs:   -361.8865537158
 #  4 1 Exctot   Excited state Energy =    -346.9829879188
 #  5 1 |<O|XDIPLEN |i(14.903566)>| =     0.00000000
 #  7 1 |<O|YDIPLEN |i(14.903566)>| =     0.00000000
 #  9 1 |<O|ZDIPLEN |i(14.903566)>| =     0.00000000

 THE_END   
