

     ************************************************************************
     *************** Dalton - An Electronic Structure Program ***************
     ************************************************************************

    This is output from DALTON release Dalton2017.alpha (2016)
         ( Web site: http://daltonprogram.org )

   ----------------------------------------------------------------------------

    NOTE:
     
    Dalton is an experimental code for the evaluation of molecular
    properties using (MC)SCF, DFT, CI, and CC wave functions.
    The authors accept no responsibility for the performance of
    the code or for the correctness of the results.
     
    The code (in whole or part) is provided under a licence and
    is not to be reproduced for further distribution without
    the written permission of the authors or their representatives.
     
    See the home page "http://daltonprogram.org" for further information.
     
    If results obtained with this code are published,
    the appropriate citations would be both of:
     
       K. Aidas, C. Angeli, K. L. Bak, V. Bakken, R. Bast,
       L. Boman, O. Christiansen, R. Cimiraglia, S. Coriani,
       P. Dahle, E. K. Dalskov, U. Ekstroem,
       T. Enevoldsen, J. J. Eriksen, P. Ettenhuber, B. Fernandez,
       L. Ferrighi, H. Fliegl, L. Frediani, K. Hald, A. Halkier,
       C. Haettig, H. Heiberg, T. Helgaker, A. C. Hennum,
       H. Hettema, E. Hjertenaes, S. Hoest, I.-M. Hoeyvik,
       M. F. Iozzi, B. Jansik, H. J. Aa. Jensen, D. Jonsson,
       P. Joergensen, J. Kauczor, S. Kirpekar,
       T. Kjaergaard, W. Klopper, S. Knecht, R. Kobayashi, H. Koch,
       J. Kongsted, A. Krapp, K. Kristensen, A. Ligabue,
       O. B. Lutnaes, J. I. Melo, K. V. Mikkelsen, R. H. Myhre,
       C. Neiss, C. B. Nielsen, P. Norman, J. Olsen,
       J. M. H. Olsen, A. Osted, M. J. Packer, F. Pawlowski,
       T. B. Pedersen, P. F. Provasi, S. Reine, Z. Rinkevicius,
       T. A. Ruden, K. Ruud, V. Rybkin, P. Salek, C. C. M. Samson,
       A. Sanchez de Meras, T. Saue, S. P. A. Sauer,
       B. Schimmelpfennig, K. Sneskov, A. H. Steindal,
       K. O. Sylvester-Hvid, P. R. Taylor, A. M. Teale,
       E. I. Tellgren, D. P. Tew, A. J. Thorvaldsen, L. Thoegersen,
       O. Vahtras, M. A. Watson, D. J. D. Wilson, M. Ziolkowski
       and H. Agren,
       "The Dalton quantum chemistry program system",
       WIREs Comput. Mol. Sci. 2014, 4:269–284 (doi: 10.1002/wcms.1172)
     
    and
     
       Dalton, a Molecular Electronic Structure Program,
       Release Dalton2017.alpha (2016), see http://daltonprogram.org
   ----------------------------------------------------------------------------

    Authors in alphabetical order (major contribution(s) in parenthesis):

  Kestutis Aidas,           Vilnius University,           Lithuania   (QM/MM)
  Celestino Angeli,         University of Ferrara,        Italy       (NEVPT2)
  Keld L. Bak,              UNI-C,                        Denmark     (AOSOPPA, non-adiabatic coupling, magnetic properties)
  Vebjoern Bakken,          University of Oslo,           Norway      (DALTON; geometry optimizer, symmetry detection)
  Radovan Bast,             UiT The Arctic U. of Norway,  Norway      (DALTON installation and execution frameworks)
  Pablo Baudin,             University of Valencia,       Spain       (Cholesky excitation energies)
  Linus Boman,              NTNU,                         Norway      (Cholesky decomposition and subsystems)
  Ove Christiansen,         Aarhus University,            Denmark     (CC module)
  Renzo Cimiraglia,         University of Ferrara,        Italy       (NEVPT2)
  Sonia Coriani,            University of Trieste,        Italy       (CC module, MCD in RESPONS)
  Janusz Cukras,            University of Trieste,        Italy       (MChD in RESPONS)
  Paal Dahle,               University of Oslo,           Norway      (Parallelization)
  Erik K. Dalskov,          UNI-C,                        Denmark     (SOPPA)
  Thomas Enevoldsen,        Univ. of Southern Denmark,    Denmark     (SOPPA)
  Janus J. Eriksen,         Aarhus University,            Denmark     (Polarizable embedding model, TDA)
  Rasmus Faber,             University of Copenhagen,     Denmark     (Vib.avg. NMR with SOPPA, parallel AO-SOPPA)
  Berta Fernandez,          U. of Santiago de Compostela, Spain       (doublet spin, ESR in RESPONS)
  Lara Ferrighi,            Aarhus University,            Denmark     (PCM Cubic response)
  Heike Fliegl,             University of Oslo,           Norway      (CCSD(R12))
  Luca Frediani,            UiT The Arctic U. of Norway,  Norway      (PCM)
  Bin Gao,                  UiT The Arctic U. of Norway,  Norway      (Gen1Int library)
  Christof Haettig,         Ruhr-University Bochum,       Germany     (CC module)
  Kasper Hald,              Aarhus University,            Denmark     (CC module)
  Asger Halkier,            Aarhus University,            Denmark     (CC module)
  Frederik Beyer Hansen,    University of Copenhagen,     Denmark     (Parallel AO-SOPPA)
  Erik D. Hedegaard,        Univ. of Southern Denmark,    Denmark     (Polarizable embedding model, QM/MM)
  Hanne Heiberg,            University of Oslo,           Norway      (geometry analysis, selected one-electron integrals)
  Trygve Helgaker,          University of Oslo,           Norway      (DALTON; ABACUS, ERI, DFT modules, London, and much more)
  Alf Christian Hennum,     University of Oslo,           Norway      (Parity violation)
  Hinne Hettema,            University of Auckland,       New Zealand (quadratic response in RESPONS; SIRIUS supersymmetry)
  Eirik Hjertenaes,         NTNU,                         Norway      (Cholesky decomposition)
  Pi A. B. Haase,           University of Copenhagen,     Denmark     (Triplet AO-SOPPA)
  Maria Francesca Iozzi,    University of Oslo,           Norway      (RPA)
  Brano Jansik              Technical Univ. of Ostrava    Czech Rep.  (DFT cubic response)
  Hans Joergen Aa. Jensen,  Univ. of Southern Denmark,    Denmark     (DALTON; SIRIUS, RESPONS, ABACUS modules, London, and much more)
  Dan Jonsson,              UiT The Arctic U. of Norway,  Norway      (cubic response in RESPONS module)
  Poul Joergensen,          Aarhus University,            Denmark     (RESPONS, ABACUS, and CC modules)
  Maciej Kaminski,          University of Warsaw,         Poland      (CPPh in RESPONS)
  Joanna Kauczor,           Linkoeping University,        Sweden      (Complex polarization propagator (CPP) module)
  Sheela Kirpekar,          Univ. of Southern Denmark,    Denmark     (Mass-velocity & Darwin integrals)
  Wim Klopper,              KIT Karlsruhe,                Germany     (R12 code in CC, SIRIUS, and ABACUS modules)
  Stefan Knecht,            ETH Zurich,                   Switzerland (Parallel CI and MCSCF)
  Rika Kobayashi,           Australian National Univ.,    Australia   (DIIS in CC, London in MCSCF)
  Henrik Koch,              NTNU,                         Norway      (CC module, Cholesky decomposition)
  Jacob Kongsted,           Univ. of Southern Denmark,    Denmark     (Polarizable embedding model, QM/MM)
  Andrea Ligabue,           University of Modena,         Italy       (CTOCD, AOSOPPA)
  Nanna H. List             Univ. of Southern Denmark,    Denmark     (Polarizable embedding model)
  Ola B. Lutnaes,           University of Oslo,           Norway      (DFT Hessian)
  Juan I. Melo,             University of Buenos Aires,   Argentina   (LRESC, Relativistic Effects on NMR Shieldings)
  Kurt V. Mikkelsen,        University of Copenhagen,     Denmark     (MC-SCRF and QM/MM)
  Rolf H. Myhre,            NTNU,                         Norway      (Cholesky, subsystems and ECC2)
  Christian Neiss,          Univ. Erlangen-Nuernberg,     Germany     (CCSD(R12))
  Christian B. Nielsen,     University of Copenhagen,     Denmark     (QM/MM)
  Patrick Norman,           Linkoeping University,        Sweden      (Cubic response and complex frequency response in RESPONS)
  Jeppe Olsen,              Aarhus University,            Denmark     (SIRIUS CI/density modules)
  Jogvan Magnus H. Olsen,   Univ. of Southern Denmark,    Denmark     (Polarizable embedding model, QM/MM)
  Anders Osted,             Copenhagen University,        Denmark     (QM/MM)
  Martin J. Packer,         University of Sheffield,      UK          (SOPPA)
  Filip Pawlowski,          Kazimierz Wielki University,  Poland      (CC3)
  Morten N. Pedersen,       Univ. of Southern Denmark,    Denmark     (Polarizable embedding model)
  Thomas B. Pedersen,       University of Oslo,           Norway      (Cholesky decomposition)
  Patricio F. Provasi,      University of Northeastern,   Argentina   (Analysis of coupling constants in localized orbitals)
  Zilvinas Rinkevicius,     KTH Stockholm,                Sweden      (open-shell DFT, ESR)
  Elias Rudberg,            KTH Stockholm,                Sweden      (DFT grid and basis info)
  Torgeir A. Ruden,         University of Oslo,           Norway      (Numerical derivatives in ABACUS)
  Kenneth Ruud,             UiT The Arctic U. of Norway,  Norway      (DALTON; ABACUS magnetic properties and much more)
  Pawel Salek,              KTH Stockholm,                Sweden      (DALTON; DFT code)
  Claire C. M. Samson       University of Karlsruhe       Germany     (Boys localization, r12 integrals in ERI)
  Alfredo Sanchez de Meras, University of Valencia,       Spain       (CC module, Cholesky decomposition)
  Trond Saue,               Paul Sabatier University,     France      (direct Fock matrix construction)
  Stephan P. A. Sauer,      University of Copenhagen,     Denmark     (SOPPA(CCSD), SOPPA prop., AOSOPPA, vibrational g-factors)
  Bernd Schimmelpfennig,    Forschungszentrum Karlsruhe,  Germany     (AMFI module)
  Kristian Sneskov,         Aarhus University,            Denmark     (Polarizable embedding model, QM/MM)
  Arnfinn H. Steindal,      UiT The Arctic U. of Norway,  Norway      (parallel QM/MM, Polarizable embedding model)
  Casper Steinmann,         Univ. of Southern Denmark,    Denmark     (QFIT, Polarizable embedding model)
  K. O. Sylvester-Hvid,     University of Copenhagen,     Denmark     (MC-SCRF)
  Peter R. Taylor,          VLSCI/Univ. of Melbourne,     Australia   (Symmetry handling ABACUS, integral transformation)
  Andrew M. Teale,          University of Nottingham,     England     (DFT-AC, DFT-D)
  David P. Tew,             University of Bristol,        England     (CCSD(R12))
  Olav Vahtras,             KTH Stockholm,                Sweden      (triplet response, spin-orbit, ESR, TDDFT, open-shell DFT)
  David J. Wilson,          La Trobe University,          Australia   (DFT Hessian and DFT magnetizabilities)
  Hans Agren,               KTH Stockholm,                Sweden      (SIRIUS module, RESPONS, MC-SCRF solvation model)
 --------------------------------------------------------------------------------

     Date and time (Linux)  : Tue Dec  4 09:19:12 2018
     Host name              : n-62-24-2                               

 * Work memory size             :  1280000000 =  9.537 gigabytes.

 * Directories for basis set searches:
   1) /zhome/d7/7/119775/My_Codes/dalton-private/build2016/basis/diffs
   2) /zhome/37/3/129401/NH3NH4/CCSD/AIMD_SAMPLING/nh3_4h2o_nd
   3) /zhome/9a/4/124800/source/dalton/build-mlcc/basis


Compilation information
-----------------------

 Who compiled             | rfaber
 Host                     | hpclogin1
 System                   | Linux-2.6.32-696.1.1.el6.x86_64
 CMake generator          | Unix Makefiles
 Processor                | x86_64
 64-bit integers          | ON
 MPI                      | OFF
 Fortran compiler         | /opt/intel/2016update2/compilers_and_libraries_201
                          | 6.2.181/linux/bin/intel64/ifort
 Fortran compiler version | ifort (IFORT) 16.0.2 20160204
 C compiler               | /opt/intel/2016update2/compilers_and_libraries_201
                          | 6.2.181/linux/bin/intel64/icc
 C compiler version       | icc (ICC) 16.0.2 20160204
 C++ compiler             | /opt/intel/2016update2/compilers_and_libraries_201
                          | 6.2.181/linux/bin/intel64/icpc
 C++ compiler version     | icpc (ICC) 16.0.2 20160204
 Static linking           | OFF
 Last Git revision        | bb4d1599ca5680a9f3980451fc8bbefdba436d59
 Git branch               | mlcc
 Configuration time       | 2017-06-13 16:11:03.928841


   Content of the .dal input file
 ----------------------------------

**DALTON
.RUN WAVE FUNCTIONS
*QMMM
.QMMM
**INTEGRALS
.DIPLEN
**WAVE FUNCTIONS
.CC
*PRINT
!To check the origin of excit
.PRINTL
   0 11
*SCF INP
.THRESH
1.0D-7
*CC INP
.CCSD
.THRLEQ
 1.0D-9
.THRENR
 1.0D-10
.FROIMP
4
0
.PRINT
 1
.MAX IT
 1200
.MAXRED
 1200
.MXLRV
1199
*CCSLV
.CCMM
.MXSLIT
200
.MXINIT
4 5
*CCEXCI
.NCCEXC
 1
.IONISATION
1
1
.CVSEPARA
1
1
*CCLRSD
.DIPOLE
**END OF DALTON INPUT


   Content of the .mol file
 ----------------------------

ATOMBASIS


Atomtypes=5 Charge=0 Nosymm Angstrom
   7.00000    1    Basis=6-311G**
N          0.000000        0.000000        0.000000
   1.00000    3    Basis=6-311G**
H          0.703123       -0.708633       -0.119766
H          0.235529        0.647813        0.739743
H         -0.960032       -0.425827       -0.030826
   8.00000    4    Basis=6-311G**
O         -3.569775       -0.402441        0.348125
O          2.849615       -2.514160       -0.352684
O          2.012515        1.420994        2.393130
O         -0.517772        1.432383       -2.245335
   1.00000    8    Basis=6-311G**
H         -4.345546       -0.097279        0.848343
H         -3.539485        0.161362       -0.498183
H          3.304271       -2.007043        0.354714
H          2.840385       -1.877853       -1.133429
H          1.158861        1.872626        2.830977
H          2.819669        1.700098        2.858950
H          0.259148        1.470649       -2.828069
H         -0.188497        0.875874       -1.282135
   0.00000    1    Basis=diffs
X          0.000000        0.000000        0.000000


       *******************************************************************
       *********** Output from DALTON general input processing ***********
       *******************************************************************

 --------------------------------------------------------------------------------
   Overall default print level:    0
   Print level for DALTON.STAT:    1

    HERMIT 1- and 2-electron integral sections will be executed
    "Old" integral transformation used (limited to max 255 basis functions)
    Wave function sections will be executed (SIRIUS module)
 --------------------------------------------------------------------------------


 Changes of defaults for *QMMM  :
 --------------------------------

 +------------------+
 |  WORD: | CHANGE: |
 +------------------+
 |   QMMM |       T |
 +------------------+
 


   ****************************************************************************
   *************** Output of molecule and basis set information ***************
   ****************************************************************************


    The two title cards from your ".mol" input:
    ------------------------------------------------------------------------
 1:                                                                         
 2:                                                                         
    ------------------------------------------------------------------------

  Coordinates are entered in Angstrom and converted to atomic units.
          - Conversion factor : 1 bohr = 0.52917721 A

  Atomic type no.    1
  --------------------
  Nuclear charge:   7.00000
  Number of symmetry independent centers:    1
  Number of basis sets to read;    2
  The basis set is "6-311G**" from the basis set library.
  Basis set file used for this atomic type with Z =   7 :
     "/zhome/9a/4/124800/source/dalton/build-mlcc/basis/6-311G**"

  Info about the basis set file: your basis has no documentation.
  Basis set: 6-311G**                                                                        

  Atomic type no.    2
  --------------------
  Nuclear charge:   1.00000
  Number of symmetry independent centers:    3
  Number of basis sets to read;    2
  The basis set is "6-311G**" from the basis set library.
  Basis set file used for this atomic type with Z =   1 :
     "/zhome/9a/4/124800/source/dalton/build-mlcc/basis/6-311G**"

  Info about the basis set file: your basis has no documentation.
  Basis set: 6-311G**                                                                        

  Atomic type no.    3
  --------------------
  Nuclear charge:   8.00000
  Number of symmetry independent centers:    4
  Number of basis sets to read;    2
  The basis set is "6-311G**" from the basis set library.
  Basis set file used for this atomic type with Z =   8 :
     "/zhome/9a/4/124800/source/dalton/build-mlcc/basis/6-311G**"

  Info about the basis set file: your basis has no documentation.
  Basis set: 6-311G**                                                                        

  Atomic type no.    4
  --------------------
  Nuclear charge:   1.00000
  Number of symmetry independent centers:    8
  Number of basis sets to read;    2
  The basis set is "6-311G**" from the basis set library.
  Basis set file used for this atomic type with Z =   1 :
     "/zhome/9a/4/124800/source/dalton/build-mlcc/basis/6-311G**"

  Info about the basis set file: your basis has no documentation.
  Basis set: 6-311G**                                                                        

  Atomic type no.    5
  --------------------
  Nuclear charge:   0.00000
  Number of symmetry independent centers:    1
  Number of basis sets to read;    2
  The basis set is "diffs" from the basis set library.
  Basis set file used for this atomic type with Z =   0 :
     "/zhome/9a/4/124800/source/dalton/build-mlcc/basis/diffs"

  Info about the basis set file: your basis has no documentation.
  Basis set: diffs                                                                           


                         SYMGRP: Point group information
                         -------------------------------

@    Point group: C1 


                                 Isotopic Masses
                                 ---------------

                           N          14.003074
                           H           1.007825
                           H           1.007825
                           H           1.007825
                           O          15.994915
                           O          15.994915
                           O          15.994915
                           O          15.994915
                           H           1.007825
                           H           1.007825
                           H           1.007825
                           H           1.007825
                           H           1.007825
                           H           1.007825
                           H           1.007825
                           H           1.007825

                       Total mass:    89.068809 amu
                       Natural abundance:  98.514 %

 Center-of-mass coordinates (a.u.):    0.311770    0.013009    0.085820


  Atoms and basis sets
  --------------------

  Number of atom types :    5
  Total number of atoms:   17

  label    atoms   charge   prim   cont     basis
  ----------------------------------------------------------------------
  N           1    7.0000    31    18      [11s5p1d|4s3p1d]                                   
  H           3    1.0000     8     6      [5s1p|3s1p]                                        
  O           4    8.0000    31    18      [11s5p1d|4s3p1d]                                   
  H           8    1.0000     8     6      [5s1p|3s1p]                                        
  X           1    0.0000     1     1      [1s|1s]                                            
  ----------------------------------------------------------------------
  total:     17   50.0000   244   157
  ----------------------------------------------------------------------
  Spherical harmonic basis used.

  Threshold for neglecting AO integrals:  1.00D-12


  Cartesian Coordinates (a.u.)
  ----------------------------

  Total number of coordinates:   51
  N       :     1  x   0.0000000000    2  y   0.0000000000    3  z   0.0000000000
  H       :     4  x   1.3287099022    5  y  -1.3391222931    6  z  -0.2263249391
  H       :     7  x   0.4450853045    8  y   1.2241891502    9  z   1.3979116729
  H       :    10  x  -1.8141975512   11  y  -0.8046964066   12  z  -0.0582526975
  O       :    13  x  -6.7458970778   14  y  -0.7605032715   15  z   0.6578609073
  O       :    16  x   5.3849919117   17  y  -4.7510738344   18  z  -0.6664761687
  O       :    19  x   3.8031021724   20  y   2.6852894853   21  z   4.5223602815
  O       :    22  x  -0.9784472752   23  y   2.7068115761   24  z  -4.2430682089
  H       :    25  x  -8.2118918036   26  y  -0.1838306677   27  z   1.6031359301
  H       :    28  x  -6.6886572735   29  y   0.3049299870   30  z  -0.9414294301
  H       :    31  x   6.2441672328   32  y  -3.7927615911   33  z   0.6703123127
  H       :    34  x   5.3675497395   35  y  -3.5486278730   36  z  -2.1418703921
  H       :    37  x   2.1899299069   38  y   3.5387502745   39  z   5.3497711962
  H       :    40  x   5.3284021731   41  y   3.2127196056   42  z   5.4026325051
  H       :    43  x   0.4897187458   44  y   2.7791238360   45  z  -5.3442758726
  H       :    46  x  -0.3562077054   47  y   1.6551619800   48  z  -2.4228840053
  X       :    49  x   0.0000000000   50  y   0.0000000000   51  z   0.0000000000

  Max    interatomic separation is    7.9000 Angstrom (   14.9289 Bohr)
  between atoms   11 and    9, "H     " and "H     ".

  Min HX interatomic separation is    0.9719 Angstrom (    1.8367 Bohr)

  Min YX interatomic separation is    2.7132 Angstrom (    5.1272 Bohr)


  Bond distances (Angstrom):
  --------------------------

                  atom 1     atom 2       distance
                  ------     ------       --------
  bond distance:  H          N            1.005429
  bond distance:  H          N            1.011116
  bond distance:  H          N            1.050686
  bond distance:  H          O            0.972195
  bond distance:  H          O            1.017364
  bond distance:  H          O            0.981984
  bond distance:  H          O            1.007241
  bond distance:  H          O            1.060380
  bond distance:  H          O            0.972823
  bond distance:  H          O            0.971930
  bond distance:  H          O            1.160120


  Bond angles (degrees):
  ----------------------

                  atom 1     atom 2     atom 3         angle
                  ------     ------     ------         -----
  bond angle:     H          N          H            112.074
  bond angle:     H          N          H            110.478
  bond angle:     H          N          H            119.602
  bond angle:     H          O          H            106.130
  bond angle:     H          O          H            103.674
  bond angle:     H          O          H            110.367
  bond angle:     H          O          H            106.846




 Principal moments of inertia (u*A**2) and principal axes
 --------------------------------------------------------

   IA     365.457859          0.960185   -0.184715    0.209582
   IB     635.626280         -0.048219    0.629372    0.775607
   IC     707.019246          0.275172    0.754832   -0.595407


 Rotational constants
 --------------------

               A                   B                   C

           1382.8653            795.0883            714.8023 MHz
            0.046127            0.026521            0.023843 cm-1


@  Nuclear repulsion energy :  168.800507315132 Hartree

  Number of floating/multiple basis set orbitals :    1


                     .---------------------------------------.
                     | Starting in Integral Section (HERMIT) |
                     `---------------------------------------'



 ***************************************************************************************
 ****************** Output from **INTEGRALS input processing (HERMIT) ******************
 ***************************************************************************************



    *************************************************************************
    ****************** Output from HERMIT input processing ******************
    *************************************************************************


 Default print level:        1

 * Nuclear model: Point charge

 Calculation of one- and two-electron Hamiltonian integrals.

 The following one-electron property integrals are calculated as requested:
          - overlap integrals
          - dipole length integrals

 Center of mass  (bohr):      0.311770034040      0.013008599810      0.085820313950
 Operator center (bohr):      0.000000000000      0.000000000000      0.000000000000
 Gauge origin    (bohr):      0.000000000000      0.000000000000      0.000000000000
 Dipole origin   (bohr):      0.000000000000      0.000000000000      0.000000000000
 
  *********************************** 
  QMMM electrostatic potential: 
  Multipole order                                    0
  Isotropic polarization  
  *********************************** 
 
  ---------------- 
  QMMM information 
  ---------------- 
 
  MM coordinates in au 
  -------------------- 
     1     10.113238      9.171873    -10.086753
     2     10.601713      7.846396    -11.466030
     3      8.784095     10.202792    -10.929216
     4     -8.496615     -8.276502      3.219508
     5     -7.555486     -9.983756      3.325483
     6     -8.723116     -7.541203      4.955136
     7     -9.809691     -5.037107      7.774125
     8     -9.271603     -5.564590      9.476011
     9    -11.568472     -5.265656      7.614708
    10    -10.319891      6.837042      9.050477
    11     -9.182359      8.341761      9.285474
    12    -10.486784      6.903740      7.209243
    13      1.161456     -2.949723     -6.575603
    14      0.439040     -1.731598     -7.829521
    15     -0.269651     -3.685452     -5.589343
    16      8.649868      6.227564     -6.264077
    17      7.511571      6.832082     -5.018786
    18      8.966788      7.495580     -7.642230
    19     -0.843069     -7.932165    -11.424275
    20     -2.348191     -6.824604    -11.475330
    21     -1.183681     -8.910739    -12.986907
    22      4.097287     -6.693843     10.948009
    23      5.286601     -5.917443     12.091101
    24      2.450565     -6.917717     11.713312
    25     -9.496968      4.757437     -6.326709
    26    -11.295409      5.096952     -5.993043
    27     -9.433768      4.144585     -8.055090
    28     -8.477878     -2.350974     -7.846602
    29     -7.650314     -1.443344     -6.383223
    30    -10.232130     -2.857833     -7.212839
    31     -2.833775     -5.248869     -3.550119
    32     -1.546501     -5.950882     -2.355377
    33     -4.389486     -5.262415     -2.489489
    34     -3.531860      3.689777     10.029527
    35     -4.101787      5.029134     11.154108
    36     -4.878428      2.419422      9.827764
    37     10.081717      1.118238     -2.413959
    38     10.887704      2.591115     -3.070537
    39      8.627938      1.879032     -1.686467
    40     10.171712      9.507936     -0.287764
    41      9.608371     11.268093      0.235409
    42     11.252565     10.020004     -1.845994
    43      6.966092      9.912653      6.712319
    44      6.035789     10.546911      5.181177
    45      7.150212      8.026277      6.373940
    46     -0.469654      0.220283    -11.291335
    47      0.504020     -0.411467    -12.771754
    48     -1.707209      1.482090    -12.046698
    49     -7.249857     11.080095      9.744904
    50     -6.196799     10.099946     10.957556
    51     -8.465395     11.883747     10.805586
    52    -10.598134      6.481855      3.016273
    53    -11.516675      7.664034      1.858727
    54     -8.751588      6.756504      2.725911
    55      7.911473     -2.817812      7.723297
    56      8.892686     -1.712504      8.773452
    57      6.179996     -2.964759      8.338972
    58     -1.438955    -10.870075      7.515908
    59     -0.196639    -12.295849      7.555409
    60     -0.468089     -9.563581      6.587336
    61      9.935326     -9.637000      8.334425
    62      9.475935    -11.423090      8.298851
    63     10.825867     -9.372720      9.902284
    64      0.568099      9.036723     -9.229889
    65      1.067896     10.065509     -7.799476
    66      1.274675      7.329696     -9.072261
    67      6.203037     -6.092651     -7.694215
    68      6.342100     -4.340999     -6.904662
    69      7.926772     -6.746453     -7.390095
    70      3.426882    -11.182539      3.109794
    71      3.611278     -9.358642      2.930136
    72      2.266932    -11.838684      1.798798
    73      2.267399     -1.959714      7.743882
    74      2.120256     -3.725816      7.059042
    75      2.822828     -0.779597      6.297201
    76     -4.572610      7.875039    -10.654998
    77     -5.213129      7.978571     -8.892798
    78     -2.732415      8.431298    -10.437169
    79     -5.949003      1.800168     -3.871457
    80     -6.893305      2.730390     -5.079306
    81     -4.036017      1.759900     -4.327327
    82      5.738220    -11.207278    -11.276880
    83      4.932506    -10.974987     -9.638561
    84      5.364063     -9.581263    -12.082862
    85      2.010597      4.030196     -8.406760
    86      0.980014      3.049925     -9.686290
    87      3.784139      3.330463     -8.586830
    88     -4.933865     -8.073052     -7.374611
    89     -4.260369     -6.853158     -6.192166
    90     -5.274570     -9.653898     -6.517690
    91      5.765027      8.144489     -2.672815
    92      4.285819      8.953054     -2.046534
    93      7.257431      8.731636     -1.719235
    94      4.928706     -0.803107     -4.171937
    95      3.258636     -1.285872     -4.806687
    96      4.559507      0.441710     -2.707654
    97      2.244840     -9.685219     -6.519761
    98      0.996916     -9.121209     -7.765452
    99      3.375276     -8.219103     -6.507319
   100     -3.677700     -1.793318      4.733694
   101     -5.199838     -2.114056      5.738482
   102     -4.464657     -1.535712      3.032287
   103     -9.343755      3.030282    -10.943888
   104     -9.288720      4.121784    -12.343704
   105     -8.241413      1.698667    -11.443450
   106      0.871494     -6.870281     -0.164450
   107      2.561034     -5.945050     -0.375538
   108      1.033176     -8.617512     -0.926612
   109     -0.253584      5.067514      6.205029
   110     -1.676149      4.550557      7.403699
   111      0.694472      6.306917      7.255176
   112     -4.539700     -3.785116     11.704174
   113     -3.323225     -2.373702     12.082932
   114     -5.708868     -3.556922     13.151806
   115     -6.264178      8.992078     -5.925548
   116     -7.616940      7.836507     -5.303004
   117     -4.661922      8.792816     -4.971618
   118     11.646133     -7.544643     -3.667231
   119     13.051314     -6.414479     -3.059622
   120     10.787910     -7.885272     -1.985316
   121      1.432346     11.419161     -2.002401
   122      0.146193     10.136748     -2.159479
   123      1.696626     12.335303     -3.585961
   124    -10.873866     11.277598     -4.519182
   125    -11.395262     13.179997     -4.208951
   126     -9.113784     10.955695     -4.841520
   127     -2.162620      7.711056     -2.554553
   128     -1.611851      5.991774     -2.885183
   129     -3.262306      7.658582     -1.036840
   130      1.893111      8.902991      9.328750
   131      2.024362      9.566686     11.089287
   132      3.700477      9.466609      8.824885
   133      9.925584     -9.072042      1.109817
   134     11.537498     -8.474808      1.799076
   135      8.699590     -8.644567      2.344869
   136     -5.223859      7.199520      2.503307
   137     -4.166846      5.965561      3.410748
   138     -5.040055      8.824590      3.416088
   139      6.388803      2.032640     -8.193216
   140      6.180198      1.189893     -6.580350
   141      7.242370      3.667983     -7.574211
   142    -10.900192      1.510263      3.605768
   143    -11.004191      3.253817      2.880166
   144    -12.452356      0.676815      3.112186
   145      5.053925      3.338260     -0.848869
   146      5.128894      5.011998     -1.631225
   147      4.221648      3.714763      0.777566
   148    -10.119867     -9.137818    -10.479064
   149     -8.549019     -8.263090     -9.874184
   150    -10.845032    -10.223673     -9.151278
   151     -8.114346     -5.202945     -1.080521
   152     -7.883166     -3.499623     -0.578689
   153     -8.101394     -6.167764      0.583307
   154      9.235171      1.390523     10.725231
   155     11.099106      1.349631     10.999397
   156      8.499739      1.232661     12.406489
   157      8.071856      4.673365      6.602316
   158      9.857040      4.822900      5.995451
   159      8.263787      3.556860      8.144999
   160      0.365641     -5.812896      5.140484
   161     -1.174998     -4.793685      5.057096
   162      0.747200     -6.184225      3.371545
   163     -5.405409     11.463096      4.809294
   164     -6.335012     10.831810      6.312891
   165     -3.741852     12.191177      5.645564
   166     -8.041323      0.577162      8.090294
   167     -8.983263      1.097566      6.512873
   168     -8.151908     -1.341231      8.143200
   169      6.348250     -7.057146      5.999601
   170      4.769710     -7.404644      6.889915
   171      7.705067     -7.682574      7.242746
   172      7.719435     -1.446432      2.810571
   173      6.783336      0.052232      3.295803
   174      7.758562     -2.440018      4.486408
   175      9.900935     -3.014453     -5.856845
   176     10.480398     -4.605992     -4.964065
   177      9.700716     -1.791103     -4.606007
 
  MM charges 
  ---------- 
     1     -0.674440
     2      0.337220
     3      0.337220
     4     -0.674440
     5      0.337220
     6      0.337220
     7     -0.674440
     8      0.337220
     9      0.337220
    10     -0.674440
    11      0.337220
    12      0.337220
    13     -0.674440
    14      0.337220
    15      0.337220
    16     -0.674440
    17      0.337220
    18      0.337220
    19     -0.674440
    20      0.337220
    21      0.337220
    22     -0.674440
    23      0.337220
    24      0.337220
    25     -0.674440
    26      0.337220
    27      0.337220
    28     -0.674440
    29      0.337220
    30      0.337220
    31     -0.674440
    32      0.337220
    33      0.337220
    34     -0.674440
    35      0.337220
    36      0.337220
    37     -0.674440
    38      0.337220
    39      0.337220
    40     -0.674440
    41      0.337220
    42      0.337220
    43     -0.674440
    44      0.337220
    45      0.337220
    46     -0.674440
    47      0.337220
    48      0.337220
    49     -0.674440
    50      0.337220
    51      0.337220
    52     -0.674440
    53      0.337220
    54      0.337220
    55     -0.674440
    56      0.337220
    57      0.337220
    58     -0.674440
    59      0.337220
    60      0.337220
    61     -0.674440
    62      0.337220
    63      0.337220
    64     -0.674440
    65      0.337220
    66      0.337220
    67     -0.674440
    68      0.337220
    69      0.337220
    70     -0.674440
    71      0.337220
    72      0.337220
    73     -0.674440
    74      0.337220
    75      0.337220
    76     -0.674440
    77      0.337220
    78      0.337220
    79     -0.674440
    80      0.337220
    81      0.337220
    82     -0.674440
    83      0.337220
    84      0.337220
    85     -0.674440
    86      0.337220
    87      0.337220
    88     -0.674440
    89      0.337220
    90      0.337220
    91     -0.674440
    92      0.337220
    93      0.337220
    94     -0.674440
    95      0.337220
    96      0.337220
    97     -0.674440
    98      0.337220
    99      0.337220
   100     -0.674440
   101      0.337220
   102      0.337220
   103     -0.674440
   104      0.337220
   105      0.337220
   106     -0.674440
   107      0.337220
   108      0.337220
   109     -0.674440
   110      0.337220
   111      0.337220
   112     -0.674440
   113      0.337220
   114      0.337220
   115     -0.674440
   116      0.337220
   117      0.337220
   118     -0.674440
   119      0.337220
   120      0.337220
   121     -0.674440
   122      0.337220
   123      0.337220
   124     -0.674440
   125      0.337220
   126      0.337220
   127     -0.674440
   128      0.337220
   129      0.337220
   130     -0.674440
   131      0.337220
   132      0.337220
   133     -0.674440
   134      0.337220
   135      0.337220
   136     -0.674440
   137      0.337220
   138      0.337220
   139     -0.674440
   140      0.337220
   141      0.337220
   142     -0.674440
   143      0.337220
   144      0.337220
   145     -0.674440
   146      0.337220
   147      0.337220
   148     -0.674440
   149      0.337220
   150      0.337220
   151     -0.674440
   152      0.337220
   153      0.337220
   154     -0.674440
   155      0.337220
   156      0.337220
   157     -0.674440
   158      0.337220
   159      0.337220
   160     -0.674440
   161      0.337220
   162      0.337220
   163     -0.674440
   164      0.337220
   165      0.337220
   166     -0.674440
   167      0.337220
   168      0.337220
   169     -0.674440
   170      0.337220
   171      0.337220
   172     -0.674440
   173      0.337220
   174      0.337220
   175     -0.674440
   176      0.337220
   177      0.337220
 
  MM isotropic polarizabilities in au 
  ----------------------------------- 
     1      5.739350
     2      2.308390
     3      2.308390
     4      5.739350
     5      2.308390
     6      2.308390
     7      5.739350
     8      2.308390
     9      2.308390
    10      5.739350
    11      2.308390
    12      2.308390
    13      5.739350
    14      2.308390
    15      2.308390
    16      5.739350
    17      2.308390
    18      2.308390
    19      5.739350
    20      2.308390
    21      2.308390
    22      5.739350
    23      2.308390
    24      2.308390
    25      5.739350
    26      2.308390
    27      2.308390
    28      5.739350
    29      2.308390
    30      2.308390
    31      5.739350
    32      2.308390
    33      2.308390
    34      5.739350
    35      2.308390
    36      2.308390
    37      5.739350
    38      2.308390
    39      2.308390
    40      5.739350
    41      2.308390
    42      2.308390
    43      5.739350
    44      2.308390
    45      2.308390
    46      5.739350
    47      2.308390
    48      2.308390
    49      5.739350
    50      2.308390
    51      2.308390
    52      5.739350
    53      2.308390
    54      2.308390
    55      5.739350
    56      2.308390
    57      2.308390
    58      5.739350
    59      2.308390
    60      2.308390
    61      5.739350
    62      2.308390
    63      2.308390
    64      5.739350
    65      2.308390
    66      2.308390
    67      5.739350
    68      2.308390
    69      2.308390
    70      5.739350
    71      2.308390
    72      2.308390
    73      5.739350
    74      2.308390
    75      2.308390
    76      5.739350
    77      2.308390
    78      2.308390
    79      5.739350
    80      2.308390
    81      2.308390
    82      5.739350
    83      2.308390
    84      2.308390
    85      5.739350
    86      2.308390
    87      2.308390
    88      5.739350
    89      2.308390
    90      2.308390
    91      5.739350
    92      2.308390
    93      2.308390
    94      5.739350
    95      2.308390
    96      2.308390
    97      5.739350
    98      2.308390
    99      2.308390
   100      5.739350
   101      2.308390
   102      2.308390
   103      5.739350
   104      2.308390
   105      2.308390
   106      5.739350
   107      2.308390
   108      2.308390
   109      5.739350
   110      2.308390
   111      2.308390
   112      5.739350
   113      2.308390
   114      2.308390
   115      5.739350
   116      2.308390
   117      2.308390
   118      5.739350
   119      2.308390
   120      2.308390
   121      5.739350
   122      2.308390
   123      2.308390
   124      5.739350
   125      2.308390
   126      2.308390
   127      5.739350
   128      2.308390
   129      2.308390
   130      5.739350
   131      2.308390
   132      2.308390
   133      5.739350
   134      2.308390
   135      2.308390
   136      5.739350
   137      2.308390
   138      2.308390
   139      5.739350
   140      2.308390
   141      2.308390
   142      5.739350
   143      2.308390
   144      2.308390
   145      5.739350
   146      2.308390
   147      2.308390
   148      5.739350
   149      2.308390
   150      2.308390
   151      5.739350
   152      2.308390
   153      2.308390
   154      5.739350
   155      2.308390
   156      2.308390
   157      5.739350
   158      2.308390
   159      2.308390
   160      5.739350
   161      2.308390
   162      2.308390
   163      5.739350
   164      2.308390
   165      2.308390
   166      5.739350
   167      2.308390
   168      2.308390
   169      5.739350
   170      2.308390
   171      2.308390
   172      5.739350
   173      2.308390
   174      2.308390
   175      5.739350
   176      2.308390
   177      2.308390


     ************************************************************************
     ************************** Output from HERINT **************************
     ************************************************************************



                      Nuclear contribution to dipole moments
                      --------------------------------------

                 au               Debye          C m (/(10**-30)

      x     16.03260652        40.75081842       135.93009876
      y      2.09002765         5.31232005        17.71999231
      z      5.45414077        13.86304216        46.24213116



 Threshold for neglecting two-electron integrals:  1.00D-12
 HERMIT - Number of two-electron integrals written:    23359498 ( 30.4% )
 HERMIT - Megabytes written:                            267.480

  Time used in TWOINT     is       5.22 seconds
  Total CPU  time used in HERMIT:   5.38 seconds
  Total wall time used in HERMIT:   7.73 seconds


                        .----------------------------------.
                        | End of Integral Section (HERMIT) |
                        `----------------------------------'



                   .--------------------------------------------.
                   | Starting in Wave Function Section (SIRIUS) |
                   `--------------------------------------------'

NCCEXCI for singlet:    1
 CCSD_INPUT: core-val requested
 Requested number of virtual orbs per sym
                     1
 Indices of requested virtual orbs
                     1
 CCSD_INPUT: core-val requested
 Requested number of core orbs per sym
                     1
 Indices of requested core orbs
                     1

 *** Output from Huckel module :

     Using EWMO model:          T
     Using EHT  model:          F
     Number of Huckel orbitals each symmetry:   36

 EWMO - Energy Weighted Maximum Overlap - is a Huckel type method,
        which normally is better than Extended Huckel Theory.
 Reference: Linderberg and Ohrn, Propagators in Quantum Chemistry (Wiley, 1973)

 Huckel EWMO eigenvalues for symmetry :  1
          -20.684423     -20.684414     -20.684166     -20.683743     -15.674027
           -1.686115      -1.589810      -1.581858      -1.570150      -1.443810
           -0.817771      -0.798200      -0.781545      -0.776662      -0.732319
           -0.716933      -0.697928      -0.689227      -0.680119      -0.669252
           -0.616352      -0.615949      -0.611908      -0.607755      -0.505032
           -0.261287      -0.249380      -0.244366      -0.229558      -0.189619
           -0.182687      -0.179932      -0.178923      -0.172245      -0.147104
           -0.141232

 **********************************************************************
 *SIRIUS* a direct, restricted step, second order MCSCF program       *
 **********************************************************************

 
     Date and time (Linux)  : Tue Dec  4 09:19:22 2018
     Host name              : n-62-24-2                               

 Title lines from ".mol" input file:
                                                                             
                                                                             

 Print level on unit LUPRI =   2 is   0
 Print level on unit LUW4  =   2 is  11

@    (Integral direct) CC calculation.

@    This is a combination run starting with
@              a restricted, closed shell Hartree-Fock calculation


 Initial molecular orbitals are obtained according to
 ".MOSTART EWMO  " input option

@    QM part is embedded in an environment :

@         Model: QMMM

     Wave function specification
     ============================

     For the specification of the Coupled Cluster: see later.

@    Wave function type        --- CC ---
@    Number of closed shell electrons          50
@    Number of electrons in active shells       0
@    Total charge of the molecule               0

@    Spin multiplicity and 2 M_S                1         0
@    Total number of symmetries                 1 (point group: C1 )
@    Reference state symmetry                   1 (irrep name : A  )

     Orbital specifications
     ======================
@    Abelian symmetry species          All |    1
@                                          |  A  
                                       --- |  ---
@    Occupied SCF orbitals              25 |   25
@    Secondary orbitals                132 |  132
@    Total number of orbitals          157 |  157
@    Number of basis functions         157 |  157

     Optimization information
     ========================
@    Number of configurations                 1
@    Number of orbital rotations           3300
     ------------------------------------------
@    Total number of variables             3301

     Maximum number of Fock   iterations      0
     Maximum number of DIIS   iterations     60
     Maximum number of QC-SCF iterations     60
     Threshold for SCF convergence     1.00D-07


 Changes of defaults for CC:
 ---------------------------


 -Implicit frozen core calculation
 -Excitation energies calculated
 -One-photon absorption strengths will be calculated
 -Oscillator strengths calculated
  
* Read MO coefficients from SIRIUS.RST with label "NEWORB  " and header info:  4Dec18  REORTHO 


 ***********************************************
 ***** DIIS acceleration of SCF iterations *****
 ***********************************************

 C1-DIIS algorithm; max error vectors =    8
 -----------------------------------------------------------------------------

 *** DIIS iteration number    1
 RDSUPM called. NFMAT, ISYMDM(1:NFMAT)                     1
                     1

Calculating AOSUPINT
     (Precalculated two-electron integrals are transformed to P-supermatrix elements.
      Threshold for discarding integrals :  1.00D-12 )
  CPU  time used in FORMSUP    is   2.53 seconds
  WALL time used in FORMSUP    is  17.63 seconds

 ITDIIS, energy, error norm, change in energy, scr.thr., difden:
@ DIIS iter.   1    -359.892209202        3.79772D+00   -3.60D+02  -20    F

 (DIIS_RED) Control Parameters C2DIIS =         F NEVC =    1


 (DIIS_RED) B matrix:

               Column   1
       1      14.42267912
    ==== End of matrix output ====

 DIIS C vector; C2DIIS = F, LAMBDA = -1.44D+01
    1.000000
* Read MO coefficients from SIRIUS.RST with label "NEWORB  " and header info:  4Dec18  DIIS   1
      Virial theorem: -V/T =      1.998366
@      MULPOP N      -0.20; H       0.16; H       0.17; H       0.16; O      -0.63; O      -0.65; O      -0.62; O      -0.95; H       0.32; H       0.33; 
@             H       0.33; H       0.33; H       0.33; H       0.31; H       0.32; H       0.29; 
   1  Level shift: doubly occupied orbital energies shifted by -2.00D-01

 DIIS Fock eigenvalues in symmetry 1
      -20.72901      -20.69961      -20.69151      -20.38115      -16.11841
       -1.54645       -1.51405       -1.50978       -1.48907       -1.35886
       -1.00854       -0.99486       -0.92256       -0.89981       -0.88478
       -0.87415       -0.79975       -0.77112       -0.76323       -0.76243
       -0.73469       -0.71884       -0.71216       -0.61619       -0.57719
        0.00000        0.10305        0.15086        0.16513        0.20182
        0.23228        0.24247        0.27252        0.29483        0.29637
        0.31002        0.37873        0.41275        0.43108        0.45473
        0.54899        0.55669        0.55871        0.57934        0.58175
        0.59528        0.64892        0.65866        0.81329        0.82499
        0.85083        0.94496        0.96222        0.97793        0.99637
        1.05124        1.06023        1.07828        1.07953        1.12524
        1.13221        1.14588        1.20652        1.23110        1.24314
        1.29864        1.32607        1.33328        1.35535        1.46599
        1.46914        1.49080        1.49764        1.51642        1.53523
        1.57601        1.58374        1.63287        1.65965        1.68492
        1.69147        1.70754        1.71643        1.77075        1.80283
        1.82398        1.87092        1.89132        1.89610        1.93096
        2.15581        2.17451        2.18849        2.19937        2.20400
        2.23337        2.27980        2.30181        2.31074        2.35207
        2.42139        2.56543        2.57784        2.60137        2.62209
        2.62664        2.69733        2.76955        2.77438        2.78541
        2.79825        2.80661        2.83943        2.97629        3.14501
        3.19922        3.28921        3.37748        3.39619        3.44933
        3.47515        3.49916        3.49979        3.50340        3.59128
        3.61403        3.65088        3.65857        3.71957        3.94988
        3.95338        3.98269        3.98732        4.18090        4.18401
        4.21284        4.27279        4.48225        4.94461        5.01348
        5.29796        5.31245        5.39725        5.53939        5.67401
        5.69885        5.71656        5.84565        6.06690        6.07139
        6.08032        6.26859       36.64971       51.53248       51.54844
       51.56584       51.89126
 Time used in FCKEIG, thr_jaco:   3.90D-02  7.00D-02  1.65D-04
 CPU and wall times used in FCKEIG, THR_FCKEIG:   3.90D-02  7.00D-02  3.80D-02
 -----------------------------------------------------------------------------

 *** DIIS iteration number    2
 RDSUPM called. NFMAT, ISYMDM(1:NFMAT)                     1
                     1

 ITDIIS, energy, error norm, change in energy, scr.thr., difden:
@ DIIS iter.   2    -360.669667046        1.09835D+00   -7.77D-01  -20    F

 (DIIS_RED) Control Parameters C2DIIS =         F NEVC =    2


 (DIIS_RED) B matrix:

               Column   1     Column   2
       1      14.42267912
       2       0.43215497     1.20636616
    ==== End of matrix output ====

 DIIS C vector; C2DIIS = F, LAMBDA = -1.17D+00
    0.052437    0.947563
* Read MO coefficients from SIRIUS.RST with label "NEWORB  " and header info:  4Dec18  DIIS   2
      Virial theorem: -V/T =      2.004991
@      MULPOP N      -0.68; H       0.25; H       0.27; H       0.28; O      -0.63; O      -0.61; O      -0.63; O      -0.74; H       0.29; H       0.36; 
@             H       0.32; H       0.31; H       0.36; H       0.29; H       0.25; H       0.33; 
   2  Level shift: doubly occupied orbital energies shifted by -1.00D-01

 DIIS Fock eigenvalues in symmetry 1
      -20.73285      -20.67089      -20.65447      -20.63665      -15.51549
       -1.43657       -1.40596       -1.39879       -1.39456       -1.20682
       -0.79924       -0.77808       -0.76026       -0.75730       -0.72997
       -0.71201       -0.69192       -0.67348       -0.66314       -0.65556
       -0.63640       -0.61120       -0.60654       -0.59351       -0.49820
        0.00000        0.15511        0.18050        0.20314        0.23707
        0.25774        0.27888        0.30198        0.31815        0.32799
        0.34122        0.40266        0.48653        0.49720        0.52137
        0.58113        0.59046        0.59201        0.61283        0.62048
        0.64828        0.66696        0.68999        0.92657        0.94065
        0.95083        0.97275        0.97965        0.98708        0.99729
        1.02046        1.06429        1.08581        1.09978        1.13212
        1.14136        1.18397        1.19296        1.30978        1.33528
        1.33981        1.35584        1.38140        1.42070        1.51922
        1.52020        1.53259        1.54738        1.56297        1.57177
        1.61045        1.62636        1.65861        1.71616        1.73505
        1.74440        1.75512        1.75848        1.84890        1.85679
        1.88349        1.92589        1.94820        1.97682        2.01055
        2.23320        2.23873        2.25055        2.29040        2.29971
        2.32288        2.33983        2.35761        2.36658        2.41272
        2.45777        2.62104        2.65660        2.67991        2.68746
        2.72284        2.72603        2.82533        2.83857        2.85215
        2.87056        2.97031        3.00281        3.09568        3.31649
        3.36077        3.39938        3.41797        3.43473        3.47527
        3.50041        3.51237        3.52270        3.52577        3.53463
        3.59153        3.61906        3.64277        3.68778        3.91405
        3.97731        4.00628        4.00915        4.16125        4.20880
        4.21084        4.23738        4.65167        5.23460        5.28700
        5.30316        5.30702        5.32008        5.40747        5.62879
        5.67282        5.70349        5.72026        6.05794        6.08456
        6.08786        6.09996       37.14238       51.44722       51.49301
       51.49632       51.52324
 Time used in FCKEIG, thr_jaco:   2.70D-02  4.60D-02  4.78D-05
 CPU and wall times used in FCKEIG, THR_FCKEIG:   2.70D-02  4.60D-02  1.10D-02
 -----------------------------------------------------------------------------

 *** DIIS iteration number    3
 RDSUPM called. NFMAT, ISYMDM(1:NFMAT)                     1
                     1

 ITDIIS, energy, error norm, change in energy, scr.thr., difden:
@ DIIS iter.   3    -360.740787369        4.30609D-01   -7.11D-02  -20    F

 (DIIS_RED) Control Parameters C2DIIS =         F NEVC =    3


 (DIIS_RED) B matrix:

               Column   1     Column   2     Column   3
       1      14.42267912
       2       0.43215497     1.20636616
       3       0.89212164    -0.05122276     0.18542389
    ==== End of matrix output ====

 DIIS C vector; C2DIIS = F, LAMBDA = -1.13D-01
   -0.052487    0.150529    0.901958
* Read MO coefficients from SIRIUS.RST with label "NEWORB  " and header info:  4Dec18  DIIS   3
      Virial theorem: -V/T =      2.002695
@      MULPOP N      -0.57; H       0.21; H       0.23; H       0.23; O      -0.69; O      -0.67; O      -0.69; O      -0.87; H       0.31; H       0.39; 
@             H       0.35; H       0.34; H       0.39; H       0.31; H       0.33; H       0.39; 
   3  Level shift: doubly occupied orbital energies shifted by -5.00D-02

 DIIS Fock eigenvalues in symmetry 1
      -20.60108      -20.57861      -20.56452      -20.50116      -15.61368
       -1.37597       -1.34411       -1.33824       -1.28504       -1.19521
       -0.73645       -0.71807       -0.70298       -0.69709       -0.69325
       -0.66086       -0.62932       -0.59983       -0.59121       -0.57835
       -0.56644       -0.53982       -0.52370       -0.48920       -0.45578
        0.00000        0.15889        0.18552        0.20724        0.24226
        0.26281        0.28051        0.30693        0.32172        0.33106
        0.34270        0.41096        0.48741        0.50550        0.52256
        0.59128        0.59866        0.60156        0.62228        0.62959
        0.66065        0.67504        0.69768        0.92031        0.93528
        0.95398        0.98219        1.00052        1.00608        1.01164
        1.04864        1.07798        1.09348        1.10777        1.15121
        1.15436        1.19130        1.21016        1.31605        1.33895
        1.34513        1.36037        1.38086        1.42566        1.53171
        1.53387        1.54490        1.55873        1.57834        1.58370
        1.62502        1.63758        1.68061        1.72584        1.74662
        1.75545        1.76680        1.76740        1.85469        1.86741
        1.89263        1.93472        1.95919        1.98033        2.01255
        2.24624        2.25082        2.26251        2.28453        2.29478
        2.34796        2.35422        2.36383        2.37268        2.42665
        2.47705        2.63377        2.66603        2.68852        2.69786
        2.72613        2.73787        2.83636        2.84866        2.86219
        2.87919        2.95121        2.98027        3.09292        3.29549
        3.39162        3.41932        3.43590        3.43979        3.49125
        3.49531        3.51920        3.54260        3.54678        3.58347
        3.63808        3.66013        3.66200        3.70647        3.96188
        3.99472        4.02394        4.02766        4.21652        4.22858
        4.24242        4.25650        4.61213        5.17874        5.24986
        5.32237        5.33406        5.40440        5.42340        5.69313
        5.71957        5.73027        5.73988        6.10643        6.10746
        6.12071        6.15984       36.99872       51.51319       51.52223
       51.54570       51.62742
 Time used in FCKEIG, thr_jaco:   2.40D-02  3.00D-02  1.87D-05
 CPU and wall times used in FCKEIG, THR_FCKEIG:   2.40D-02  3.00D-02  4.31D-03
 -----------------------------------------------------------------------------

 *** DIIS iteration number    4
 RDSUPM called. NFMAT, ISYMDM(1:NFMAT)                     1
                     1

 ITDIIS, energy, error norm, change in energy, scr.thr., difden:
@ DIIS iter.   4    -360.752850924        1.07311D-01   -1.21D-02  -20    F

 (DIIS_RED) Control Parameters C2DIIS =         F NEVC =    4


 (DIIS_RED) B matrix:

               Column   1     Column   2     Column   3     Column   4
       1      14.42267912
       2       0.43215497     1.20636616
       3       0.89212164    -0.05122276     0.18542389
       4       0.04268616     0.09355052     0.00038414     0.01151565
    ==== End of matrix output ====

 DIIS C vector; C2DIIS = F, LAMBDA = -4.98D-03
   -0.000946   -0.078326    0.007534    1.071738
* Read MO coefficients from SIRIUS.RST with label "NEWORB  " and header info:  4Dec18  DIIS   4
      Virial theorem: -V/T =      2.003535
@      MULPOP N      -0.64; H       0.23; H       0.25; H       0.25; O      -0.71; O      -0.68; O      -0.71; O      -0.85; H       0.32; H       0.40; 
@             H       0.36; H       0.35; H       0.41; H       0.32; H       0.33; H       0.39; 
   4  Level shift: doubly occupied orbital energies shifted by -1.25D-02

 DIIS Fock eigenvalues in symmetry 1
      -20.56493      -20.54342      -20.52955      -20.50329      -15.56109
       -1.33994       -1.30838       -1.30273       -1.26088       -1.15171
       -0.70007       -0.68022       -0.66111       -0.65881       -0.65472
       -0.62741       -0.59074       -0.56195       -0.55299       -0.54757
       -0.52562       -0.49943       -0.48323       -0.46134       -0.41613
        0.00000        0.15998        0.18509        0.20673        0.24187
        0.26206        0.28188        0.30724        0.32171        0.33181
        0.34439        0.41132        0.49131        0.50774        0.52587
        0.59139        0.59791        0.60115        0.62116        0.62911
        0.65959        0.67469        0.69630        0.92543        0.93967
        0.95733        0.98515        1.00247        1.00777        1.00873
        1.04483        1.07763        1.09419        1.10858        1.15138
        1.15186        1.19288        1.20679        1.31606        1.34319
        1.34570        1.36205        1.38326        1.42735        1.52988
        1.53202        1.54380        1.55745        1.57665        1.58186
        1.62353        1.63639        1.67767        1.72648        1.74629
        1.75372        1.76526        1.76835        1.85557        1.86693
        1.89256        1.93468        1.95703        1.98339        2.01544
        2.24456        2.24910        2.26067        2.28977        2.30011
        2.34309        2.35278        2.36724        2.37067        2.42408
        2.47629        2.63187        2.66624        2.68895        2.69727
        2.73006        2.73559        2.83456        2.84677        2.86008
        2.88003        2.95811        2.98733        3.09705        3.30195
        3.39760        3.41955        3.42700        3.43974        3.49301
        3.50193        3.51997        3.54286        3.54683        3.57045
        3.63806        3.64879        3.66212        3.70657        3.95366
        3.99499        4.02376        4.02764        4.21043        4.22927
        4.23710        4.25683        4.61704        5.18824        5.25925
        5.32265        5.33383        5.38298        5.42326        5.69209
        5.70814        5.72347        5.73940        6.10545        6.10606
        6.11911        6.14001       37.01383       51.51202       51.52008
       51.54334       51.58857
 Time used in FCKEIG, thr_jaco:   2.20D-02  7.70D-02  4.67D-06
 CPU and wall times used in FCKEIG, THR_FCKEIG:   2.20D-02  7.70D-02  1.07D-03
 -----------------------------------------------------------------------------

 *** DIIS iteration number    5
 RDSUPM called. NFMAT, ISYMDM(1:NFMAT)                     1
                     1

 ITDIIS, energy, error norm, change in energy, scr.thr., difden:
@ DIIS iter.   5    -360.754165142        2.84639D-02   -1.31D-03  -20    F

 (DIIS_RED) Control Parameters C2DIIS =         F NEVC =    5


 (DIIS_RED) B matrix:

               Column   1     Column   2     Column   3     Column   4     Column   5
       1      14.42267912
       2       0.43215497     1.20636616
       3       0.89212164    -0.05122276     0.18542389
       4       0.04268616     0.09355052     0.00038414     0.01151565
       5       0.01735722     0.00702024     0.00614957     0.00119994     0.00081019
    ==== End of matrix output ====

 DIIS C vector; C2DIIS = F, LAMBDA = -5.65D-04
    0.001586   -0.007977   -0.041532    0.000227    1.047697
* Read MO coefficients from SIRIUS.RST with label "NEWORB  " and header info:  4Dec18  DIIS   5
      Virial theorem: -V/T =      2.003219
@      MULPOP N      -0.65; H       0.23; H       0.25; H       0.25; O      -0.72; O      -0.70; O      -0.72; O      -0.87; H       0.32; H       0.41; 
@             H       0.36; H       0.35; H       0.41; H       0.32; H       0.34; H       0.40; 

 DIIS Fock eigenvalues in symmetry 1
      -20.55223      -20.53073      -20.51672      -20.48149      -15.53924
       -1.32728       -1.29576       -1.29008       -1.24528       -1.13644
       -0.68786       -0.66777       -0.64715       -0.64605       -0.64029
       -0.61285       -0.57840       -0.54973       -0.54062       -0.53248
       -0.51205       -0.48592       -0.46961       -0.44516       -0.40037
        0.00000        0.16023        0.18499        0.20672        0.24194
        0.26231        0.28207        0.30732        0.32163        0.33200
        0.34481        0.41202        0.49213        0.50868        0.52670
        0.59139        0.59757        0.60100        0.62094        0.62901
        0.66021        0.67552        0.69604        0.92703        0.94125
        0.95891        0.98599        1.00337        1.00796        1.01004
        1.04698        1.07868        1.09437        1.10874        1.15129
        1.15275        1.19342        1.20769        1.31650        1.34427
        1.34589        1.36253        1.38411        1.42869        1.52936
        1.53169        1.54351        1.55718        1.57744        1.58152
        1.62408        1.63612        1.67902        1.72649        1.74649
        1.75330        1.76485        1.76887        1.85598        1.86726
        1.89286        1.93499        1.95645        1.98427        2.01631
        2.24403        2.24843        2.26014        2.29114        2.30148
        2.34374        2.35255        2.36829        2.37055        2.42364
        2.47740        2.63138        2.66600        2.68870        2.69726
        2.73093        2.73565        2.83392        2.84601        2.85942
        2.88023        2.96019        2.98965        3.09867        3.30427
        3.40062        3.41975        3.43013        3.44013        3.49325
        3.50488        3.52010        3.54287        3.54686        3.57363
        3.63824        3.65179        3.66219        3.70660        3.95725
        3.99499        4.02376        4.02758        4.21257        4.22932
        4.23843        4.25688        4.62172        5.19267        5.26358
        5.32298        5.33418        5.38844        5.42380        5.69252
        5.71229        5.72413        5.73949        6.10539        6.10605
        6.11903        6.14459       37.02296       51.51222       51.52028
       51.54368       51.59770
 Time used in FCKEIG, thr_jaco:   2.20D-02  3.90D-02  1.24D-06
 CPU and wall times used in FCKEIG, THR_FCKEIG:   2.20D-02  3.90D-02  2.85D-04
 -----------------------------------------------------------------------------

 *** DIIS iteration number    6
 RDSUPM called. NFMAT, ISYMDM(1:NFMAT)                     1
                     1

 ITDIIS, energy, error norm, change in energy, scr.thr., difden:
@ DIIS iter.   6    -360.754265722        1.08520D-02   -1.01D-04  -20    F

 (DIIS_RED) Control Parameters C2DIIS =         F NEVC =    6


 (DIIS_RED) B matrix:

               Column   1     Column   2     Column   3     Column   4     Column   5     Column   6
       1      14.42267912
       2       0.43215497     1.20636616
       3       0.89212164    -0.05122276     0.18542389
       4       0.04268616     0.09355052     0.00038414     0.01151565
       5       0.01735722     0.00702024     0.00614957     0.00119994     0.00081019
       6      -0.00117347    -0.00038619     0.00098012     0.00049947     0.00005470     0.00011777
    ==== End of matrix output ====

 DIIS C vector; C2DIIS = F, LAMBDA = -4.38D-05
    0.000697    0.008335   -0.011407   -0.125710    0.175311    0.952773
* Read MO coefficients from SIRIUS.RST with label "NEWORB  " and header info:  4Dec18  DIIS   6
      Virial theorem: -V/T =      2.003377
@      MULPOP N      -0.64; H       0.23; H       0.25; H       0.25; O      -0.73; O      -0.70; O      -0.73; O      -0.87; H       0.33; H       0.41; 
@             H       0.37; H       0.36; H       0.42; H       0.32; H       0.34; H       0.40; 

 DIIS Fock eigenvalues in symmetry 1
      -20.55204      -20.53053      -20.51668      -20.48426      -15.54364
       -1.32713       -1.29561       -1.28999       -1.24605       -1.13788
       -0.68797       -0.66803       -0.64806       -0.64651       -0.64136
       -0.61384       -0.57854       -0.54994       -0.54077       -0.53335
       -0.51165       -0.48553       -0.46923       -0.44571       -0.40151
        0.00000        0.16008        0.18492        0.20658        0.24178
        0.26209        0.28190        0.30725        0.32153        0.33182
        0.34462        0.41169        0.49172        0.50821        0.52627
        0.59130        0.59743        0.60092        0.62082        0.62887
        0.65985        0.67505        0.69587        0.92635        0.94067
        0.95824        0.98611        1.00353        1.00783        1.00968
        1.04659        1.07836        1.09419        1.10859        1.15121
        1.15240        1.19331        1.20730        1.31628        1.34370
        1.34588        1.36230        1.38366        1.42808        1.52915
        1.53148        1.54339        1.55701        1.57697        1.58130
        1.62364        1.63593        1.67849        1.72620        1.74614
        1.75310        1.76463        1.76844        1.85549        1.86685
        1.89244        1.93457        1.95621        1.98375        2.01576
        2.24383        2.24819        2.25990        2.29033        2.30071
        2.34315        2.35232        2.36766        2.37027        2.42343
        2.47679        2.63115        2.66569        2.68837        2.69688
        2.73039        2.73520        2.83359        2.84566        2.85908
        2.87981        2.95905        2.98839        3.09781        3.30307
        3.39915        3.41981        3.42917        3.44006        3.49320
        3.50331        3.52007        3.54292        3.54681        3.57268
        3.63826        3.65090        3.66224        3.70658        3.95606
        3.99501        4.02373        4.02759        4.21194        4.22938
        4.23803        4.25687        4.61957        5.19044        5.26139
        5.32316        5.33435        5.38695        5.42380        5.69252
        5.71108        5.72398        5.73947        6.10541        6.10606
        6.11897        6.14312       37.01864       51.51240       51.52047
       51.54372       51.59498
 Time used in FCKEIG, thr_jaco:   2.10D-02  5.50D-02  4.72D-07
 CPU and wall times used in FCKEIG, THR_FCKEIG:   2.10D-02  5.50D-02  1.09D-04
 -----------------------------------------------------------------------------

 *** DIIS iteration number    7
 RDSUPM called. NFMAT, ISYMDM(1:NFMAT)                     1
                     1

 ITDIIS, energy, error norm, change in energy, scr.thr., difden:
@ DIIS iter.   7    -360.754277746        2.34676D-03   -1.20D-05  -20    F

 (DIIS_RED) Control Parameters C2DIIS =         F NEVC =    7


 (DIIS_RED) B matrix:

               Column   1     Column   2     Column   3     Column   4     Column   5     Column   6
       1      14.42267912
       2       0.43215497     1.20636616
       3       0.89212164    -0.05122276     0.18542389
       4       0.04268616     0.09355052     0.00038414     0.01151565
       5       0.01735722     0.00702024     0.00614957     0.00119994     0.00081019
       6      -0.00117347    -0.00038619     0.00098012     0.00049947     0.00005470     0.00011777
       7       0.00029007    -0.00012413     0.00008714     0.00000164     0.00004498     0.00000304

               Column   7
       7       0.00000551
    ==== End of matrix output ====

 DIIS C vector; C2DIIS = F, LAMBDA = -1.44D-06
   -0.000240   -0.000922    0.004869    0.025744   -0.119256   -0.118646    1.208452
* Read MO coefficients from SIRIUS.RST with label "NEWORB  " and header info:  4Dec18  DIIS   7
      Virial theorem: -V/T =      2.003351
@      MULPOP N      -0.64; H       0.23; H       0.25; H       0.25; O      -0.73; O      -0.70; O      -0.73; O      -0.87; H       0.33; H       0.41; 
@             H       0.37; H       0.36; H       0.42; H       0.33; H       0.34; H       0.40; 

 DIIS Fock eigenvalues in symmetry 1
      -20.55216      -20.53065      -20.51678      -20.48375      -15.54320
       -1.32711       -1.29559       -1.28999       -1.24579       -1.13773
       -0.68800       -0.66805       -0.64800       -0.64652       -0.64128
       -0.61370       -0.57863       -0.55006       -0.54087       -0.53320
       -0.51159       -0.48548       -0.46916       -0.44542       -0.40132
        0.00000        0.16011        0.18493        0.20658        0.24181
        0.26213        0.28191        0.30727        0.32152        0.33184
        0.34463        0.41176        0.49178        0.50828        0.52633
        0.59132        0.59741        0.60092        0.62082        0.62887
        0.65992        0.67514        0.69585        0.92642        0.94074
        0.95833        0.98616        1.00357        1.00778        1.00977
        1.04676        1.07842        1.09419        1.10861        1.15120
        1.15248        1.19333        1.20737        1.31632        1.34377
        1.34592        1.36233        1.38370        1.42818        1.52910
        1.53147        1.54338        1.55698        1.57707        1.58126
        1.62372        1.63591        1.67862        1.72621        1.74618
        1.75306        1.76461        1.76848        1.85553        1.86688
        1.89249        1.93461        1.95617        1.98381        2.01583
        2.24381        2.24815        2.25986        2.29039        2.30078
        2.34322        2.35229        2.36770        2.37025        2.42338
        2.47689        2.63113        2.66567        2.68835        2.69689
        2.73041        2.73524        2.83357        2.84561        2.85904
        2.87990        2.95915        2.98851        3.09793        3.30318
        3.39932        3.41980        3.42939        3.44007        3.49319
        3.50346        3.52008        3.54290        3.54679        3.57292
        3.63826        3.65114        3.66224        3.70657        3.95631
        3.99500        4.02371        4.02757        4.21210        4.22938
        4.23813        4.25686        4.61984        5.19066        5.26160
        5.32314        5.33432        5.38729        5.42378        5.69249
        5.71134        5.72399        5.73943        6.10537        6.10602
        6.11893        6.14343       37.01907       51.51228       51.52035
       51.54361       51.59548
 Time used in FCKEIG, thr_jaco:   2.00D-02  3.40D-02  1.02D-07
 CPU and wall times used in FCKEIG, THR_FCKEIG:   2.00D-02  3.40D-02  2.35D-05
 -----------------------------------------------------------------------------

 *** DIIS iteration number    8
 RDSUPM called. NFMAT, ISYMDM(1:NFMAT)                     1
                     1

 ITDIIS, energy, error norm, change in energy, scr.thr., difden:
@ DIIS iter.   8    -360.754278435        3.98266D-04   -6.89D-07  -20    F

 (DIIS_RED) Control Parameters C2DIIS =         F NEVC =    8


 (DIIS_RED) B matrix:

               Column   1     Column   2     Column   3     Column   4     Column   5     Column   6
       1      14.42267912
       2       0.43215497     1.20636616
       3       0.89212164    -0.05122276     0.18542389
       4       0.04268616     0.09355052     0.00038414     0.01151565
       5       0.01735722     0.00702024     0.00614957     0.00119994     0.00081019
       6      -0.00117347    -0.00038619     0.00098012     0.00049947     0.00005470     0.00011777
       7       0.00029007    -0.00012413     0.00008714     0.00000164     0.00004498     0.00000304
       8       0.00018326    -0.00001993     0.00001237     0.00000179     0.00000132     0.00000168

               Column   7     Column   8
       7       0.00000551
       8       0.00000047     0.00000016
    ==== End of matrix output ====

 DIIS C vector; C2DIIS = F, LAMBDA = -9.33D-08
   -0.000003   -0.000055   -0.000356   -0.000476    0.012921   -0.012662   -0.178598    1.179229
* Read MO coefficients from SIRIUS.RST with label "NEWORB  " and header info:  4Dec18  DIIS   8
      Virial theorem: -V/T =      2.003362
@      MULPOP N      -0.64; H       0.23; H       0.25; H       0.25; O      -0.73; O      -0.70; O      -0.73; O      -0.87; H       0.33; H       0.41; 
@             H       0.37; H       0.36; H       0.42; H       0.33; H       0.34; H       0.40; 

 DIIS Fock eigenvalues in symmetry 1
      -20.55208      -20.53057      -20.51674      -20.48376      -15.54323
       -1.32708       -1.29556       -1.28997       -1.24579       -1.13774
       -0.68797       -0.66803       -0.64801       -0.64651       -0.64128
       -0.61371       -0.57862       -0.55007       -0.54086       -0.53321
       -0.51156       -0.48545       -0.46914       -0.44541       -0.40133
        0.00000        0.16011        0.18493        0.20658        0.24181
        0.26214        0.28191        0.30727        0.32152        0.33184
        0.34462        0.41176        0.49177        0.50827        0.52632
        0.59133        0.59741        0.60093        0.62083        0.62888
        0.65993        0.67514        0.69585        0.92641        0.94074
        0.95833        0.98617        1.00359        1.00778        1.00978
        1.04676        1.07842        1.09420        1.10863        1.15121
        1.15249        1.19334        1.20738        1.31632        1.34376
        1.34593        1.36233        1.38370        1.42817        1.52910
        1.53147        1.54338        1.55698        1.57706        1.58126
        1.62372        1.63591        1.67862        1.72620        1.74617
        1.75306        1.76461        1.76848        1.85552        1.86688
        1.89248        1.93460        1.95617        1.98380        2.01582
        2.24381        2.24815        2.25986        2.29038        2.30076
        2.34323        2.35230        2.36769        2.37026        2.42339
        2.47688        2.63114        2.66566        2.68834        2.69688
        2.73040        2.73524        2.83357        2.84561        2.85904
        2.87988        2.95914        2.98849        3.09791        3.30317
        3.39930        3.41982        3.42939        3.44009        3.49320
        3.50345        3.52010        3.54293        3.54680        3.57292
        3.63828        3.65114        3.66227        3.70659        3.95630
        3.99502        4.02372        4.02760        4.21211        4.22941
        4.23814        4.25688        4.61982        5.19064        5.26159
        5.32318        5.33436        5.38729        5.42380        5.69253
        5.71134        5.72402        5.73945        6.10541        6.10606
        6.11895        6.14342       37.01905       51.51236       51.52043
       51.54366       51.59547
 Time used in FCKEIG, thr_jaco:   2.20D-02  3.20D-02  1.73D-08
 CPU and wall times used in FCKEIG, THR_FCKEIG:   2.20D-02  3.20D-02  3.98D-06
 -----------------------------------------------------------------------------

 *** DIIS iteration number    9
 RDSUPM called. NFMAT, ISYMDM(1:NFMAT)                     1
                     1

 ITDIIS, energy, error norm, change in energy, scr.thr., difden:
@ DIIS iter.   9    -360.754278457        1.33205D-04   -2.19D-08  -20    F

 (DIIS_RED) Control Parameters C2DIIS =         F NEVC =    8


 (DIIS_RED) B matrix:

               Column   1     Column   2     Column   3     Column   4     Column   5     Column   6
       1       0.00000002
       2      -0.00000775     1.20636616
       3       0.00000077    -0.05122276     0.18542389
       4      -0.00000036     0.09355052     0.00038414     0.01151565
       5       0.00000009     0.00702024     0.00614957     0.00119994     0.00081019
[...]
 | 1 1 1 1 |  24   1  21   1 |     2664        1 |      3547117 |   -0.110480  |
 | 1 1 1 1 |  25   1  21   1 |     2665        1 |      3549781 |    0.078834  |
 | 1 1 1 1 |  26   1  21   1 |     2666        1 |      3552446 |    0.096150  |
 | 1 1 1 1 |  32   1  21   1 |     2672        1 |      3568457 |    0.074292  |
 | 1 1 1 1 | 113   1  21   1 |     2753        1 |      3788129 |   -0.086305  |
 +=============================================================================+


          Norm of Printed Amplitude Vector :             0.8625

          Printed all single excitations greater than 0.378688

          Printed all double excitations greater than 0.065298



+======================================================================+
| contributions of excitation levels to right eigenvectors as computed |
| from the (RE|RE) self overlap                                        |
+----------------------------------------------------------------------+
| sym | multi | state |    E / eV  | % singles | % doubles | % triples |
+======================================================================+
|    1|   1   |   1   |  406.73731 |  88.1681  |  11.8319  |   0.0000  |
+======================================================================+





+======================================================================+
| contributions of excitation levels to excited states as computed     |
| from the (LE|RE) overlap                                             |
+----------------------------------------------------------------------+
| sym | multi | state |    E / eV  | % singles | % doubles | % triples |
+======================================================================+
|    1|   1   |   1   |  406.73731 |  78.8429  |  21.1571  |   0.0000  |
+======================================================================+



 --------------------------
 Symmetry class Nr.:     1
 Multiplicity      :     3
 --------------------------

 Length of Excitation vectors in this class is:   7689528
 No Excitation Energies calculated in this symmetry class
     

   *******************************************************************
   *                                                                 *
   *--------   OUTPUT FROM PROPERTY AND SYMMETRY ANALYSIS   ---------*
   *                                                                 *
   *******************************************************************



                         +-------------------------------+
                         ! REQUESTED PROPERTY OPERATORS: !
                         +-------------------------------+

             Index   Oper. Label  Symmetry  Transp.  PDBS  Atom
             --------------------------------------------------
                1     HAM0            1        1      T      0
                2     XDIPLEN         1        1      F      0
                3     YDIPLEN         1        1      F      0
                4     ZDIPLEN         1        1      F      0
             --------------------------------------------------




                         +-------------------------------+
                         ! REQUESTED EXPECTATION VALUES: !
                         +-------------------------------+

                       Index   Oper. Label  Symmetry
                       -----------------------------
                       -----------------------------




                       +------------------------------------+
                       ! REQUESTED EFFECTIVE FOCK MATRICES: !
                       +------------------------------------+

                       Index   Oper. Label  Symmetry
                       -----------------------------
                       -----------------------------




                        +----------------------------------+
                        ! REQUESTED FIRST ORDER M-VECTORS: !
                        +----------------------------------+

               Index   State Symmetry  Frequency
               --------------------------------------------------
                  1             1    1     1.494732D+01
               --------------------------------------------------


      

    *******************************************************************
    *          SOLVING COUPLED CLUSTER RESPONSE EQUATIONS             *
    *******************************************************************



 
 +======================================================================+
 !                     RHS & ETA VECTORS TO COMPUTE:                    !
 +======================================================================+
 | TYPE | # VEC. |  NEEDED FOR:                                         |
 +----------------------------------------------------------------------+
 +======================================================================+



 +======================================================================+
 !                       LINEAR EQUATIONS TO SOLVE:                     !
 +======================================================================+
 | TYPE | # VEC. |  EQUATION:                                           |
 +----------------------------------------------------------------------+
 |  M1  |    1   |  first-order ground - excited state multipliers      |
 +======================================================================+



 +======================================================================+
 !                F MATRIX TRANSFORMATIONS TO COMPUTE:                  !
 +======================================================================+
 | TYPE | # VEC. |  TRANSFORMED:                                        |
 +----------------------------------------------------------------------+
 |  FR  |    1   |  right eigenvectors (RE)                             |
 +======================================================================+





 Testing R1 list: 

 List nr.  Label     Symmetry      Frequency      T1-norm        T2-norm


 Testing L1 list: 

 List nr.  Label     Symmetry      Frequency      T1-norm        T2-norm
  Solvent 1-order response equations converged in                     0 
  solvent iterations
 SONIAPRI                     0
 CCEQ_STR: CVSEPARATION =  T
 CCEQ_STR: IONIZATION =  T
 CCEQ_STR: REMOVE_CORE =  F
 could not find required file CCM1_1___1
 IOPTSV is    33 ... program continues nevertheless.
 Vector nr.  1 of type M1  and symmetry  1 was not found on file.
     M1  start vector nr.  1 of symmetry  1 generated from gradient
 CCEQ_STR: freeze VALENCE OR VIRT
 CCEQ_SOL: CVSEPARA=     T
 CCEQ_SOL: LIONISAT=     T
 CCEQ_SOL: REMOVE_CORE =  F



 ----- COUPLED CLUSTER RESPONSE SOLVER -----

    Iter  #Vectors  time (min)   residual
    --------------------------------------
 CCRED CVS/IONIS sigma_                     1 
 project out valence occupied or virtual
      1       1         1.31     0.35E+00
 CCRED CVS/IONIS sigma_                     2 
 project out valence occupied or virtual
      2       1         1.31     0.75E-01
 CCRED CVS/IONIS sigma_                     3 
 project out valence occupied or virtual
                    -1  vectors with norm le:  1.000000000000000E-035  REMOVED

 CCORT,**WARNING**  number vectors added is zero after check for vector norm , NBADD :    0

 CCORT, number vectors added is zero , NBADD :    0

 CCORT, number vectors added is zero , NBADD :    0

 CCORT, number vectors added is zero , NBADD :    0

 *** MICROITERATIONS STOPPED DUE TO LINEAR DEPENDENCE BETWEEN ALL NEW TRIAL VECTORS
                     0  trial vectors converged
  LINEAR DEPENDENCE BETWEEN                     1  NON CONVERGED TRIAL VECTORS
      3       1         1.31     0.80E-02

 ***  CCEQ_SOL -MICROITERATIONS STOPPED  
     LINEAR DEPENDENCE BETWEEN ALL NEW TRIAL VECTORS
    --------------------------------------
    converged in  3 iterations
    threshold:    0.10E-08


         Routine          Time (min)
         ---------------------------
         CC_TRDRV            3.93
         CCRED               0.02
         CCNEX               0.03
         ---------------------------
         Total time          3.97


  Total CPU  time used in CCEQ_SOLV:  3 minutes 58 seconds
  Total wall time used in CCEQ_SOLV:  4 minutes 51 seconds


 xxxxxxxxxxxxxxxxxxxxxxxxxxxxxxxxxxxxx

 
 Solution of CC response equations completed.
 

 *******************************************************************
 *                                                                 *
 *--------  OUTPUT FROM COUPLED CLUSTER LINEAR RESPONSE   ---------*
 *                                                                 *
 *--------      CALCULATION OF SECOND ORDER RESIDUES      ---------*
 *                                                                 *
 *******************************************************************



                  +---------------------------------------------+
                  ! CC_SOPR: Calculation of CCSD       Residues !
                  +---------------------------------------------+

 Doing the Mf*CsiA
 Doing the Mf*CsiA
 Doing the Mf*CsiA


 CCSD  Right transition moments in atomic units:
 -----------------------------------------------

  1      14.947321  <XDIPLEN |f> =       0.00000000
  1      14.947321  <YDIPLEN |f> =       0.00000000
  1      14.947321  <ZDIPLEN |f> =      -0.00000000


 CCSD  Left  transition moments in atomic units:
 -----------------------------------------------

  1      14.947321  <f|XDIPLEN > =       0.00000000
  1      14.947321  <f|YDIPLEN > =       0.00000000
  1      14.947321  <f|ZDIPLEN > =      -0.00000000


 CCSD  linear response residue property in atomic units:
 -------------------------------------------------------

 RES{<<XDIPLEN ,XDIPLEN >>(14.947321)} =     0.00000000 (   0.00000000)
 RES{<<XDIPLEN ,YDIPLEN >>(14.947321)} =     0.00000000 (   0.00000000)
 RES{<<XDIPLEN ,ZDIPLEN >>(14.947321)} =    -0.00000000 (  -0.00000000)
 RES{<<YDIPLEN ,XDIPLEN >>(14.947321)} =     0.00000000 (   0.00000000)
 RES{<<YDIPLEN ,YDIPLEN >>(14.947321)} =     0.00000000 (   0.00000000)
 RES{<<YDIPLEN ,ZDIPLEN >>(14.947321)} =    -0.00000000 (  -0.00000000)
 RES{<<ZDIPLEN ,XDIPLEN >>(14.947321)} =    -0.00000000 (  -0.00000000)
 RES{<<ZDIPLEN ,YDIPLEN >>(14.947321)} =    -0.00000000 (  -0.00000000)
 RES{<<ZDIPLEN ,ZDIPLEN >>(14.947321)} =     0.00000000 (   0.00000000)


 CCSD  Transition strength matrix for state nr.  1 of symmetry 1
 CCSD  excitation energy:14.94732144

 Gauge: length

               Column   1     Column   2     Column   3
       1     1.556399D-18   1.277762D-18  -3.382408D-18
       2     1.277762D-18   1.048021D-18  -2.777444D-18
       3    -3.382408D-18  -2.777444D-18   7.350404D-18
    ==== End of matrix output ====

 Principal values of diagonalized transition strength matrix:

             a.u.               
 1       0.00000000
 2       0.00000000
 3       0.00000000

 Principal axis of diagonalized transition strength matrix:


               Column   1     Column   2     Column   3
       1       1.00000000     0.00000000     0.00000000
       2       0.00000000     1.00000000     0.00000000
       3       0.00000000     0.00000000     1.00000000
    ==== End of matrix output ====


 CCSD   oscillator strength matrix for state nr.  1 of symmetry 1
 CCSD  excitation energy:14.94732144


               Column   1     Column   2     Column   3
       1     1.550933D-17   1.273275D-17  -3.370529D-17
       2     1.273275D-17   1.044341D-17  -2.767690D-17
       3    -3.370529D-17  -2.767690D-17   7.324590D-17
    ==== End of matrix output ====

 Principal values of diagonalized oscillator strength matrix:

             a.u.               
 1       0.00000000
 2       0.00000000
 3       0.00000000

 Principal axis of diagonalized oscillator strength matrix:


               Column   1     Column   2     Column   3
       1       1.00000000     0.00000000     0.00000000
       2       0.00000000     1.00000000     0.00000000
       3       0.00000000     0.00000000     1.00000000
    ==== End of matrix output ====

  Total time for      9 linear response residues:       2.69 seconds.
  

 *******************************************************************************
 *******************************************************************************
 *                                                                             *
 *                                                                             *
 *                   SUMMARY OF COUPLED CLUSTER CALCULATION                    *
 *                                                                             *
 *                                                                             *
 *******************************************************************************
 *******************************************************************************

                                                                                
                                                                                
            Total SCF   energy:                  -360.7542784588                
            Total MP2   energy:                  -361.8583384743                
            Total CCSD  energy:                  -361.8965323308                
                                                                                
                                                                                
            Total SCF   energy:                  -360.7542784588                
            Total RSTAR energy:                  -361.8965323308                
            Total CCSD  energy:                  -361.8967017763                
                                                                                
                                                                                
            Total SCF   energy:                  -360.7542784588                
            Total RSTAR energy:                  -361.8967017763                
            Total CCSD  energy:                  -361.8967044331                
                                                                                
                                                                                
            Total SCF   energy:                  -360.7542784588                
            Total RSTAR energy:                  -361.8967044331                
            Total CCSD  energy:                  -361.8967046514                
                                                                                
                                                                                
            Total SCF   energy:                  -360.7542784588                
            Total RSTAR energy:                  -361.8967046514                
            Total CCSD  energy:                  -361.8967046629                
                                                                                
                                                                                
            Total SCF   energy:                  -360.7542784588                
            Total RSTAR energy:                  -361.8967046629                
            Total CCSD  energy:                  -361.8967046636                
                                                                                
                                                                                
            Total SCF   energy:                  -360.7542784588                
            Total RSTAR energy:                  -361.8967046636                
            Total CCSD  energy:                  -361.8967046636                
            CCSD Total  energy:                  -362.3189638396                
            CCSD E(QM/MM)     :                    -0.4159130365                
                                                                                
                                                                                
                                                                                
 +=============================================================================+
 |  sym. | Exci.  |        CCSD       Excitation energies            | ||T1||  |
 |(spin, |        +------------------------------------------------------------+
 | spat) |        |     Hartree    |       eV.      |     cm-1       |    %    |
 +=============================================================================+
 | ^1A   |    1   |    14.9473214  |     406.73731  |   3280557.832  |  88.17  |
 +=============================================================================+
                                                                                
                                                                                
     Total energies in Hartree:                                                 
             1 ^1A       -346.9557293650                                        
                                                                                
                                                                                
 +=============================================================================+
 |  sym. | Exci.  |        CCSD       Length   Gauge Oscillator Strength       |
 |(spin, |        +------------------------------------------------------------+
 | spat) |        | Dipole Strength(a.u.) | Oscillator strength  | Direction   |
 +=============================================================================+
 | ^1A   |    1   |        0.0000000      |      0.0000000       |    -        |
 +=============================================================================+

  1 a.u. =        27.21138 eV.  
  1 a.u. =    219474.62934 cm-1.
  

 *******************************************************************************
 *******************************************************************************
 *                                                                             *
 *                                                                             *
 *                      END OF COUPLED CLUSTER CALCULATION                     *
 *                                                                             *
 *                                                                             *
 *******************************************************************************
 *******************************************************************************


 CPU and wall time for CC :    6785.200   14567.469

 
     Date and time (Linux)  : Tue Dec  4 13:28:08 2018
     Host name              : n-62-24-2                               


                      .-------------------------------------.
                      | End of Coupled Cluster Section (CC) |
                      `-------------------------------------'

  Total CPU  time used in DALTON:   1 hour  55 minutes  5 seconds
  Total wall time used in DALTON:   4 hours  8 minutes 55 seconds

 
     Date and time (Linux)  : Tue Dec  4 13:28:08 2018
     Host name              : n-62-24-2                               
  

 +---------------------------------------------------------+ 
 | List of selected calculated molecular properties (a.u.) | 
 +---------------------------------------------------------+ 

  Properties are read from unit number                      4

 CCSD       properties :
 #  1 1 CCSD/MM  Ground state Energy =    -362.3189638396
 #  2 1 E_QM/MM  Ground state Energy =      -0.4159130365
 #  3 1 Sy: 1 Sp: 1 Exc:  1 E_tot:   -346.9557293650 w:     14.9473214381 E_grs:   -361.9030508031
 #  4 1 Exctot   Excited state Energy =    -346.9557293650
 #  5 1 |<O|XDIPLEN |i(14.947321)>| =     0.00000000
 #  7 1 |<O|YDIPLEN |i(14.947321)>| =     0.00000000
 #  9 1 |<O|ZDIPLEN |i(14.947321)>| =     0.00000000

 THE_END   
