

     ************************************************************************
     *************** Dalton - An Electronic Structure Program ***************
     ************************************************************************

    This is output from DALTON release Dalton2017.alpha (2016)
         ( Web site: http://daltonprogram.org )

   ----------------------------------------------------------------------------

    NOTE:
     
    Dalton is an experimental code for the evaluation of molecular
    properties using (MC)SCF, DFT, CI, and CC wave functions.
    The authors accept no responsibility for the performance of
    the code or for the correctness of the results.
     
    The code (in whole or part) is provided under a licence and
    is not to be reproduced for further distribution without
    the written permission of the authors or their representatives.
     
    See the home page "http://daltonprogram.org" for further information.
     
    If results obtained with this code are published,
    the appropriate citations would be both of:
     
       K. Aidas, C. Angeli, K. L. Bak, V. Bakken, R. Bast,
       L. Boman, O. Christiansen, R. Cimiraglia, S. Coriani,
       P. Dahle, E. K. Dalskov, U. Ekstroem,
       T. Enevoldsen, J. J. Eriksen, P. Ettenhuber, B. Fernandez,
       L. Ferrighi, H. Fliegl, L. Frediani, K. Hald, A. Halkier,
       C. Haettig, H. Heiberg, T. Helgaker, A. C. Hennum,
       H. Hettema, E. Hjertenaes, S. Hoest, I.-M. Hoeyvik,
       M. F. Iozzi, B. Jansik, H. J. Aa. Jensen, D. Jonsson,
       P. Joergensen, J. Kauczor, S. Kirpekar,
       T. Kjaergaard, W. Klopper, S. Knecht, R. Kobayashi, H. Koch,
       J. Kongsted, A. Krapp, K. Kristensen, A. Ligabue,
       O. B. Lutnaes, J. I. Melo, K. V. Mikkelsen, R. H. Myhre,
       C. Neiss, C. B. Nielsen, P. Norman, J. Olsen,
       J. M. H. Olsen, A. Osted, M. J. Packer, F. Pawlowski,
       T. B. Pedersen, P. F. Provasi, S. Reine, Z. Rinkevicius,
       T. A. Ruden, K. Ruud, V. Rybkin, P. Salek, C. C. M. Samson,
       A. Sanchez de Meras, T. Saue, S. P. A. Sauer,
       B. Schimmelpfennig, K. Sneskov, A. H. Steindal,
       K. O. Sylvester-Hvid, P. R. Taylor, A. M. Teale,
       E. I. Tellgren, D. P. Tew, A. J. Thorvaldsen, L. Thoegersen,
       O. Vahtras, M. A. Watson, D. J. D. Wilson, M. Ziolkowski
       and H. Agren,
       "The Dalton quantum chemistry program system",
       WIREs Comput. Mol. Sci. 2014, 4:269–284 (doi: 10.1002/wcms.1172)
     
    and
     
       Dalton, a Molecular Electronic Structure Program,
       Release Dalton2017.alpha (2016), see http://daltonprogram.org
   ----------------------------------------------------------------------------

    Authors in alphabetical order (major contribution(s) in parenthesis):

  Kestutis Aidas,           Vilnius University,           Lithuania   (QM/MM)
  Celestino Angeli,         University of Ferrara,        Italy       (NEVPT2)
  Keld L. Bak,              UNI-C,                        Denmark     (AOSOPPA, non-adiabatic coupling, magnetic properties)
  Vebjoern Bakken,          University of Oslo,           Norway      (DALTON; geometry optimizer, symmetry detection)
  Radovan Bast,             UiT The Arctic U. of Norway,  Norway      (DALTON installation and execution frameworks)
  Pablo Baudin,             University of Valencia,       Spain       (Cholesky excitation energies)
  Linus Boman,              NTNU,                         Norway      (Cholesky decomposition and subsystems)
  Ove Christiansen,         Aarhus University,            Denmark     (CC module)
  Renzo Cimiraglia,         University of Ferrara,        Italy       (NEVPT2)
  Sonia Coriani,            University of Trieste,        Italy       (CC module, MCD in RESPONS)
  Janusz Cukras,            University of Trieste,        Italy       (MChD in RESPONS)
  Paal Dahle,               University of Oslo,           Norway      (Parallelization)
  Erik K. Dalskov,          UNI-C,                        Denmark     (SOPPA)
  Thomas Enevoldsen,        Univ. of Southern Denmark,    Denmark     (SOPPA)
  Janus J. Eriksen,         Aarhus University,            Denmark     (Polarizable embedding model, TDA)
  Rasmus Faber,             University of Copenhagen,     Denmark     (Vib.avg. NMR with SOPPA, parallel AO-SOPPA)
  Berta Fernandez,          U. of Santiago de Compostela, Spain       (doublet spin, ESR in RESPONS)
  Lara Ferrighi,            Aarhus University,            Denmark     (PCM Cubic response)
  Heike Fliegl,             University of Oslo,           Norway      (CCSD(R12))
  Luca Frediani,            UiT The Arctic U. of Norway,  Norway      (PCM)
  Bin Gao,                  UiT The Arctic U. of Norway,  Norway      (Gen1Int library)
  Christof Haettig,         Ruhr-University Bochum,       Germany     (CC module)
  Kasper Hald,              Aarhus University,            Denmark     (CC module)
  Asger Halkier,            Aarhus University,            Denmark     (CC module)
  Frederik Beyer Hansen,    University of Copenhagen,     Denmark     (Parallel AO-SOPPA)
  Erik D. Hedegaard,        Univ. of Southern Denmark,    Denmark     (Polarizable embedding model, QM/MM)
  Hanne Heiberg,            University of Oslo,           Norway      (geometry analysis, selected one-electron integrals)
  Trygve Helgaker,          University of Oslo,           Norway      (DALTON; ABACUS, ERI, DFT modules, London, and much more)
  Alf Christian Hennum,     University of Oslo,           Norway      (Parity violation)
  Hinne Hettema,            University of Auckland,       New Zealand (quadratic response in RESPONS; SIRIUS supersymmetry)
  Eirik Hjertenaes,         NTNU,                         Norway      (Cholesky decomposition)
  Pi A. B. Haase,           University of Copenhagen,     Denmark     (Triplet AO-SOPPA)
  Maria Francesca Iozzi,    University of Oslo,           Norway      (RPA)
  Brano Jansik              Technical Univ. of Ostrava    Czech Rep.  (DFT cubic response)
  Hans Joergen Aa. Jensen,  Univ. of Southern Denmark,    Denmark     (DALTON; SIRIUS, RESPONS, ABACUS modules, London, and much more)
  Dan Jonsson,              UiT The Arctic U. of Norway,  Norway      (cubic response in RESPONS module)
  Poul Joergensen,          Aarhus University,            Denmark     (RESPONS, ABACUS, and CC modules)
  Maciej Kaminski,          University of Warsaw,         Poland      (CPPh in RESPONS)
  Joanna Kauczor,           Linkoeping University,        Sweden      (Complex polarization propagator (CPP) module)
  Sheela Kirpekar,          Univ. of Southern Denmark,    Denmark     (Mass-velocity & Darwin integrals)
  Wim Klopper,              KIT Karlsruhe,                Germany     (R12 code in CC, SIRIUS, and ABACUS modules)
  Stefan Knecht,            ETH Zurich,                   Switzerland (Parallel CI and MCSCF)
  Rika Kobayashi,           Australian National Univ.,    Australia   (DIIS in CC, London in MCSCF)
  Henrik Koch,              NTNU,                         Norway      (CC module, Cholesky decomposition)
  Jacob Kongsted,           Univ. of Southern Denmark,    Denmark     (Polarizable embedding model, QM/MM)
  Andrea Ligabue,           University of Modena,         Italy       (CTOCD, AOSOPPA)
  Nanna H. List             Univ. of Southern Denmark,    Denmark     (Polarizable embedding model)
  Ola B. Lutnaes,           University of Oslo,           Norway      (DFT Hessian)
  Juan I. Melo,             University of Buenos Aires,   Argentina   (LRESC, Relativistic Effects on NMR Shieldings)
  Kurt V. Mikkelsen,        University of Copenhagen,     Denmark     (MC-SCRF and QM/MM)
  Rolf H. Myhre,            NTNU,                         Norway      (Cholesky, subsystems and ECC2)
  Christian Neiss,          Univ. Erlangen-Nuernberg,     Germany     (CCSD(R12))
  Christian B. Nielsen,     University of Copenhagen,     Denmark     (QM/MM)
  Patrick Norman,           Linkoeping University,        Sweden      (Cubic response and complex frequency response in RESPONS)
  Jeppe Olsen,              Aarhus University,            Denmark     (SIRIUS CI/density modules)
  Jogvan Magnus H. Olsen,   Univ. of Southern Denmark,    Denmark     (Polarizable embedding model, QM/MM)
  Anders Osted,             Copenhagen University,        Denmark     (QM/MM)
  Martin J. Packer,         University of Sheffield,      UK          (SOPPA)
  Filip Pawlowski,          Kazimierz Wielki University,  Poland      (CC3)
  Morten N. Pedersen,       Univ. of Southern Denmark,    Denmark     (Polarizable embedding model)
  Thomas B. Pedersen,       University of Oslo,           Norway      (Cholesky decomposition)
  Patricio F. Provasi,      University of Northeastern,   Argentina   (Analysis of coupling constants in localized orbitals)
  Zilvinas Rinkevicius,     KTH Stockholm,                Sweden      (open-shell DFT, ESR)
  Elias Rudberg,            KTH Stockholm,                Sweden      (DFT grid and basis info)
  Torgeir A. Ruden,         University of Oslo,           Norway      (Numerical derivatives in ABACUS)
  Kenneth Ruud,             UiT The Arctic U. of Norway,  Norway      (DALTON; ABACUS magnetic properties and much more)
  Pawel Salek,              KTH Stockholm,                Sweden      (DALTON; DFT code)
  Claire C. M. Samson       University of Karlsruhe       Germany     (Boys localization, r12 integrals in ERI)
  Alfredo Sanchez de Meras, University of Valencia,       Spain       (CC module, Cholesky decomposition)
  Trond Saue,               Paul Sabatier University,     France      (direct Fock matrix construction)
  Stephan P. A. Sauer,      University of Copenhagen,     Denmark     (SOPPA(CCSD), SOPPA prop., AOSOPPA, vibrational g-factors)
  Bernd Schimmelpfennig,    Forschungszentrum Karlsruhe,  Germany     (AMFI module)
  Kristian Sneskov,         Aarhus University,            Denmark     (Polarizable embedding model, QM/MM)
  Arnfinn H. Steindal,      UiT The Arctic U. of Norway,  Norway      (parallel QM/MM, Polarizable embedding model)
  Casper Steinmann,         Univ. of Southern Denmark,    Denmark     (QFIT, Polarizable embedding model)
  K. O. Sylvester-Hvid,     University of Copenhagen,     Denmark     (MC-SCRF)
  Peter R. Taylor,          VLSCI/Univ. of Melbourne,     Australia   (Symmetry handling ABACUS, integral transformation)
  Andrew M. Teale,          University of Nottingham,     England     (DFT-AC, DFT-D)
  David P. Tew,             University of Bristol,        England     (CCSD(R12))
  Olav Vahtras,             KTH Stockholm,                Sweden      (triplet response, spin-orbit, ESR, TDDFT, open-shell DFT)
  David J. Wilson,          La Trobe University,          Australia   (DFT Hessian and DFT magnetizabilities)
  Hans Agren,               KTH Stockholm,                Sweden      (SIRIUS module, RESPONS, MC-SCRF solvation model)
 --------------------------------------------------------------------------------

     Date and time (Linux)  : Thu Nov 29 08:58:16 2018
     Host name              : n-62-29-8                               

 * Work memory size             :  1280000000 =  9.537 gigabytes.

 * Directories for basis set searches:
   1) /zhome/d7/7/119775/My_Codes/dalton-private/build2016/basis/diffs
   2) /zhome/37/3/129401/NH3NH4/CCSD/AIMD_SAMPLING/nh3_4h2o_nd
   3) /zhome/9a/4/124800/source/dalton/build-mlcc/basis


Compilation information
-----------------------

 Who compiled             | rfaber
 Host                     | hpclogin1
 System                   | Linux-2.6.32-696.1.1.el6.x86_64
 CMake generator          | Unix Makefiles
 Processor                | x86_64
 64-bit integers          | ON
 MPI                      | OFF
 Fortran compiler         | /opt/intel/2016update2/compilers_and_libraries_201
                          | 6.2.181/linux/bin/intel64/ifort
 Fortran compiler version | ifort (IFORT) 16.0.2 20160204
 C compiler               | /opt/intel/2016update2/compilers_and_libraries_201
                          | 6.2.181/linux/bin/intel64/icc
 C compiler version       | icc (ICC) 16.0.2 20160204
 C++ compiler             | /opt/intel/2016update2/compilers_and_libraries_201
                          | 6.2.181/linux/bin/intel64/icpc
 C++ compiler version     | icpc (ICC) 16.0.2 20160204
 Static linking           | OFF
 Last Git revision        | bb4d1599ca5680a9f3980451fc8bbefdba436d59
 Git branch               | mlcc
 Configuration time       | 2017-06-13 16:11:03.928841


   Content of the .dal input file
 ----------------------------------

**DALTON
.RUN WAVE FUNCTIONS
*QMMM
.QMMM
**INTEGRALS
.DIPLEN
**WAVE FUNCTIONS
.CC
*PRINT
!To check the origin of excit
.PRINTL
   0 11
*SCF INP
.THRESH
1.0D-7
*CC INP
.CCSD
.THRLEQ
 1.0D-9
.THRENR
 1.0D-10
.FROIMP
4
0
.PRINT
 1
.MAX IT
 1200
.MAXRED
 1200
.MXLRV
1199
*CCSLV
.CCMM
.MXSLIT
200
.MXINIT
4 5
*CCEXCI
.NCCEXC
 1
.IONISATION
1
1
.CVSEPARA
1
1
*CCLRSD
.DIPOLE
**END OF DALTON INPUT


   Content of the .mol file
 ----------------------------

ATOMBASIS


Atomtypes=5 Charge=0 Nosymm Angstrom
   7.00000    1    Basis=6-311G**
N          0.000000        0.000000        0.000000
   1.00000    3    Basis=6-311G**
H         -0.795115        0.253663        0.598913
H         -0.008840       -1.029904       -0.017491
H          0.894837        0.373794        0.288359
   8.00000    4    Basis=6-311G**
O         -2.870779       -1.037812        0.270214
O         -1.447683       -3.158915       -1.055706
O          2.138867        1.755384        1.884585
O         -0.438533        1.561774       -2.196651
   1.00000    8    Basis=6-311G**
H         -3.421429       -0.460866        0.827844
H         -2.656013       -0.541722       -0.551953
H         -1.012633       -3.995217       -0.840548
H         -2.390685       -3.396646       -1.202112
H          1.341879        2.334932        1.933005
H          2.896877        2.188316        2.334594
H         -0.141877        1.120202       -3.026774
H         -0.197018        0.918857       -1.334619
   0.00000    1    Basis=diffs
X          0.000000        0.000000        0.000000


       *******************************************************************
       *********** Output from DALTON general input processing ***********
       *******************************************************************

 --------------------------------------------------------------------------------
   Overall default print level:    0
   Print level for DALTON.STAT:    1

    HERMIT 1- and 2-electron integral sections will be executed
    "Old" integral transformation used (limited to max 255 basis functions)
    Wave function sections will be executed (SIRIUS module)
 --------------------------------------------------------------------------------


 Changes of defaults for *QMMM  :
 --------------------------------

 +------------------+
 |  WORD: | CHANGE: |
 +------------------+
 |   QMMM |       T |
 +------------------+
 


   ****************************************************************************
   *************** Output of molecule and basis set information ***************
   ****************************************************************************


    The two title cards from your ".mol" input:
    ------------------------------------------------------------------------
 1:                                                                         
 2:                                                                         
    ------------------------------------------------------------------------

  Coordinates are entered in Angstrom and converted to atomic units.
          - Conversion factor : 1 bohr = 0.52917721 A

  Atomic type no.    1
  --------------------
  Nuclear charge:   7.00000
  Number of symmetry independent centers:    1
  Number of basis sets to read;    2
  The basis set is "6-311G**" from the basis set library.
  Basis set file used for this atomic type with Z =   7 :
     "/zhome/9a/4/124800/source/dalton/build-mlcc/basis/6-311G**"

  Info about the basis set file: your basis has no documentation.
  Basis set: 6-311G**                                                                        

  Atomic type no.    2
  --------------------
  Nuclear charge:   1.00000
  Number of symmetry independent centers:    3
  Number of basis sets to read;    2
  The basis set is "6-311G**" from the basis set library.
  Basis set file used for this atomic type with Z =   1 :
     "/zhome/9a/4/124800/source/dalton/build-mlcc/basis/6-311G**"

  Info about the basis set file: your basis has no documentation.
  Basis set: 6-311G**                                                                        

  Atomic type no.    3
  --------------------
  Nuclear charge:   8.00000
  Number of symmetry independent centers:    4
  Number of basis sets to read;    2
  The basis set is "6-311G**" from the basis set library.
  Basis set file used for this atomic type with Z =   8 :
     "/zhome/9a/4/124800/source/dalton/build-mlcc/basis/6-311G**"

  Info about the basis set file: your basis has no documentation.
  Basis set: 6-311G**                                                                        

  Atomic type no.    4
  --------------------
  Nuclear charge:   1.00000
  Number of symmetry independent centers:    8
  Number of basis sets to read;    2
  The basis set is "6-311G**" from the basis set library.
  Basis set file used for this atomic type with Z =   1 :
     "/zhome/9a/4/124800/source/dalton/build-mlcc/basis/6-311G**"

  Info about the basis set file: your basis has no documentation.
  Basis set: 6-311G**                                                                        

  Atomic type no.    5
  --------------------
  Nuclear charge:   0.00000
  Number of symmetry independent centers:    1
  Number of basis sets to read;    2
  The basis set is "diffs" from the basis set library.
  Basis set file used for this atomic type with Z =   0 :
     "/zhome/9a/4/124800/source/dalton/build-mlcc/basis/diffs"

  Info about the basis set file: your basis has no documentation.
  Basis set: diffs                                                                           


                         SYMGRP: Point group information
                         -------------------------------

@    Point group: C1 


                                 Isotopic Masses
                                 ---------------

                           N          14.003074
                           H           1.007825
                           H           1.007825
                           H           1.007825
                           O          15.994915
                           O          15.994915
                           O          15.994915
                           O          15.994915
                           H           1.007825
                           H           1.007825
                           H           1.007825
                           H           1.007825
                           H           1.007825
                           H           1.007825
                           H           1.007825
                           H           1.007825

                       Total mass:    89.068809 amu
                       Natural abundance:  98.514 %

 Center-of-mass coordinates (a.u.):   -1.005867   -0.346268   -0.393648


  Atoms and basis sets
  --------------------

  Number of atom types :    5
  Total number of atoms:   17

  label    atoms   charge   prim   cont     basis
  ----------------------------------------------------------------------
  N           1    7.0000    31    18      [11s5p1d|4s3p1d]                                   
  H           3    1.0000     8     6      [5s1p|3s1p]                                        
  O           4    8.0000    31    18      [11s5p1d|4s3p1d]                                   
  H           8    1.0000     8     6      [5s1p|3s1p]                                        
  X           1    0.0000     1     1      [1s|1s]                                            
  ----------------------------------------------------------------------
  total:     17   50.0000   244   157
  ----------------------------------------------------------------------
  Spherical harmonic basis used.

  Threshold for neglecting AO integrals:  1.00D-12


  Cartesian Coordinates (a.u.)
  ----------------------------

  Total number of coordinates:   51
  N       :     1  x   0.0000000000    2  y   0.0000000000    3  z   0.0000000000
  H       :     4  x  -1.5025495879    5  y   0.4793535980    6  z   1.1317815427
  H       :     7  x  -0.0167051789    8  y  -1.9462364950    9  z  -0.0330531997
  H       :    10  x   1.6909968565   11  y   0.7063682872   12  z   0.5449195357
  O       :    13  x  -5.4249860754   14  y  -1.9611804492   15  z   0.5106304551
  O       :    16  x  -2.7357243858   17  y  -5.9694842021   18  z  -1.9949952085
  O       :    19  x   4.0418728478   20  y   3.3171950042   21  z   3.5613495093
  O       :    22  x  -0.8287072668   23  y   2.9513251291   24  z  -4.1510687822
  H       :    25  x  -6.4655637661   26  y  -0.8709105203   27  z   1.5643984342
  H       :    28  x  -5.0191371544   29  y  -1.0237062159   30  z  -1.0430400039
  H       :    31  x  -1.9135990351   32  y  -7.5498659399   33  z  -1.5884055149
  H       :    34  x  -4.5177399011   35  y  -6.4187306836   36  z  -2.2716624516
  H       :    37  x   2.5357838029   38  y   4.4123820005   39  z   3.6528500482
  H       :    40  x   5.4743041478   41  y   4.1353179149   42  z   4.4117432731
  H       :    43  x  -0.2681086734   44  y   2.1168749847   45  z  -5.7197739023
  H       :    46  x  -0.3723100617   47  y   1.7363880780   48  z  -2.5220643912
  X       :    49  x   0.0000000000   50  y   0.0000000000   51  z   0.0000000000

  Max    interatomic separation is    8.4651 Angstrom (   15.9968 Bohr)
  between atoms   14 and   12, "H     " and "H     ".

  Min HX interatomic separation is    0.9669 Angstrom (    1.8272 Bohr)

  Min YX interatomic separation is    2.7307 Angstrom (    5.1603 Bohr)


  Bond distances (Angstrom):
  --------------------------

                  atom 1     atom 2       distance
                  ------     ------       --------
  bond distance:  H          N            1.027253
  bond distance:  H          N            1.030090
  bond distance:  H          N            1.011734
  bond distance:  H          O            0.973156
  bond distance:  H          O            0.983966
  bond distance:  H          O            0.966935
  bond distance:  H          O            0.983465
  bond distance:  H          O            0.986616
  bond distance:  H          O            0.982098
  bond distance:  H          O            0.985949
  bond distance:  H          O            1.102166


  Bond angles (degrees):
  ----------------------

                  atom 1     atom 2     atom 3         angle
                  ------     ------     ------         -----
  bond angle:     H          N          H            104.486
  bond angle:     H          N          H            115.289
  bond angle:     H          N          H            112.447
  bond angle:     H          O          H            107.661
  bond angle:     H          O          H            104.801
  bond angle:     H          O          H            110.002
  bond angle:     H          O          H            109.350




 Principal moments of inertia (u*A**2) and principal axes
 --------------------------------------------------------

   IA     230.800879          0.645371    0.699724    0.306401
   IB     575.058190          0.149358   -0.508967    0.847729
   IC     656.000738          0.749125   -0.501336   -0.432982


 Rotational constants
 --------------------

               A                   B                   C

           2189.6754            878.8311            770.3940 MHz
            0.073040            0.029315            0.025698 cm-1


@  Nuclear repulsion energy :  181.876401834120 Hartree

  Number of floating/multiple basis set orbitals :    1


                     .---------------------------------------.
                     | Starting in Integral Section (HERMIT) |
                     `---------------------------------------'



 ***************************************************************************************
 ****************** Output from **INTEGRALS input processing (HERMIT) ******************
 ***************************************************************************************



    *************************************************************************
    ****************** Output from HERMIT input processing ******************
    *************************************************************************


 Default print level:        1

 * Nuclear model: Point charge

 Calculation of one- and two-electron Hamiltonian integrals.

 The following one-electron property integrals are calculated as requested:
          - overlap integrals
          - dipole length integrals

 Center of mass  (bohr):     -1.005866934149     -0.346267888359     -0.393647961908
 Operator center (bohr):      0.000000000000      0.000000000000      0.000000000000
 Gauge origin    (bohr):      0.000000000000      0.000000000000      0.000000000000
 Dipole origin   (bohr):      0.000000000000      0.000000000000      0.000000000000
 
  *********************************** 
  QMMM electrostatic potential: 
  Multipole order                                    0
  Isotropic polarization  
  *********************************** 
 
  ---------------- 
  QMMM information 
  ---------------- 
 
  MM coordinates in au 
  -------------------- 
     1      9.802431      6.227734     10.950173
     2     11.448142      6.620527     10.277393
     3      9.016248      7.765023     11.389801
     4    -11.312008     -7.959585      2.751923
     5    -10.236011     -9.510787      2.998729
     6    -10.988880     -6.778119      4.242983
     7     -6.576062     -4.479293      7.912423
     8     -5.936149     -4.455863      9.691674
     9     -8.131537     -5.529694      7.810527
    10     -9.370978      7.696805      7.664523
    11     -7.904080      8.765903      7.831532
    12     -9.098689      6.481470      6.293272
    13     -1.295538     -2.359710     -5.628680
    14     -1.538747     -3.233382     -7.219434
    15     -1.949880     -3.627787     -4.321269
    16      8.085133      2.942853     -8.492684
    17      6.742734      3.801904     -7.498091
    18      8.835157      4.156694     -9.643628
    19      0.175351     -7.179251    -11.554592
    20     -1.055631     -5.717839    -11.340418
    21     -0.164510     -7.985896    -13.211516
    22      5.842719     -5.847997      9.884218
    23      7.547179     -6.374651     10.682476
    24      4.643739     -6.471456     11.114385
    25    -10.836835      3.041189     -5.488556
    26    -12.477881      2.910122     -6.366363
    27     -9.905871      1.559207     -6.340793
    28     -7.345762     -1.581149     -8.170499
    29     -6.692306     -0.505848     -6.726701
    30     -8.882523     -2.477975     -7.740107
    31     -4.739129      3.645554      6.994800
    32     -5.594827      4.629547      8.318552
    33     -5.993699      2.382211      6.312003
    34      9.856651      0.060777     -2.387017
    35     10.752625      1.442288     -3.145944
    36      8.122256      0.680466     -2.345479
    37     10.557832      8.585013     -4.025969
    38      9.896362      9.939540     -2.894529
    39     11.179692      9.511952     -5.514470
    40      8.870403     10.902176      4.962255
    41      7.622046     12.048196      4.062991
    42      8.325873      9.135208      4.748235
    43     -1.569102      0.744059      9.753079
    44     -0.460798      0.135577      8.446787
    45     -3.012528      1.653971      8.720746
    46     -6.687518    -11.194798      7.724157
    47     -5.008918    -10.301094      7.798255
    48     -7.805625    -10.077172      8.730110
    49     -8.243405      5.473486     -1.157183
    50     -9.438738      6.554373     -2.015166
    51     -6.750206      6.606558     -0.780436
    52    -11.444722     -5.851252      7.775743
    53    -12.359268     -4.527801      8.770079
    54    -12.250813     -7.412169      8.471812
    55     -1.226240     -9.613630      7.321598
    56     -0.013714    -11.014821      7.557574
    57     -0.204113     -8.486486      6.094652
    58     10.272391    -10.401128      9.363400
    59     10.256303    -11.241809      7.581150
    60     11.071074    -11.422741     10.579212
    61      0.406970      6.738234    -10.144692
    62      1.522036      7.189805    -11.552621
    63      1.034990      5.085370     -9.657313
    64      9.022870     -7.008801     -9.502367
    65      9.184477     -5.688412     -8.225235
    66      7.661653     -8.064508     -8.983490
    67      3.353731     10.643391      1.990449
    68      2.112379     11.791564      0.939409
    69      4.119881      9.263950      0.927423
    70      2.798106     -1.384701      6.653728
    71      4.457614     -1.740262      7.669004
    72      3.196581      0.048963      5.475808
    73     -4.616049      6.205762     11.274049
    74     -5.607770      6.160163     12.783366
    75     -2.859167      6.642327     11.841022
    76     -5.899426      1.726960     -3.970687
    77     -6.793688      3.069055     -2.926090
    78     -3.986011      2.189643     -4.114408
    79      5.296494     -6.714229     -2.152468
    80      5.143296     -6.541414     -0.304656
    81      5.085499     -5.061418     -2.852923
    82      5.815373     10.365611     10.947389
    83      4.910988     11.645307     12.019098
    84      7.029396     11.503010     10.035126
    85      1.164515      1.577211     -9.270671
    86      0.156479      1.309756    -10.820334
    87      2.762689      0.686437     -9.398120
    88     -3.854244    -10.665798     -9.043216
    89     -2.441316     -9.759249     -9.936573
    90     -4.174120    -12.081605    -10.182115
    91      5.176655      6.511752     -5.260499
    92      3.592675      7.356534     -5.507499
    93      6.515600      7.797945     -5.081668
    94      3.765173     -2.034870     -4.164783
    95      1.819606     -2.041654     -4.591881
    96      3.820849     -0.532196     -3.000278
    97      3.746824     -9.663802     -8.922941
    98      2.372128     -8.559548     -9.546551
    99      3.019087    -10.821277     -7.714663
   100     -3.949269     -5.939821      3.681139
   101     -4.801998     -5.137581      5.243888
   102     -4.426931     -4.702636      2.324631
   103     -9.693673      1.861567    -11.215167
   104     -9.224456      3.525913    -10.465723
   105     -8.421910      0.563877    -10.729283
   106      0.922557     -9.745497     -1.523482
   107      2.505913     -8.908611     -2.113298
   108      0.637012    -11.040258     -2.849839
   109     -0.896084      6.184603      4.879158
   110     -2.368766      5.350465      5.510402
   111      0.263715      6.960901      6.213539
   112     -3.397860     -3.311305    -11.112979
   113     -2.926634     -1.675683    -12.140130
   114     -4.791786     -2.783357     -9.944453
   115     -7.934327      6.724088     -7.677421
   116     -8.909979      5.310601     -6.906872
   117     -6.200864      6.797231     -7.007070
   118     -9.709090    -10.019647     -4.937412
   119     -8.501190     -8.964014     -4.016877
   120    -11.256617     -9.981344     -3.846405
   121      0.137272     10.675535     -5.711365
   122     -0.816505      9.176654     -5.758011
   123     -0.821084     11.929762     -6.501922
   124    -11.077601     10.281074     -9.058415
   125    -10.430854     12.028230     -8.594113
   126     -9.682562      9.073197     -8.503584
   127     -3.243781      7.008860     -5.602819
   128     -2.188475      5.493366     -5.082562
   129     -3.506927      7.683732     -3.832676
   130      2.482614      9.367246      7.079963
   131      3.738810     10.051933      8.342659
   132      3.012522      9.857068      5.395487
   133      9.416297     -9.731460     -1.954340
   134      9.895358     -9.152822     -0.315720
   135      7.878933     -8.721885     -2.342773
   136     -3.904773      8.339055      0.448264
   137     -2.763715      7.754642      1.791305
   138     -4.253598     10.066407      0.964133
   139      5.480914     -1.315110     -9.383641
   140      4.901271     -1.828329     -7.723097
   141      6.471690      0.234472     -9.062554
   142     11.742811      2.759242      2.689001
   143     12.811546      3.590011      1.454420
   144     10.914266      1.556554      1.625644
   145      5.632427      2.424007     -1.382673
   146      5.159162      3.907226     -2.377052
   147      5.142977      2.918807      0.489734
   148     -8.412792     -8.016600    -11.485423
   149     -6.989415     -8.576877    -10.482490
   150     -9.715167     -7.726926    -10.211475
   151     -8.346074     -6.108819     -1.533205
   152     -7.632311     -4.523685     -0.825618
   153     -9.511048     -6.840620     -0.346738
   154      9.611911     -1.225281      9.968547
   155     10.825699     -0.027490     10.679647
   156      8.304088     -1.747605     11.258922
   157      8.106230      5.761304      5.861148
   158      9.561988      4.765268      5.073969
   159      8.612451      6.012670      7.642457
   160      1.157831     -5.721034      4.240162
   161      1.689680     -4.195285      5.273029
   162     -0.616837     -5.649062      3.845704
   163     -6.697212    -10.444051      2.256307
   164     -6.526687    -11.203976      3.982500
   165     -5.761932     -8.879918      2.414218
   166     -8.186554     -0.036872      5.209916
   167     -9.969124      0.388511      4.781512
   168     -8.121637     -1.236854      6.536328
   169      6.742533     -7.595928      3.192551
   170      5.804282     -6.978144      4.675426
   171      8.511602     -7.404189      3.705683
   172      8.030104     -1.056612      3.745891
   173      8.518602     -1.291252      5.550711
   174      7.602652     -2.807097      3.080892
   175     11.687790     -3.380529     -5.992076
   176     12.297761     -4.885343     -4.792162
   177     10.973670     -2.309017     -4.550426
 
  MM charges 
  ---------- 
     1     -0.674440
     2      0.337220
     3      0.337220
     4     -0.674440
     5      0.337220
     6      0.337220
     7     -0.674440
     8      0.337220
     9      0.337220
    10     -0.674440
    11      0.337220
    12      0.337220
    13     -0.674440
    14      0.337220
    15      0.337220
    16     -0.674440
    17      0.337220
    18      0.337220
    19     -0.674440
    20      0.337220
    21      0.337220
    22     -0.674440
    23      0.337220
    24      0.337220
    25     -0.674440
    26      0.337220
    27      0.337220
    28     -0.674440
    29      0.337220
    30      0.337220
    31     -0.674440
    32      0.337220
    33      0.337220
    34     -0.674440
    35      0.337220
    36      0.337220
    37     -0.674440
    38      0.337220
    39      0.337220
    40     -0.674440
    41      0.337220
    42      0.337220
    43     -0.674440
    44      0.337220
    45      0.337220
    46     -0.674440
    47      0.337220
    48      0.337220
    49     -0.674440
    50      0.337220
    51      0.337220
    52     -0.674440
    53      0.337220
    54      0.337220
    55     -0.674440
    56      0.337220
    57      0.337220
    58     -0.674440
    59      0.337220
    60      0.337220
    61     -0.674440
    62      0.337220
    63      0.337220
    64     -0.674440
    65      0.337220
    66      0.337220
    67     -0.674440
    68      0.337220
    69      0.337220
    70     -0.674440
    71      0.337220
    72      0.337220
    73     -0.674440
    74      0.337220
    75      0.337220
    76     -0.674440
    77      0.337220
    78      0.337220
    79     -0.674440
    80      0.337220
    81      0.337220
    82     -0.674440
    83      0.337220
    84      0.337220
    85     -0.674440
    86      0.337220
    87      0.337220
    88     -0.674440
    89      0.337220
    90      0.337220
    91     -0.674440
    92      0.337220
    93      0.337220
    94     -0.674440
    95      0.337220
    96      0.337220
    97     -0.674440
    98      0.337220
    99      0.337220
   100     -0.674440
   101      0.337220
   102      0.337220
   103     -0.674440
   104      0.337220
   105      0.337220
   106     -0.674440
   107      0.337220
   108      0.337220
   109     -0.674440
   110      0.337220
   111      0.337220
   112     -0.674440
   113      0.337220
   114      0.337220
   115     -0.674440
   116      0.337220
   117      0.337220
   118     -0.674440
   119      0.337220
   120      0.337220
   121     -0.674440
   122      0.337220
   123      0.337220
   124     -0.674440
   125      0.337220
   126      0.337220
   127     -0.674440
   128      0.337220
   129      0.337220
   130     -0.674440
   131      0.337220
   132      0.337220
   133     -0.674440
   134      0.337220
   135      0.337220
   136     -0.674440
   137      0.337220
   138      0.337220
   139     -0.674440
   140      0.337220
   141      0.337220
   142     -0.674440
   143      0.337220
   144      0.337220
   145     -0.674440
   146      0.337220
   147      0.337220
   148     -0.674440
   149      0.337220
   150      0.337220
   151     -0.674440
   152      0.337220
   153      0.337220
   154     -0.674440
   155      0.337220
   156      0.337220
   157     -0.674440
   158      0.337220
   159      0.337220
   160     -0.674440
   161      0.337220
   162      0.337220
   163     -0.674440
   164      0.337220
   165      0.337220
   166     -0.674440
   167      0.337220
   168      0.337220
   169     -0.674440
   170      0.337220
   171      0.337220
   172     -0.674440
   173      0.337220
   174      0.337220
   175     -0.674440
   176      0.337220
   177      0.337220
 
  MM isotropic polarizabilities in au 
  ----------------------------------- 
     1      5.739350
     2      2.308390
     3      2.308390
     4      5.739350
     5      2.308390
     6      2.308390
     7      5.739350
     8      2.308390
     9      2.308390
    10      5.739350
    11      2.308390
    12      2.308390
    13      5.739350
    14      2.308390
    15      2.308390
    16      5.739350
    17      2.308390
    18      2.308390
    19      5.739350
    20      2.308390
    21      2.308390
    22      5.739350
    23      2.308390
    24      2.308390
    25      5.739350
    26      2.308390
    27      2.308390
    28      5.739350
    29      2.308390
    30      2.308390
    31      5.739350
    32      2.308390
    33      2.308390
    34      5.739350
    35      2.308390
    36      2.308390
    37      5.739350
    38      2.308390
    39      2.308390
    40      5.739350
    41      2.308390
    42      2.308390
    43      5.739350
    44      2.308390
    45      2.308390
    46      5.739350
    47      2.308390
    48      2.308390
    49      5.739350
    50      2.308390
    51      2.308390
    52      5.739350
    53      2.308390
    54      2.308390
    55      5.739350
    56      2.308390
    57      2.308390
    58      5.739350
    59      2.308390
    60      2.308390
    61      5.739350
    62      2.308390
    63      2.308390
    64      5.739350
    65      2.308390
    66      2.308390
    67      5.739350
    68      2.308390
    69      2.308390
    70      5.739350
    71      2.308390
    72      2.308390
    73      5.739350
    74      2.308390
    75      2.308390
    76      5.739350
    77      2.308390
    78      2.308390
    79      5.739350
    80      2.308390
    81      2.308390
    82      5.739350
    83      2.308390
    84      2.308390
    85      5.739350
    86      2.308390
    87      2.308390
    88      5.739350
    89      2.308390
    90      2.308390
    91      5.739350
    92      2.308390
    93      2.308390
    94      5.739350
    95      2.308390
    96      2.308390
    97      5.739350
    98      2.308390
    99      2.308390
   100      5.739350
   101      2.308390
   102      2.308390
   103      5.739350
   104      2.308390
   105      2.308390
   106      5.739350
   107      2.308390
   108      2.308390
   109      5.739350
   110      2.308390
   111      2.308390
   112      5.739350
   113      2.308390
   114      2.308390
   115      5.739350
   116      2.308390
   117      2.308390
   118      5.739350
   119      2.308390
   120      2.308390
   121      5.739350
   122      2.308390
   123      2.308390
   124      5.739350
   125      2.308390
   126      2.308390
   127      5.739350
   128      2.308390
   129      2.308390
   130      5.739350
   131      2.308390
   132      2.308390
   133      5.739350
   134      2.308390
   135      2.308390
   136      5.739350
   137      2.308390
   138      2.308390
   139      5.739350
   140      2.308390
   141      2.308390
   142      5.739350
   143      2.308390
   144      2.308390
   145      5.739350
   146      2.308390
   147      2.308390
   148      5.739350
   149      2.308390
   150      2.308390
   151      5.739350
   152      2.308390
   153      2.308390
   154      5.739350
   155      2.308390
   156      2.308390
   157      5.739350
   158      2.308390
   159      2.308390
   160      5.739350
   161      2.308390
   162      2.308390
   163      5.739350
   164      2.308390
   165      2.308390
   166      5.739350
   167      2.308390
   168      2.308390
   169      5.739350
   170      2.308390
   171      2.308390
   172      5.739350
   173      2.308390
   174      2.308390
   175      5.739350
   176      2.308390
   177      2.308390


     ************************************************************************
     ************************** Output from HERINT **************************
     ************************************************************************



                      Nuclear contribution to dipole moments
                      --------------------------------------

                 au               Debye          C m (/(10**-30)

      x    -49.95498759      -126.97290527      -423.53602260
      y    -17.51992114       -44.53119486      -148.54007721
      z    -18.46497884       -46.93329179      -156.55261010



 Threshold for neglecting two-electron integrals:  1.00D-12
 HERMIT - Number of two-electron integrals written:    28868112 ( 37.5% )
 HERMIT - Megabytes written:                            330.556

  Time used in TWOINT     is       5.47 seconds
  Total CPU  time used in HERMIT:   5.65 seconds
  Total wall time used in HERMIT:  10.55 seconds


                        .----------------------------------.
                        | End of Integral Section (HERMIT) |
                        `----------------------------------'



                   .--------------------------------------------.
                   | Starting in Wave Function Section (SIRIUS) |
                   `--------------------------------------------'

NCCEXCI for singlet:    1
 CCSD_INPUT: core-val requested
 Requested number of virtual orbs per sym
                     1
 Indices of requested virtual orbs
                     1
 CCSD_INPUT: core-val requested
 Requested number of core orbs per sym
                     1
 Indices of requested core orbs
                     1

 *** Output from Huckel module :

     Using EWMO model:          T
     Using EHT  model:          F
     Number of Huckel orbitals each symmetry:   36

 EWMO - Energy Weighted Maximum Overlap - is a Huckel type method,
        which normally is better than Extended Huckel Theory.
 Reference: Linderberg and Ohrn, Propagators in Quantum Chemistry (Wiley, 1973)

 Huckel EWMO eigenvalues for symmetry :  1
          -20.685055     -20.684560     -20.684303     -20.683871     -15.673930
           -1.711972      -1.613172      -1.588252      -1.570135      -1.448315
           -0.822259      -0.812810      -0.795696      -0.770750      -0.736995
           -0.711714      -0.696825      -0.682768      -0.673258      -0.659541
           -0.615946      -0.614225      -0.607923      -0.596011      -0.508745
           -0.257700      -0.243513      -0.232105      -0.224288      -0.186574
           -0.175650      -0.173904      -0.173444      -0.165557      -0.151946
           -0.142090

 **********************************************************************
 *SIRIUS* a direct, restricted step, second order MCSCF program       *
 **********************************************************************

 
     Date and time (Linux)  : Thu Nov 29 08:58:29 2018
     Host name              : n-62-29-8                               

 Title lines from ".mol" input file:
                                                                             
                                                                             

 Print level on unit LUPRI =   2 is   0
 Print level on unit LUW4  =   2 is  11

@    (Integral direct) CC calculation.

@    This is a combination run starting with
@              a restricted, closed shell Hartree-Fock calculation


 Initial molecular orbitals are obtained according to
 ".MOSTART EWMO  " input option

@    QM part is embedded in an environment :

@         Model: QMMM

     Wave function specification
     ============================

     For the specification of the Coupled Cluster: see later.

@    Wave function type        --- CC ---
@    Number of closed shell electrons          50
@    Number of electrons in active shells       0
@    Total charge of the molecule               0

@    Spin multiplicity and 2 M_S                1         0
@    Total number of symmetries                 1 (point group: C1 )
@    Reference state symmetry                   1 (irrep name : A  )

     Orbital specifications
     ======================
@    Abelian symmetry species          All |    1
@                                          |  A  
                                       --- |  ---
@    Occupied SCF orbitals              25 |   25
@    Secondary orbitals                132 |  132
@    Total number of orbitals          157 |  157
@    Number of basis functions         157 |  157

     Optimization information
     ========================
@    Number of configurations                 1
@    Number of orbital rotations           3300
     ------------------------------------------
@    Total number of variables             3301

     Maximum number of Fock   iterations      0
     Maximum number of DIIS   iterations     60
     Maximum number of QC-SCF iterations     60
     Threshold for SCF convergence     1.00D-07


 Changes of defaults for CC:
 ---------------------------


 -Implicit frozen core calculation
 -Excitation energies calculated
 -One-photon absorption strengths will be calculated
 -Oscillator strengths calculated
  
* Read MO coefficients from SIRIUS.RST with label "NEWORB  " and header info: 29Nov18  REORTHO 


 ***********************************************
 ***** DIIS acceleration of SCF iterations *****
 ***********************************************

 C1-DIIS algorithm; max error vectors =    8
 -----------------------------------------------------------------------------

 *** DIIS iteration number    1
 RDSUPM called. NFMAT, ISYMDM(1:NFMAT)                     1
                     1

Calculating AOSUPINT
     (Precalculated two-electron integrals are transformed to P-supermatrix elements.
      Threshold for discarding integrals :  1.00D-12 )
  CPU  time used in FORMSUP    is   4.36 seconds
  WALL time used in FORMSUP    is  14.45 seconds

 ITDIIS, energy, error norm, change in energy, scr.thr., difden:
@ DIIS iter.   1    -359.862900560        3.81088D+00   -3.60D+02  -20    F

 (DIIS_RED) Control Parameters C2DIIS =         F NEVC =    1


 (DIIS_RED) B matrix:

               Column   1
       1      14.52279428
    ==== End of matrix output ====

 DIIS C vector; C2DIIS = F, LAMBDA = -1.45D+01
    1.000000
* Read MO coefficients from SIRIUS.RST with label "NEWORB  " and header info: 29Nov18  DIIS   1
      Virial theorem: -V/T =      1.998040
@      MULPOP N      -0.24; H       0.17; H       0.16; H       0.15; O      -0.62; O      -0.62; O      -0.62; O      -0.90; H       0.31; H       0.33; 
@             H       0.32; H       0.32; H       0.33; H       0.31; H       0.32; H       0.31; 
   1  Level shift: doubly occupied orbital energies shifted by -2.00D-01

 DIIS Fock eigenvalues in symmetry 1
      -20.75472      -20.74753      -20.70394      -20.48989      -16.09092
       -1.58158       -1.57489       -1.53185       -1.49633       -1.43191
       -1.01910       -0.98760       -0.96737       -0.96187       -0.91153
       -0.89541       -0.82658       -0.81858       -0.78970       -0.78318
       -0.77887       -0.76910       -0.72912       -0.69954       -0.65005
        0.00000        0.07934        0.12382        0.16207        0.17537
        0.19761        0.21238        0.23411        0.25000        0.25217
        0.29596        0.34730        0.38535        0.45030        0.47000
        0.50324        0.52811        0.54011        0.55319        0.57428
        0.59155        0.61650        0.62138        0.79827        0.80331
        0.82107        0.90318        0.91307        0.95812        0.97765
        0.99150        1.00931        1.02718        1.06647        1.07183
        1.10575        1.14851        1.15291        1.20454        1.21342
        1.25692        1.29516        1.34007        1.36901        1.42116
        1.43393        1.46078        1.48133        1.50240        1.50455
        1.52814        1.54067        1.62484        1.62639        1.66485
        1.68350        1.69336        1.70939        1.76646        1.79879
        1.80723        1.84154        1.89068        1.90092        1.91527
        2.08863        2.11468        2.18116        2.19509        2.21657
        2.26708        2.27386        2.28678        2.31035        2.34768
        2.39452        2.53565        2.56316        2.57851        2.58683
        2.61560        2.67765        2.72818        2.75288        2.78291
        2.79463        2.80964        2.85505        2.90799        3.05828
        3.21956        3.26232        3.36346        3.39400        3.44719
        3.45012        3.46467        3.46987        3.51194        3.57383
        3.58859        3.61181        3.64692        3.67181        3.95131
        3.97051        3.97979        3.98868        4.14988        4.15313
        4.20228        4.25885        4.44083        4.90138        5.02309
        5.26469        5.33309        5.35085        5.45711        5.67941
        5.68399        5.76142        5.78544        6.08760        6.09500
        6.13405        6.21281       36.67141       51.51775       51.52933
       51.57418       51.78833
 Time used in FCKEIG, thr_jaco:   4.30D-02  1.62D-01  1.66D-04
 CPU and wall times used in FCKEIG, THR_FCKEIG:   4.30D-02  1.64D-01  3.81D-02
 -----------------------------------------------------------------------------

 *** DIIS iteration number    2
 RDSUPM called. NFMAT, ISYMDM(1:NFMAT)                     1
                     1

 ITDIIS, energy, error norm, change in energy, scr.thr., difden:
@ DIIS iter.   2    -360.654362508        1.02057D+00   -7.91D-01  -20    F

 (DIIS_RED) Control Parameters C2DIIS =         F NEVC =    2


 (DIIS_RED) B matrix:

               Column   1     Column   2
       1      14.52279428
       2       0.72703445     1.04155808
    ==== End of matrix output ====

 DIIS C vector; C2DIIS = F, LAMBDA = -1.03D+00
    0.022290    0.977710
* Read MO coefficients from SIRIUS.RST with label "NEWORB  " and header info: 29Nov18  DIIS   2
      Virial theorem: -V/T =      2.004119
@      MULPOP N      -0.68; H       0.24; H       0.27; H       0.25; O      -0.56; O      -0.57; O      -0.61; O      -0.77; H       0.27; H       0.31; 
@             H       0.31; H       0.27; H       0.30; H       0.33; H       0.28; H       0.36; 
   2  Level shift: doubly occupied orbital energies shifted by -1.00D-01

 DIIS Fock eigenvalues in symmetry 1
      -20.76099      -20.71011      -20.69546      -20.64761      -15.54484
       -1.47458       -1.46227       -1.43960       -1.42023       -1.23227
       -0.84483       -0.83491       -0.80734       -0.78419       -0.75830
       -0.72859       -0.71945       -0.71791       -0.70577       -0.67389
       -0.66089       -0.65859       -0.64784       -0.60554       -0.53441
        0.00000        0.12785        0.15623        0.19555        0.21003
        0.22594        0.24489        0.26116        0.28186        0.28970
        0.31961        0.36796        0.45503        0.49394        0.52780
        0.54511        0.57134        0.58121        0.58378        0.61227
        0.62573        0.65357        0.66022        0.88927        0.89698
        0.91364        0.93977        0.94523        0.95281        0.96113
        1.02131        1.03199        1.05318        1.07603        1.09413
        1.11650        1.13735        1.22320        1.24660        1.28304
        1.32627        1.34106        1.36937        1.40784        1.47935
        1.49352        1.50921        1.52503        1.54288        1.55423
        1.56654        1.57859        1.64281        1.68729        1.71190
        1.72735        1.75072        1.77853        1.83553        1.84765
        1.88109        1.89655        1.95525        1.97053        1.99264
        2.19887        2.22922        2.24151        2.25648        2.26897
        2.28871        2.32921        2.34588        2.40987        2.42585
        2.45274        2.60238        2.62447        2.63848        2.65963
        2.70470        2.71261        2.78832        2.81549        2.84912
        2.87398        2.96050        3.01711        3.02357        3.21795
        3.33718        3.39113        3.41520        3.43733        3.47042
        3.47364        3.47878        3.49326        3.49542        3.53663
        3.55413        3.62197        3.63716        3.70098        3.92259
        3.99916        3.99991        4.01359        4.11853        4.17092
        4.18137        4.28237        4.62005        5.16763        5.25624
        5.26457        5.29465        5.33761        5.35545        5.59125
        5.67452        5.68982        5.78743        6.05225        6.10817
        6.11210        6.15546       37.10881       51.42272       51.47038
       51.48004       51.53304
 Time used in FCKEIG, thr_jaco:   3.00D-02  1.79D-01  4.44D-05
 CPU and wall times used in FCKEIG, THR_FCKEIG:   3.00D-02  1.79D-01  1.02D-02
 -----------------------------------------------------------------------------

 *** DIIS iteration number    3
 RDSUPM called. NFMAT, ISYMDM(1:NFMAT)                     1
                     1

 ITDIIS, energy, error norm, change in energy, scr.thr., difden:
@ DIIS iter.   3    -360.720338971        3.95549D-01   -6.60D-02  -20    F

 (DIIS_RED) Control Parameters C2DIIS =         F NEVC =    3


 (DIIS_RED) B matrix:

               Column   1     Column   2     Column   3
       1      14.52279428
       2       0.72703445     1.04155808
       3       0.79090944     0.00979795     0.15645903
    ==== End of matrix output ====

 DIIS C vector; C2DIIS = F, LAMBDA = -1.06D-01
   -0.049249    0.127915    0.921334
* Read MO coefficients from SIRIUS.RST with label "NEWORB  " and header info: 29Nov18  DIIS   3
      Virial theorem: -V/T =      2.001980
@      MULPOP N      -0.59; H       0.21; H       0.24; H       0.22; O      -0.61; O      -0.62; O      -0.66; O      -0.88; H       0.29; H       0.33; 
@             H       0.34; H       0.29; H       0.32; H       0.36; H       0.35; H       0.41; 
   3  Level shift: doubly occupied orbital energies shifted by -5.00D-02

 DIIS Fock eigenvalues in symmetry 1
      -20.62522      -20.62292      -20.57365      -20.54833      -15.64207
       -1.41012       -1.40251       -1.35975       -1.33632       -1.22112
       -0.77979       -0.77379       -0.73596       -0.72179       -0.72081
       -0.69444       -0.65692       -0.64470       -0.62143       -0.61043
       -0.59148       -0.58691       -0.53725       -0.53583       -0.50284
        0.00000        0.13178        0.16083        0.19920        0.21490
        0.22965        0.24671        0.26763        0.28332        0.29086
        0.32178        0.37543        0.45431        0.50394        0.53502
        0.54849        0.57929        0.59040        0.59146        0.62207
        0.63665        0.65833        0.66693        0.89294        0.90374
        0.90606        0.94818        0.95426        0.97183        0.97476
        1.02954        1.04406        1.06595        1.08633        1.10632
        1.14011        1.14794        1.22446        1.25370        1.29000
        1.33098        1.33782        1.37779        1.41488        1.49035
        1.50542        1.52142        1.53811        1.55441        1.56659
        1.57778        1.58948        1.66054        1.69770        1.72223
        1.73999        1.75989        1.78419        1.84277        1.85596
        1.88496        1.90698        1.96343        1.97551        1.99438
        2.19221        2.23597        2.24561        2.25802        2.28145
        2.31377        2.34150        2.36023        2.41852        2.42778
        2.46652        2.61162        2.63575        2.64980        2.66810
        2.70966        2.72212        2.79730        2.82446        2.85848
        2.88213        2.93673        2.99432        3.01851        3.19420
        3.37707        3.40865        3.42438        3.43432        3.44204
        3.49348        3.51077        3.51173        3.53577        3.55433
        3.61510        3.63896        3.65878        3.71913        3.96722
        4.01658        4.02075        4.03093        4.17884        4.19342
        4.19974        4.30186        4.57386        5.10790        5.22636
        5.29389        5.35708        5.35926        5.37730        5.67890
        5.69969        5.70852        5.80801        6.13164        6.13467
        6.14163        6.17637       36.96606       51.50206       51.50437
       51.55730       51.58567
 Time used in FCKEIG, thr_jaco:   3.00D-02  8.30D-02  1.72D-05
 CPU and wall times used in FCKEIG, THR_FCKEIG:   3.00D-02  8.30D-02  3.96D-03
 -----------------------------------------------------------------------------

 *** DIIS iteration number    4
 RDSUPM called. NFMAT, ISYMDM(1:NFMAT)                     1
                     1

 ITDIIS, energy, error norm, change in energy, scr.thr., difden:
@ DIIS iter.   4    -360.730882315        1.10850D-01   -1.05D-02  -20    F

 (DIIS_RED) Control Parameters C2DIIS =         F NEVC =    4


 (DIIS_RED) B matrix:

               Column   1     Column   2     Column   3     Column   4
       1      14.52279428
       2       0.72703445     1.04155808
       3       0.79090944     0.00979795     0.15645903
       4       0.02965771     0.09173301    -0.00291188     0.01228769
    ==== End of matrix output ====

 DIIS C vector; C2DIIS = F, LAMBDA = -4.54D-03
   -0.000523   -0.086589    0.056294    1.030818
* Read MO coefficients from SIRIUS.RST with label "NEWORB  " and header info: 29Nov18  DIIS   4
      Virial theorem: -V/T =      2.002767
@      MULPOP N      -0.67; H       0.23; H       0.26; H       0.24; O      -0.62; O      -0.64; O      -0.68; O      -0.87; H       0.30; H       0.34; 
@             H       0.35; H       0.30; H       0.32; H       0.37; H       0.36; H       0.42; 
   4  Level shift: doubly occupied orbital energies shifted by -2.50D-02

 DIIS Fock eigenvalues in symmetry 1
      -20.60578      -20.60202      -20.56333      -20.55159      -15.59297
       -1.38758       -1.38017       -1.33653       -1.32423       -1.18772
       -0.75630       -0.75115       -0.70871       -0.69830       -0.69574
       -0.66347       -0.63186       -0.61977       -0.60430       -0.58449
       -0.56460       -0.56010       -0.52154       -0.50820       -0.47135
        0.00000        0.13246        0.16020        0.19945        0.21448
        0.23011        0.24751        0.26726        0.28400        0.29291
        0.32238        0.37637        0.45802        0.50554        0.53691
        0.55063        0.57823        0.58992        0.59071        0.62153
        0.63533        0.65931        0.66646        0.89685        0.90711
        0.91160        0.95153        0.95627        0.96926        0.97243
        1.03102        1.04476        1.06600        1.08666        1.10554
        1.13540        1.14729        1.22623        1.25377        1.29047
        1.33248        1.34228        1.37945        1.41690        1.48815
        1.50459        1.52069        1.53660        1.55325        1.56538
        1.57627        1.58860        1.65889        1.69729        1.72040
        1.73854        1.75953        1.78660        1.84371        1.85559
        1.88627        1.90629        1.96310        1.97845        1.99708
        2.19786        2.23966        2.24551        2.25762        2.27973
        2.30738        2.33875        2.35891        2.41945        2.42957
        2.46737        2.61080        2.63468        2.64802        2.66974
        2.71169        2.72155        2.79587        2.82460        2.85667
        2.88350        2.94542        3.00271        3.02370        3.20233
        3.37632        3.40744        3.42524        3.43607        3.44956
        3.49377        3.50987        3.51058        3.52416        3.55448
        3.60332        3.63822        3.65820        3.71931        3.95930
        4.01541        4.01974        4.03072        4.16714        4.19303
        4.19915        4.30207        4.58336        5.12143        5.23809
        5.29286        5.33954        5.35647        5.37451        5.65959
        5.69797        5.70711        5.80743        6.12129        6.12909
        6.13251        6.17471       36.98990       51.49793       51.49875
       51.54676       51.55471
 Time used in FCKEIG, thr_jaco:   2.70D-02  4.80D-02  4.82D-06
 CPU and wall times used in FCKEIG, THR_FCKEIG:   2.70D-02  4.80D-02  1.11D-03
 -----------------------------------------------------------------------------

 *** DIIS iteration number    5
 RDSUPM called. NFMAT, ISYMDM(1:NFMAT)                     1
                     1

 ITDIIS, energy, error norm, change in energy, scr.thr., difden:
@ DIIS iter.   5    -360.732124032        2.65376D-02   -1.24D-03  -20    F

 (DIIS_RED) Control Parameters C2DIIS =         F NEVC =    5


 (DIIS_RED) B matrix:

               Column   1     Column   2     Column   3     Column   4     Column   5
       1      14.52279428
       2       0.72703445     1.04155808
       3       0.79090944     0.00979795     0.15645903
       4       0.02965771     0.09173301    -0.00291188     0.01228769
       5       0.01615507     0.00723183     0.00567870     0.00115764     0.00070425
    ==== End of matrix output ====

 DIIS C vector; C2DIIS = F, LAMBDA = -4.52D-04
    0.001569   -0.001881   -0.046724   -0.069158    1.116193
* Read MO coefficients from SIRIUS.RST with label "NEWORB  " and header info: 29Nov18  DIIS   5
      Virial theorem: -V/T =      2.002452
@      MULPOP N      -0.67; H       0.23; H       0.26; H       0.24; O      -0.63; O      -0.65; O      -0.69; O      -0.89; H       0.30; H       0.34; 
@             H       0.36; H       0.30; H       0.33; H       0.37; H       0.37; H       0.42; 

 DIIS Fock eigenvalues in symmetry 1
      -20.58015      -20.57653      -20.52993      -20.52650      -15.56123
       -1.36231       -1.35508       -1.31143       -1.29640       -1.16088
       -0.73147       -0.72661       -0.68230       -0.67339       -0.66957
       -0.63699       -0.60698       -0.59492       -0.57691       -0.55975
       -0.53858       -0.53400       -0.49306       -0.48236       -0.44392
        0.00000        0.13254        0.16004        0.19946        0.21446
        0.23027        0.24756        0.26730        0.28405        0.29309
        0.32233        0.37693        0.45841        0.50611        0.53711
        0.55086        0.57793        0.58991        0.59056        0.62141
        0.63554        0.65960        0.66638        0.89749        0.90875
        0.91255        0.95220        0.95712        0.97079        0.97408
        1.03130        1.04507        1.06628        1.08730        1.10558
        1.13630        1.14745        1.22675        1.25385        1.29074
        1.33281        1.34302        1.37955        1.41769        1.48757
        1.50439        1.52056        1.53683        1.55328        1.56525
        1.57605        1.58866        1.65978        1.69717        1.71996
        1.73859        1.75929        1.78680        1.84404        1.85561
        1.88654        1.90595        1.96280        1.97880        1.99745
        2.19859        2.23975        2.24550        2.25749        2.27918
        2.30786        2.33814        2.35864        2.41933        2.43001
        2.46816        2.61033        2.63428        2.64754        2.66973
        2.71170        2.72147        2.79523        2.82418        2.85604
        2.88331        2.94690        3.00429        3.02473        3.20381
        3.37897        3.40767        3.42759        3.43657        3.45148
        3.49381        3.50989        3.51087        3.52682        3.55436
        3.60610        3.63823        3.65835        3.71922        3.96227
        4.01530        4.01984        4.03062        4.17014        4.19314
        4.19916        4.30203        4.58679        5.12450        5.24087
        5.29348        5.34434        5.35676        5.37524        5.66411
        5.69820        5.70725        5.80741        6.12537        6.12902
        6.13270        6.17452       36.99648       51.49845       51.49951
       51.55385       51.55581
 Time used in FCKEIG, thr_jaco:   2.60D-02  8.10D-02  1.15D-06
 CPU and wall times used in FCKEIG, THR_FCKEIG:   2.60D-02  8.10D-02  2.65D-04
 -----------------------------------------------------------------------------

 *** DIIS iteration number    6
 RDSUPM called. NFMAT, ISYMDM(1:NFMAT)                     1
                     1

 ITDIIS, energy, error norm, change in energy, scr.thr., difden:
@ DIIS iter.   6    -360.732219962        9.71049D-03   -9.59D-05  -20    F

 (DIIS_RED) Control Parameters C2DIIS =         F NEVC =    6


 (DIIS_RED) B matrix:

               Column   1     Column   2     Column   3     Column   4     Column   5     Column   6
       1      14.52279428
       2       0.72703445     1.04155808
       3       0.79090944     0.00979795     0.15645903
       4       0.02965771     0.09173301    -0.00291188     0.01228769
       5       0.01615507     0.00723183     0.00567870     0.00115764     0.00070425
       6      -0.00146667    -0.00040090     0.00082551     0.00034981     0.00006270     0.00009429
    ==== End of matrix output ====

 DIIS C vector; C2DIIS = F, LAMBDA = -4.17D-05
    0.000636    0.008454   -0.017627   -0.110403    0.199597    0.919344
* Read MO coefficients from SIRIUS.RST with label "NEWORB  " and header info: 29Nov18  DIIS   6
      Virial theorem: -V/T =      2.002592
@      MULPOP N      -0.67; H       0.22; H       0.26; H       0.23; O      -0.64; O      -0.65; O      -0.69; O      -0.89; H       0.31; H       0.35; 
@             H       0.36; H       0.30; H       0.33; H       0.37; H       0.37; H       0.42; 

 DIIS Fock eigenvalues in symmetry 1
      -20.58013      -20.57662      -20.53265      -20.52624      -15.56537
       -1.36224       -1.35507       -1.31127       -1.29713       -1.16225
       -0.73162       -0.72683       -0.68329       -0.67353       -0.67055
       -0.63812       -0.60716       -0.59516       -0.57770       -0.55983
       -0.53836       -0.53376       -0.49360       -0.48204       -0.44506
        0.00000        0.13240        0.15995        0.19933        0.21432
        0.23013        0.24741        0.26716        0.28387        0.29290
        0.32219        0.37662        0.45800        0.50570        0.53688
        0.55059        0.57777        0.58974        0.59035        0.62129
        0.63530        0.65928        0.66622        0.89712        0.90805
        0.91185        0.95193        0.95700        0.97045        0.97367
        1.03122        1.04505        1.06615        1.08708        1.10534
        1.13584        1.14728        1.22635        1.25371        1.29052
        1.33258        1.34244        1.37950        1.41719        1.48735
        1.50417        1.52038        1.53653        1.55301        1.56505
        1.57581        1.58836        1.65932        1.69693        1.71972
        1.73826        1.75910        1.78642        1.84358        1.85521
        1.88603        1.90576        1.96257        1.97834        1.99694
        2.19781        2.23931        2.24504        2.25702        2.27904
        2.30728        2.33791        2.35845        2.41907        2.42948
        2.46759        2.61005        2.63404        2.64736        2.66938
        2.71125        2.72103        2.79492        2.82387        2.85580
        2.88294        2.94571        3.00304        3.02392        3.20266
        3.37784        3.40758        3.42632        3.43636        3.45006
        3.49390        3.50980        3.51076        3.52597        3.55443
        3.60525        3.63815        3.65833        3.71930        3.96118
        4.01519        4.01980        4.03067        4.16914        4.19314
        4.19908        4.30210        4.58470        5.12236        5.23901
        5.29333        5.34294        5.35691        5.37519        5.66264
        5.69820        5.70716        5.80752        6.12397        6.12889
        6.13259        6.17459       36.99243       51.49839       51.49944
       51.55203       51.55525
 Time used in FCKEIG, thr_jaco:   2.70D-02  6.80D-02  4.23D-07
 CPU and wall times used in FCKEIG, THR_FCKEIG:   2.70D-02  6.80D-02  9.71D-05
 -----------------------------------------------------------------------------

 *** DIIS iteration number    7
 RDSUPM called. NFMAT, ISYMDM(1:NFMAT)                     1
                     1

 ITDIIS, energy, error norm, change in energy, scr.thr., difden:
@ DIIS iter.   7    -360.732229159        2.41538D-03   -9.20D-06  -20    F

 (DIIS_RED) Control Parameters C2DIIS =         F NEVC =    7


 (DIIS_RED) B matrix:

               Column   1     Column   2     Column   3     Column   4     Column   5     Column   6
       1      14.52279428
       2       0.72703445     1.04155808
       3       0.79090944     0.00979795     0.15645903
       4       0.02965771     0.09173301    -0.00291188     0.01228769
       5       0.01615507     0.00723183     0.00567870     0.00115764     0.00070425
       6      -0.00146667    -0.00040090     0.00082551     0.00034981     0.00006270     0.00009429
       7       0.00041797    -0.00008381     0.00009749     0.00000005     0.00004257     0.00000113

               Column   7
       7       0.00000583
    ==== End of matrix output ====

 DIIS C vector; C2DIIS = F, LAMBDA = -1.44D-06
   -0.000230   -0.001074    0.006380    0.025161   -0.139714   -0.063230    1.172707
* Read MO coefficients from SIRIUS.RST with label "NEWORB  " and header info: 29Nov18  DIIS   7
      Virial theorem: -V/T =      2.002565
@      MULPOP N      -0.67; H       0.23; H       0.26; H       0.24; O      -0.64; O      -0.65; O      -0.69; O      -0.89; H       0.31; H       0.35; 
@             H       0.36; H       0.30; H       0.33; H       0.38; H       0.37; H       0.42; 

 DIIS Fock eigenvalues in symmetry 1
      -20.58022      -20.57670      -20.53202      -20.52637      -15.56488
       -1.36223       -1.35505       -1.31126       -1.29682       -1.16209
       -0.73165       -0.72686       -0.68315       -0.67354       -0.67045
       -0.63803       -0.60725       -0.59524       -0.57750       -0.55991
       -0.53830       -0.53369       -0.49325       -0.48201       -0.44486
        0.00000        0.13242        0.15995        0.19935        0.21434
        0.23016        0.24742        0.26719        0.28387        0.29290
        0.32219        0.37672        0.45805        0.50580        0.53692
        0.55063        0.57777        0.58977        0.59036        0.62130
        0.63535        0.65933        0.66623        0.89715        0.90818
        0.91192        0.95197        0.95706        0.97060        0.97382
        1.03123        1.04506        1.06618        1.08714        1.10537
        1.13596        1.14730        1.22640        1.25372        1.29056
        1.33262        1.34250        1.37952        1.41727        1.48731
        1.50417        1.52039        1.53658        1.55304        1.56506
        1.57581        1.58840        1.65947        1.69693        1.71971
        1.73834        1.75909        1.78642        1.84366        1.85524
        1.88607        1.90575        1.96256        1.97839        1.99699
        2.19787        2.23931        2.24504        2.25702        2.27900
        2.30739        2.33787        2.35842        2.41905        2.42950
        2.46770        2.61003        2.63402        2.64733        2.66941
        2.71128        2.72104        2.79490        2.82388        2.85577
        2.88299        2.94582        3.00318        3.02402        3.20276
        3.37808        3.40758        3.42653        3.43638        3.45021
        3.49388        3.50980        3.51077        3.52624        3.55442
        3.60554        3.63815        3.65833        3.71929        3.96147
        4.01518        4.01979        4.03065        4.16945        4.19314
        4.19909        4.30209        4.58500        5.12259        5.23921
        5.29333        5.34334        5.35687        5.37519        5.66303
        5.69817        5.70714        5.80747        6.12434        6.12886
        6.13257        6.17454       36.99290       51.49831       51.49937
       51.55254       51.55521
 Time used in FCKEIG, thr_jaco:   2.70D-02  4.60D-02  1.05D-07
 CPU and wall times used in FCKEIG, THR_FCKEIG:   2.70D-02  4.60D-02  2.42D-05
 -----------------------------------------------------------------------------

 *** DIIS iteration number    8
 RDSUPM called. NFMAT, ISYMDM(1:NFMAT)                     1
                     1

 ITDIIS, energy, error norm, change in energy, scr.thr., difden:
@ DIIS iter.   8    -360.732229841        3.88552D-04   -6.82D-07  -20    F

 (DIIS_RED) Control Parameters C2DIIS =         F NEVC =    8


 (DIIS_RED) B matrix:

               Column   1     Column   2     Column   3     Column   4     Column   5     Column   6
       1      14.52279428
       2       0.72703445     1.04155808
       3       0.79090944     0.00979795     0.15645903
       4       0.02965771     0.09173301    -0.00291188     0.01228769
       5       0.01615507     0.00723183     0.00567870     0.00115764     0.00070425
       6      -0.00146667    -0.00040090     0.00082551     0.00034981     0.00006270     0.00009429
       7       0.00041797    -0.00008381     0.00009749     0.00000005     0.00004257     0.00000113
       8       0.00011680    -0.00000599     0.00000502     0.00000199     0.00000115     0.00000161

               Column   7     Column   8
       7       0.00000583
       8       0.00000041     0.00000015
    ==== End of matrix output ====

 DIIS C vector; C2DIIS = F, LAMBDA = -8.87D-08
   -0.000001   -0.000083   -0.000294   -0.000228    0.013317   -0.022932   -0.155957    1.166178
* Read MO coefficients from SIRIUS.RST with label "NEWORB  " and header info: 29Nov18  DIIS   8
      Virial theorem: -V/T =      2.002577
@      MULPOP N      -0.67; H       0.22; H       0.26; H       0.24; O      -0.64; O      -0.65; O      -0.69; O      -0.89; H       0.31; H       0.35; 
@             H       0.36; H       0.30; H       0.33; H       0.38; H       0.37; H       0.42; 

 DIIS Fock eigenvalues in symmetry 1
      -20.58015      -20.57665      -20.53205      -20.52631      -15.56491
       -1.36220       -1.35503       -1.31123       -1.29683       -1.16211
       -0.73163       -0.72684       -0.68316       -0.67352       -0.67046
       -0.63805       -0.60725       -0.59524       -0.57751       -0.55991
       -0.53829       -0.53366       -0.49325       -0.48198       -0.44487
        0.00000        0.13242        0.15995        0.19934        0.21434
        0.23016        0.24741        0.26719        0.28387        0.29290
        0.32219        0.37671        0.45804        0.50578        0.53692
        0.55062        0.57777        0.58977        0.59036        0.62130
        0.63535        0.65933        0.66623        0.89715        0.90818
        0.91191        0.95197        0.95706        0.97060        0.97382
        1.03124        1.04507        1.06619        1.08714        1.10537
        1.13596        1.14730        1.22640        1.25372        1.29056
        1.33263        1.34249        1.37953        1.41727        1.48731
        1.50417        1.52039        1.53658        1.55304        1.56506
        1.57581        1.58840        1.65945        1.69693        1.71971
        1.73833        1.75909        1.78642        1.84365        1.85524
        1.88605        1.90575        1.96256        1.97838        1.99698
        2.19785        2.23931        2.24503        2.25701        2.27901
        2.30739        2.33787        2.35842        2.41906        2.42949
        2.46768        2.61002        2.63402        2.64734        2.66940
        2.71127        2.72104        2.79490        2.82387        2.85578
        2.88298        2.94580        3.00316        3.02400        3.20274
        3.37807        3.40759        3.42651        3.43639        3.45020
        3.49390        3.50981        3.51079        3.52624        3.55444
        3.60553        3.63816        3.65835        3.71931        3.96146
        4.01519        4.01981        4.03067        4.16944        4.19316
        4.19910        4.30212        4.58497        5.12257        5.23919
        5.29335        5.34333        5.35691        5.37522        5.66302
        5.69820        5.70716        5.80750        6.12433        6.12889
        6.13261        6.17458       36.99287       51.49836       51.49943
       51.55253       51.55526
 Time used in FCKEIG, thr_jaco:   2.80D-02  4.00D-02  1.69D-08
 CPU and wall times used in FCKEIG, THR_FCKEIG:   2.80D-02  4.00D-02  3.89D-06
 -----------------------------------------------------------------------------

 *** DIIS iteration number    9
 RDSUPM called. NFMAT, ISYMDM(1:NFMAT)                     1
                     1

 ITDIIS, energy, error norm, change in energy, scr.thr., difden:
@ DIIS iter.   9    -360.732229862        1.21356D-04   -2.06D-08  -20    F

 (DIIS_RED) Control Parameters C2DIIS =         F NEVC =    8


 (DIIS_RED) B matrix:

               Column   1     Column   2     Column   3     Column   4     Column   5     Column   6
       1       0.00000001
       2      -0.00000449     1.04155808
       3       0.00000076     0.00979795     0.15645903
       4      -0.00000014     0.09173301    -0.00291188     0.01228769
       5       0.00000015     0.00723183     0.00567870     0.00115764     0.00070425
[...]
 | 1 1 1 1 |   6   1  21   1 |     2646        1 |      3499336 |    0.081832  |
 | 1 1 1 1 |  12   1  21   1 |     2652        1 |      3515227 |    0.138256  |
 | 1 1 1 1 |  24   1  21   1 |     2664        1 |      3547117 |   -0.078637  |
 | 1 1 1 1 |  25   1  21   1 |     2665        1 |      3549781 |    0.143064  |
 | 1 1 1 1 | 113   1  21   1 |     2753        1 |      3788129 |   -0.093445  |
 +=============================================================================+


          Norm of Printed Amplitude Vector :             0.8664

          Printed all single excitations greater than 0.378755

          Printed all double excitations greater than 0.065282



+======================================================================+
| contributions of excitation levels to right eigenvectors as computed |
| from the (RE|RE) self overlap                                        |
+----------------------------------------------------------------------+
| sym | multi | state |    E / eV  | % singles | % doubles | % triples |
+======================================================================+
|    1|   1   |   1   |  407.34858 |  88.1831  |  11.8169  |   0.0000  |
+======================================================================+





+======================================================================+
| contributions of excitation levels to excited states as computed     |
| from the (LE|RE) overlap                                             |
+----------------------------------------------------------------------+
| sym | multi | state |    E / eV  | % singles | % doubles | % triples |
+======================================================================+
|    1|   1   |   1   |  407.34858 |  78.8606  |  21.1394  |   0.0000  |
+======================================================================+



 --------------------------
 Symmetry class Nr.:     1
 Multiplicity      :     3
 --------------------------

 Length of Excitation vectors in this class is:   7689528
 No Excitation Energies calculated in this symmetry class
     

   *******************************************************************
   *                                                                 *
   *--------   OUTPUT FROM PROPERTY AND SYMMETRY ANALYSIS   ---------*
   *                                                                 *
   *******************************************************************



                         +-------------------------------+
                         ! REQUESTED PROPERTY OPERATORS: !
                         +-------------------------------+

             Index   Oper. Label  Symmetry  Transp.  PDBS  Atom
             --------------------------------------------------
                1     HAM0            1        1      T      0
                2     XDIPLEN         1        1      F      0
                3     YDIPLEN         1        1      F      0
                4     ZDIPLEN         1        1      F      0
             --------------------------------------------------




                         +-------------------------------+
                         ! REQUESTED EXPECTATION VALUES: !
                         +-------------------------------+

                       Index   Oper. Label  Symmetry
                       -----------------------------
                       -----------------------------




                       +------------------------------------+
                       ! REQUESTED EFFECTIVE FOCK MATRICES: !
                       +------------------------------------+

                       Index   Oper. Label  Symmetry
                       -----------------------------
                       -----------------------------




                        +----------------------------------+
                        ! REQUESTED FIRST ORDER M-VECTORS: !
                        +----------------------------------+

               Index   State Symmetry  Frequency
               --------------------------------------------------
                  1             1    1     1.496979D+01
               --------------------------------------------------


      

    *******************************************************************
    *          SOLVING COUPLED CLUSTER RESPONSE EQUATIONS             *
    *******************************************************************



 
 +======================================================================+
 !                     RHS & ETA VECTORS TO COMPUTE:                    !
 +======================================================================+
 | TYPE | # VEC. |  NEEDED FOR:                                         |
 +----------------------------------------------------------------------+
 +======================================================================+



 +======================================================================+
 !                       LINEAR EQUATIONS TO SOLVE:                     !
 +======================================================================+
 | TYPE | # VEC. |  EQUATION:                                           |
 +----------------------------------------------------------------------+
 |  M1  |    1   |  first-order ground - excited state multipliers      |
 +======================================================================+



 +======================================================================+
 !                F MATRIX TRANSFORMATIONS TO COMPUTE:                  !
 +======================================================================+
 | TYPE | # VEC. |  TRANSFORMED:                                        |
 +----------------------------------------------------------------------+
 |  FR  |    1   |  right eigenvectors (RE)                             |
 +======================================================================+





 Testing R1 list: 

 List nr.  Label     Symmetry      Frequency      T1-norm        T2-norm


 Testing L1 list: 

 List nr.  Label     Symmetry      Frequency      T1-norm        T2-norm
  Solvent 1-order response equations converged in                     0 
  solvent iterations
 SONIAPRI                     0
 CCEQ_STR: CVSEPARATION =  T
 CCEQ_STR: IONIZATION =  T
 CCEQ_STR: REMOVE_CORE =  F
 could not find required file CCM1_1___1
 IOPTSV is    33 ... program continues nevertheless.
 Vector nr.  1 of type M1  and symmetry  1 was not found on file.
     M1  start vector nr.  1 of symmetry  1 generated from gradient
 CCEQ_STR: freeze VALENCE OR VIRT
 CCEQ_SOL: CVSEPARA=     T
 CCEQ_SOL: LIONISAT=     T
 CCEQ_SOL: REMOVE_CORE =  F



 ----- COUPLED CLUSTER RESPONSE SOLVER -----

    Iter  #Vectors  time (min)   residual
    --------------------------------------
 CCRED CVS/IONIS sigma_                     1 
 project out valence occupied or virtual
      1       1         1.26     0.30E+00
 CCRED CVS/IONIS sigma_                     2 
 project out valence occupied or virtual
      2       1         1.27     0.66E-01
 CCRED CVS/IONIS sigma_                     3 
 project out valence occupied or virtual
                    -1  vectors with norm le:  1.000000000000000E-035  REMOVED

 CCORT,**WARNING**  number vectors added is zero after check for vector norm , NBADD :    0

 CCORT, number vectors added is zero , NBADD :    0

 CCORT, number vectors added is zero , NBADD :    0

 CCORT, number vectors added is zero , NBADD :    0

 *** MICROITERATIONS STOPPED DUE TO LINEAR DEPENDENCE BETWEEN ALL NEW TRIAL VECTORS
                     0  trial vectors converged
  LINEAR DEPENDENCE BETWEEN                     1  NON CONVERGED TRIAL VECTORS
      3       1         1.28     0.68E-02

 ***  CCEQ_SOL -MICROITERATIONS STOPPED  
     LINEAR DEPENDENCE BETWEEN ALL NEW TRIAL VECTORS
    --------------------------------------
    converged in  3 iterations
    threshold:    0.10E-08


         Routine          Time (min)
         ---------------------------
         CC_TRDRV            3.82
         CCRED               0.02
         CCNEX               0.04
         ---------------------------
         Total time          3.88


  Total CPU  time used in CCEQ_SOLV:  3 minutes 53 seconds
  Total wall time used in CCEQ_SOLV:  7 minutes 31 seconds


 xxxxxxxxxxxxxxxxxxxxxxxxxxxxxxxxxxxxx

 
 Solution of CC response equations completed.
 

 *******************************************************************
 *                                                                 *
 *--------  OUTPUT FROM COUPLED CLUSTER LINEAR RESPONSE   ---------*
 *                                                                 *
 *--------      CALCULATION OF SECOND ORDER RESIDUES      ---------*
 *                                                                 *
 *******************************************************************



                  +---------------------------------------------+
                  ! CC_SOPR: Calculation of CCSD       Residues !
                  +---------------------------------------------+

 Doing the Mf*CsiA
 Doing the Mf*CsiA
 Doing the Mf*CsiA


 CCSD  Right transition moments in atomic units:
 -----------------------------------------------

  1      14.969785  <XDIPLEN |f> =       0.00000000
  1      14.969785  <YDIPLEN |f> =      -0.00000000
  1      14.969785  <ZDIPLEN |f> =      -0.00000001


 CCSD  Left  transition moments in atomic units:
 -----------------------------------------------

  1      14.969785  <f|XDIPLEN > =       0.00000000
  1      14.969785  <f|YDIPLEN > =      -0.00000000
  1      14.969785  <f|ZDIPLEN > =      -0.00000001


 CCSD  linear response residue property in atomic units:
 -------------------------------------------------------

 RES{<<XDIPLEN ,XDIPLEN >>(14.969785)} =     0.00000000 (   0.00000000)
 RES{<<XDIPLEN ,YDIPLEN >>(14.969785)} =    -0.00000000 (  -0.00000000)
 RES{<<XDIPLEN ,ZDIPLEN >>(14.969785)} =    -0.00000000 (  -0.00000000)
 RES{<<YDIPLEN ,XDIPLEN >>(14.969785)} =    -0.00000000 (  -0.00000000)
 RES{<<YDIPLEN ,YDIPLEN >>(14.969785)} =     0.00000000 (   0.00000000)
 RES{<<YDIPLEN ,ZDIPLEN >>(14.969785)} =     0.00000000 (   0.00000000)
 RES{<<ZDIPLEN ,XDIPLEN >>(14.969785)} =    -0.00000000 (  -0.00000000)
 RES{<<ZDIPLEN ,YDIPLEN >>(14.969785)} =     0.00000000 (   0.00000000)
 RES{<<ZDIPLEN ,ZDIPLEN >>(14.969785)} =     0.00000000 (   0.00000001)


 CCSD  Transition strength matrix for state nr.  1 of symmetry 1
 CCSD  excitation energy:14.96978535

 Gauge: length

               Column   1     Column   2     Column   3
       1     3.028881D-18  -3.863202D-18  -1.425982D-17
       2    -3.863202D-18   4.923852D-18   1.815833D-17
       3    -1.425982D-17   1.815833D-17   6.688610D-17
    ==== End of matrix output ====

 Principal values of diagonalized transition strength matrix:

             a.u.               
 1       0.00000000
 2       0.00000000
 3       0.00000000

 Principal axis of diagonalized transition strength matrix:


               Column   1     Column   2     Column   3
       1       1.00000000     0.00000000     0.00000000
       2       0.00000000     1.00000000     0.00000000
       3       0.00000000     0.00000000     1.00000000
    ==== End of matrix output ====


 CCSD   oscillator strength matrix for state nr.  1 of symmetry 1
 CCSD  excitation energy:14.96978535


               Column   1     Column   2     Column   3
       1     3.022780D-17  -3.855420D-17  -1.423110D-16
       2    -3.855420D-17   4.913934D-17   1.812175D-16
       3    -1.423110D-16   1.812175D-16   6.675137D-16
    ==== End of matrix output ====

 Principal values of diagonalized oscillator strength matrix:

             a.u.               
 1       0.00000000
 2       0.00000000
 3       0.00000000

 Principal axis of diagonalized oscillator strength matrix:


               Column   1     Column   2     Column   3
       1       1.00000000     0.00000000     0.00000000
       2       0.00000000     1.00000000     0.00000000
       3       0.00000000     0.00000000     1.00000000
    ==== End of matrix output ====

  Total time for      9 linear response residues:       2.95 seconds.
  

 *******************************************************************************
 *******************************************************************************
 *                                                                             *
 *                                                                             *
 *                   SUMMARY OF COUPLED CLUSTER CALCULATION                    *
 *                                                                             *
 *                                                                             *
 *******************************************************************************
 *******************************************************************************

                                                                                
                                                                                
            Total SCF   energy:                  -360.7322298631                
            Total MP2   energy:                  -361.8336055044                
            Total CCSD  energy:                  -361.8727326161                
                                                                                
                                                                                
            Total SCF   energy:                  -360.7322298631                
            Total RSTAR energy:                  -361.8727326161                
            Total CCSD  energy:                  -361.8728768324                
                                                                                
                                                                                
            Total SCF   energy:                  -360.7322298631                
            Total RSTAR energy:                  -361.8728768324                
            Total CCSD  energy:                  -361.8728790435                
                                                                                
                                                                                
            Total SCF   energy:                  -360.7322298631                
            Total RSTAR energy:                  -361.8728790435                
            Total CCSD  energy:                  -361.8728791850                
                                                                                
                                                                                
            Total SCF   energy:                  -360.7322298631                
            Total RSTAR energy:                  -361.8728791850                
            Total CCSD  energy:                  -361.8728791935                
                                                                                
                                                                                
            Total SCF   energy:                  -360.7322298631                
            Total RSTAR energy:                  -361.8728791935                
            Total CCSD  energy:                  -361.8728791940                
                                                                                
                                                                                
            Total SCF   energy:                  -360.7322298631                
            Total RSTAR energy:                  -361.8728791940                
            Total CCSD  energy:                  -361.8728791940                
            CCSD Total  energy:                  -362.2416828712                
            CCSD E(QM/MM)     :                    -0.3636531898                
                                                                                
                                                                                
                                                                                
 +=============================================================================+
 |  sym. | Exci.  |        CCSD       Excitation energies            | ||T1||  |
 |(spin, |        +------------------------------------------------------------+
 | spat) |        |     Hartree    |       eV.      |     cm-1       |    %    |
 +=============================================================================+
 | ^1A   |    1   |    14.9697854  |     407.34858  |   3285488.091  |  88.18  |
 +=============================================================================+
                                                                                
                                                                                
     Total energies in Hartree:                                                 
             1 ^1A       -346.9082443311                                        
                                                                                
                                                                                
 +=============================================================================+
 |  sym. | Exci.  |        CCSD       Length   Gauge Oscillator Strength       |
 |(spin, |        +------------------------------------------------------------+
 | spat) |        | Dipole Strength(a.u.) | Oscillator strength  | Direction   |
 +=============================================================================+
 | ^1A   |    1   |        0.0000000      |      0.0000000       |    -        |
 +=============================================================================+

  1 a.u. =        27.21138 eV.  
  1 a.u. =    219474.62934 cm-1.
  

 *******************************************************************************
 *******************************************************************************
 *                                                                             *
 *                                                                             *
 *                      END OF COUPLED CLUSTER CALCULATION                     *
 *                                                                             *
 *                                                                             *
 *******************************************************************************
 *******************************************************************************


 CPU and wall time for CC :    5883.520   14235.863

 
     Date and time (Linux)  : Thu Nov 29 12:59:00 2018
     Host name              : n-62-29-8                               


                      .-------------------------------------.
                      | End of Coupled Cluster Section (CC) |
                      `-------------------------------------'

  Total CPU  time used in DALTON:   1 hour  39 minutes 56 seconds
  Total wall time used in DALTON:   4 hours  0 minutes 44 seconds

 
     Date and time (Linux)  : Thu Nov 29 12:59:00 2018
     Host name              : n-62-29-8                               
  

 +---------------------------------------------------------+ 
 | List of selected calculated molecular properties (a.u.) | 
 +---------------------------------------------------------+ 

  Properties are read from unit number                      4

 CCSD       properties :
 #  1 1 CCSD/MM  Ground state Energy =    -362.2416828712
 #  2 1 E_QM/MM  Ground state Energy =      -0.3636531898
 #  3 1 Sy: 1 Sp: 1 Exc:  1 E_tot:   -346.9082443311 w:     14.9697853502 E_grs:   -361.8780296814
 #  4 1 Exctot   Excited state Energy =    -346.9082443311
 #  5 1 |<O|XDIPLEN |i(14.969785)>| =     0.00000000
 #  7 1 |<O|YDIPLEN |i(14.969785)>| =     0.00000000
 #  9 1 |<O|ZDIPLEN |i(14.969785)>| =     0.00000001

 THE_END   
