

     ************************************************************************
     *************** Dalton - An Electronic Structure Program ***************
     ************************************************************************

    This is output from DALTON release Dalton2017.alpha (2016)
         ( Web site: http://daltonprogram.org )

   ----------------------------------------------------------------------------

    NOTE:
     
    Dalton is an experimental code for the evaluation of molecular
    properties using (MC)SCF, DFT, CI, and CC wave functions.
    The authors accept no responsibility for the performance of
    the code or for the correctness of the results.
     
    The code (in whole or part) is provided under a licence and
    is not to be reproduced for further distribution without
    the written permission of the authors or their representatives.
     
    See the home page "http://daltonprogram.org" for further information.
     
    If results obtained with this code are published,
    the appropriate citations would be both of:
     
       K. Aidas, C. Angeli, K. L. Bak, V. Bakken, R. Bast,
       L. Boman, O. Christiansen, R. Cimiraglia, S. Coriani,
       P. Dahle, E. K. Dalskov, U. Ekstroem,
       T. Enevoldsen, J. J. Eriksen, P. Ettenhuber, B. Fernandez,
       L. Ferrighi, H. Fliegl, L. Frediani, K. Hald, A. Halkier,
       C. Haettig, H. Heiberg, T. Helgaker, A. C. Hennum,
       H. Hettema, E. Hjertenaes, S. Hoest, I.-M. Hoeyvik,
       M. F. Iozzi, B. Jansik, H. J. Aa. Jensen, D. Jonsson,
       P. Joergensen, J. Kauczor, S. Kirpekar,
       T. Kjaergaard, W. Klopper, S. Knecht, R. Kobayashi, H. Koch,
       J. Kongsted, A. Krapp, K. Kristensen, A. Ligabue,
       O. B. Lutnaes, J. I. Melo, K. V. Mikkelsen, R. H. Myhre,
       C. Neiss, C. B. Nielsen, P. Norman, J. Olsen,
       J. M. H. Olsen, A. Osted, M. J. Packer, F. Pawlowski,
       T. B. Pedersen, P. F. Provasi, S. Reine, Z. Rinkevicius,
       T. A. Ruden, K. Ruud, V. Rybkin, P. Salek, C. C. M. Samson,
       A. Sanchez de Meras, T. Saue, S. P. A. Sauer,
       B. Schimmelpfennig, K. Sneskov, A. H. Steindal,
       K. O. Sylvester-Hvid, P. R. Taylor, A. M. Teale,
       E. I. Tellgren, D. P. Tew, A. J. Thorvaldsen, L. Thoegersen,
       O. Vahtras, M. A. Watson, D. J. D. Wilson, M. Ziolkowski
       and H. Agren,
       "The Dalton quantum chemistry program system",
       WIREs Comput. Mol. Sci. 2014, 4:269–284 (doi: 10.1002/wcms.1172)
     
    and
     
       Dalton, a Molecular Electronic Structure Program,
       Release Dalton2017.alpha (2016), see http://daltonprogram.org
   ----------------------------------------------------------------------------

    Authors in alphabetical order (major contribution(s) in parenthesis):

  Kestutis Aidas,           Vilnius University,           Lithuania   (QM/MM)
  Celestino Angeli,         University of Ferrara,        Italy       (NEVPT2)
  Keld L. Bak,              UNI-C,                        Denmark     (AOSOPPA, non-adiabatic coupling, magnetic properties)
  Vebjoern Bakken,          University of Oslo,           Norway      (DALTON; geometry optimizer, symmetry detection)
  Radovan Bast,             UiT The Arctic U. of Norway,  Norway      (DALTON installation and execution frameworks)
  Pablo Baudin,             University of Valencia,       Spain       (Cholesky excitation energies)
  Linus Boman,              NTNU,                         Norway      (Cholesky decomposition and subsystems)
  Ove Christiansen,         Aarhus University,            Denmark     (CC module)
  Renzo Cimiraglia,         University of Ferrara,        Italy       (NEVPT2)
  Sonia Coriani,            University of Trieste,        Italy       (CC module, MCD in RESPONS)
  Janusz Cukras,            University of Trieste,        Italy       (MChD in RESPONS)
  Paal Dahle,               University of Oslo,           Norway      (Parallelization)
  Erik K. Dalskov,          UNI-C,                        Denmark     (SOPPA)
  Thomas Enevoldsen,        Univ. of Southern Denmark,    Denmark     (SOPPA)
  Janus J. Eriksen,         Aarhus University,            Denmark     (Polarizable embedding model, TDA)
  Rasmus Faber,             University of Copenhagen,     Denmark     (Vib.avg. NMR with SOPPA, parallel AO-SOPPA)
  Berta Fernandez,          U. of Santiago de Compostela, Spain       (doublet spin, ESR in RESPONS)
  Lara Ferrighi,            Aarhus University,            Denmark     (PCM Cubic response)
  Heike Fliegl,             University of Oslo,           Norway      (CCSD(R12))
  Luca Frediani,            UiT The Arctic U. of Norway,  Norway      (PCM)
  Bin Gao,                  UiT The Arctic U. of Norway,  Norway      (Gen1Int library)
  Christof Haettig,         Ruhr-University Bochum,       Germany     (CC module)
  Kasper Hald,              Aarhus University,            Denmark     (CC module)
  Asger Halkier,            Aarhus University,            Denmark     (CC module)
  Frederik Beyer Hansen,    University of Copenhagen,     Denmark     (Parallel AO-SOPPA)
  Erik D. Hedegaard,        Univ. of Southern Denmark,    Denmark     (Polarizable embedding model, QM/MM)
  Hanne Heiberg,            University of Oslo,           Norway      (geometry analysis, selected one-electron integrals)
  Trygve Helgaker,          University of Oslo,           Norway      (DALTON; ABACUS, ERI, DFT modules, London, and much more)
  Alf Christian Hennum,     University of Oslo,           Norway      (Parity violation)
  Hinne Hettema,            University of Auckland,       New Zealand (quadratic response in RESPONS; SIRIUS supersymmetry)
  Eirik Hjertenaes,         NTNU,                         Norway      (Cholesky decomposition)
  Pi A. B. Haase,           University of Copenhagen,     Denmark     (Triplet AO-SOPPA)
  Maria Francesca Iozzi,    University of Oslo,           Norway      (RPA)
  Brano Jansik              Technical Univ. of Ostrava    Czech Rep.  (DFT cubic response)
  Hans Joergen Aa. Jensen,  Univ. of Southern Denmark,    Denmark     (DALTON; SIRIUS, RESPONS, ABACUS modules, London, and much more)
  Dan Jonsson,              UiT The Arctic U. of Norway,  Norway      (cubic response in RESPONS module)
  Poul Joergensen,          Aarhus University,            Denmark     (RESPONS, ABACUS, and CC modules)
  Maciej Kaminski,          University of Warsaw,         Poland      (CPPh in RESPONS)
  Joanna Kauczor,           Linkoeping University,        Sweden      (Complex polarization propagator (CPP) module)
  Sheela Kirpekar,          Univ. of Southern Denmark,    Denmark     (Mass-velocity & Darwin integrals)
  Wim Klopper,              KIT Karlsruhe,                Germany     (R12 code in CC, SIRIUS, and ABACUS modules)
  Stefan Knecht,            ETH Zurich,                   Switzerland (Parallel CI and MCSCF)
  Rika Kobayashi,           Australian National Univ.,    Australia   (DIIS in CC, London in MCSCF)
  Henrik Koch,              NTNU,                         Norway      (CC module, Cholesky decomposition)
  Jacob Kongsted,           Univ. of Southern Denmark,    Denmark     (Polarizable embedding model, QM/MM)
  Andrea Ligabue,           University of Modena,         Italy       (CTOCD, AOSOPPA)
  Nanna H. List             Univ. of Southern Denmark,    Denmark     (Polarizable embedding model)
  Ola B. Lutnaes,           University of Oslo,           Norway      (DFT Hessian)
  Juan I. Melo,             University of Buenos Aires,   Argentina   (LRESC, Relativistic Effects on NMR Shieldings)
  Kurt V. Mikkelsen,        University of Copenhagen,     Denmark     (MC-SCRF and QM/MM)
  Rolf H. Myhre,            NTNU,                         Norway      (Cholesky, subsystems and ECC2)
  Christian Neiss,          Univ. Erlangen-Nuernberg,     Germany     (CCSD(R12))
  Christian B. Nielsen,     University of Copenhagen,     Denmark     (QM/MM)
  Patrick Norman,           Linkoeping University,        Sweden      (Cubic response and complex frequency response in RESPONS)
  Jeppe Olsen,              Aarhus University,            Denmark     (SIRIUS CI/density modules)
  Jogvan Magnus H. Olsen,   Univ. of Southern Denmark,    Denmark     (Polarizable embedding model, QM/MM)
  Anders Osted,             Copenhagen University,        Denmark     (QM/MM)
  Martin J. Packer,         University of Sheffield,      UK          (SOPPA)
  Filip Pawlowski,          Kazimierz Wielki University,  Poland      (CC3)
  Morten N. Pedersen,       Univ. of Southern Denmark,    Denmark     (Polarizable embedding model)
  Thomas B. Pedersen,       University of Oslo,           Norway      (Cholesky decomposition)
  Patricio F. Provasi,      University of Northeastern,   Argentina   (Analysis of coupling constants in localized orbitals)
  Zilvinas Rinkevicius,     KTH Stockholm,                Sweden      (open-shell DFT, ESR)
  Elias Rudberg,            KTH Stockholm,                Sweden      (DFT grid and basis info)
  Torgeir A. Ruden,         University of Oslo,           Norway      (Numerical derivatives in ABACUS)
  Kenneth Ruud,             UiT The Arctic U. of Norway,  Norway      (DALTON; ABACUS magnetic properties and much more)
  Pawel Salek,              KTH Stockholm,                Sweden      (DALTON; DFT code)
  Claire C. M. Samson       University of Karlsruhe       Germany     (Boys localization, r12 integrals in ERI)
  Alfredo Sanchez de Meras, University of Valencia,       Spain       (CC module, Cholesky decomposition)
  Trond Saue,               Paul Sabatier University,     France      (direct Fock matrix construction)
  Stephan P. A. Sauer,      University of Copenhagen,     Denmark     (SOPPA(CCSD), SOPPA prop., AOSOPPA, vibrational g-factors)
  Bernd Schimmelpfennig,    Forschungszentrum Karlsruhe,  Germany     (AMFI module)
  Kristian Sneskov,         Aarhus University,            Denmark     (Polarizable embedding model, QM/MM)
  Arnfinn H. Steindal,      UiT The Arctic U. of Norway,  Norway      (parallel QM/MM, Polarizable embedding model)
  Casper Steinmann,         Univ. of Southern Denmark,    Denmark     (QFIT, Polarizable embedding model)
  K. O. Sylvester-Hvid,     University of Copenhagen,     Denmark     (MC-SCRF)
  Peter R. Taylor,          VLSCI/Univ. of Melbourne,     Australia   (Symmetry handling ABACUS, integral transformation)
  Andrew M. Teale,          University of Nottingham,     England     (DFT-AC, DFT-D)
  David P. Tew,             University of Bristol,        England     (CCSD(R12))
  Olav Vahtras,             KTH Stockholm,                Sweden      (triplet response, spin-orbit, ESR, TDDFT, open-shell DFT)
  David J. Wilson,          La Trobe University,          Australia   (DFT Hessian and DFT magnetizabilities)
  Hans Agren,               KTH Stockholm,                Sweden      (SIRIUS module, RESPONS, MC-SCRF solvation model)
 --------------------------------------------------------------------------------

     Date and time (Linux)  : Mon Dec  3 17:54:11 2018
     Host name              : n-62-29-6                               

 * Work memory size             :  1280000000 =  9.537 gigabytes.

 * Directories for basis set searches:
   1) /zhome/d7/7/119775/My_Codes/dalton-private/build2016/basis/diffs
   2) /zhome/37/3/129401/NH3NH4/CCSD/AIMD_SAMPLING/nh3_4h2o_nd
   3) /zhome/9a/4/124800/source/dalton/build-mlcc/basis


Compilation information
-----------------------

 Who compiled             | rfaber
 Host                     | hpclogin1
 System                   | Linux-2.6.32-696.1.1.el6.x86_64
 CMake generator          | Unix Makefiles
 Processor                | x86_64
 64-bit integers          | ON
 MPI                      | OFF
 Fortran compiler         | /opt/intel/2016update2/compilers_and_libraries_201
                          | 6.2.181/linux/bin/intel64/ifort
 Fortran compiler version | ifort (IFORT) 16.0.2 20160204
 C compiler               | /opt/intel/2016update2/compilers_and_libraries_201
                          | 6.2.181/linux/bin/intel64/icc
 C compiler version       | icc (ICC) 16.0.2 20160204
 C++ compiler             | /opt/intel/2016update2/compilers_and_libraries_201
                          | 6.2.181/linux/bin/intel64/icpc
 C++ compiler version     | icpc (ICC) 16.0.2 20160204
 Static linking           | OFF
 Last Git revision        | bb4d1599ca5680a9f3980451fc8bbefdba436d59
 Git branch               | mlcc
 Configuration time       | 2017-06-13 16:11:03.928841


   Content of the .dal input file
 ----------------------------------

**DALTON
.RUN WAVE FUNCTIONS
*QMMM
.QMMM
**INTEGRALS
.DIPLEN
**WAVE FUNCTIONS
.CC
*PRINT
!To check the origin of excit
.PRINTL
   0 11
*SCF INP
.THRESH
1.0D-7
*CC INP
.CCSD
.THRLEQ
 1.0D-9
.THRENR
 1.0D-10
.FROIMP
4
0
.PRINT
 1
.MAX IT
 1200
.MAXRED
 1200
.MXLRV
1199
*CCSLV
.CCMM
.MXSLIT
200
.MXINIT
4 5
*CCEXCI
.NCCEXC
 1
.IONISATION
1
1
.CVSEPARA
1
1
*CCLRSD
.DIPOLE
**END OF DALTON INPUT


   Content of the .mol file
 ----------------------------

ATOMBASIS


Atomtypes=5 Charge=0 Nosymm Angstrom
   7.00000    1    Basis=6-311G**
N          0.000000        0.000000        0.000000
   1.00000    3    Basis=6-311G**
H         -0.415874       -0.219846        0.909951
H         -0.057290       -0.874972       -0.568922
H          0.933134        0.182880        0.254293
   8.00000    4    Basis=6-311G**
O          1.982156       -1.441245       -2.492232
O         -1.073673        2.088698       -1.530133
O         -0.721371        0.391529        3.376035
O          2.838179        0.922826        1.085181
   1.00000    8    Basis=6-311G**
H          1.044683       -1.746564       -2.667097
H          2.289336       -1.515537       -1.568610
H         -0.649956        1.976893       -2.410616
H         -0.778781        1.294269       -0.970938
H         -1.676478        0.033517        3.410557
H         -0.844635        1.346072        3.574766
H          2.771964        1.768107        0.612257
H          2.574951        1.051896        1.977730
   0.00000    1    Basis=diffs
X          0.000000        0.000000        0.000000


       *******************************************************************
       *********** Output from DALTON general input processing ***********
       *******************************************************************

 --------------------------------------------------------------------------------
   Overall default print level:    0
   Print level for DALTON.STAT:    1

    HERMIT 1- and 2-electron integral sections will be executed
    "Old" integral transformation used (limited to max 255 basis functions)
    Wave function sections will be executed (SIRIUS module)
 --------------------------------------------------------------------------------


 Changes of defaults for *QMMM  :
 --------------------------------

 +------------------+
 |  WORD: | CHANGE: |
 +------------------+
 |   QMMM |       T |
 +------------------+
 


   ****************************************************************************
   *************** Output of molecule and basis set information ***************
   ****************************************************************************


    The two title cards from your ".mol" input:
    ------------------------------------------------------------------------
 1:                                                                         
 2:                                                                         
    ------------------------------------------------------------------------

  Coordinates are entered in Angstrom and converted to atomic units.
          - Conversion factor : 1 bohr = 0.52917721 A

  Atomic type no.    1
  --------------------
  Nuclear charge:   7.00000
  Number of symmetry independent centers:    1
  Number of basis sets to read;    2
  The basis set is "6-311G**" from the basis set library.
  Basis set file used for this atomic type with Z =   7 :
     "/zhome/9a/4/124800/source/dalton/build-mlcc/basis/6-311G**"

  Info about the basis set file: your basis has no documentation.
  Basis set: 6-311G**                                                                        

  Atomic type no.    2
  --------------------
  Nuclear charge:   1.00000
  Number of symmetry independent centers:    3
  Number of basis sets to read;    2
  The basis set is "6-311G**" from the basis set library.
  Basis set file used for this atomic type with Z =   1 :
     "/zhome/9a/4/124800/source/dalton/build-mlcc/basis/6-311G**"

  Info about the basis set file: your basis has no documentation.
  Basis set: 6-311G**                                                                        

  Atomic type no.    3
  --------------------
  Nuclear charge:   8.00000
  Number of symmetry independent centers:    4
  Number of basis sets to read;    2
  The basis set is "6-311G**" from the basis set library.
  Basis set file used for this atomic type with Z =   8 :
     "/zhome/9a/4/124800/source/dalton/build-mlcc/basis/6-311G**"

  Info about the basis set file: your basis has no documentation.
  Basis set: 6-311G**                                                                        

  Atomic type no.    4
  --------------------
  Nuclear charge:   1.00000
  Number of symmetry independent centers:    8
  Number of basis sets to read;    2
  The basis set is "6-311G**" from the basis set library.
  Basis set file used for this atomic type with Z =   1 :
     "/zhome/9a/4/124800/source/dalton/build-mlcc/basis/6-311G**"

  Info about the basis set file: your basis has no documentation.
  Basis set: 6-311G**                                                                        

  Atomic type no.    5
  --------------------
  Nuclear charge:   0.00000
  Number of symmetry independent centers:    1
  Number of basis sets to read;    2
  The basis set is "diffs" from the basis set library.
  Basis set file used for this atomic type with Z =   0 :
     "/zhome/9a/4/124800/source/dalton/build-mlcc/basis/diffs"

  Info about the basis set file: your basis has no documentation.
  Basis set: diffs                                                                           


                         SYMGRP: Point group information
                         -------------------------------

@    Point group: C1 


                                 Isotopic Masses
                                 ---------------

                           N          14.003074
                           H           1.007825
                           H           1.007825
                           H           1.007825
                           O          15.994915
                           O          15.994915
                           O          15.994915
                           O          15.994915
                           H           1.007825
                           H           1.007825
                           H           1.007825
                           H           1.007825
                           H           1.007825
                           H           1.007825
                           H           1.007825
                           H           1.007825

                       Total mass:    89.068809 amu
                       Natural abundance:  98.514 %

 Center-of-mass coordinates (a.u.):    1.137647    0.736243    0.203524


  Atoms and basis sets
  --------------------

  Number of atom types :    5
  Total number of atoms:   17

  label    atoms   charge   prim   cont     basis
  ----------------------------------------------------------------------
  N           1    7.0000    31    18      [11s5p1d|4s3p1d]                                   
  H           3    1.0000     8     6      [5s1p|3s1p]                                        
  O           4    8.0000    31    18      [11s5p1d|4s3p1d]                                   
  H           8    1.0000     8     6      [5s1p|3s1p]                                        
  X           1    0.0000     1     1      [1s|1s]                                            
  ----------------------------------------------------------------------
  total:     17   50.0000   244   157
  ----------------------------------------------------------------------
  Spherical harmonic basis used.

  Threshold for neglecting AO integrals:  1.00D-12


  Cartesian Coordinates (a.u.)
  ----------------------------

  Total number of coordinates:   51
  N       :     1  x   0.0000000000    2  y   0.0000000000    3  z   0.0000000000
  H       :     4  x  -0.7858879625    5  y  -0.4154487297    6  z   1.7195581772
  H       :     7  x  -0.1082624097    8  y  -1.6534574470    9  z  -1.0751067665
  H       :    10  x   1.7633676979   11  y   0.3455931137   12  z   0.4805441255
  O       :    13  x   3.7457319770   14  y  -2.7235583290   15  z  -4.7096359199
  O       :    16  x  -2.0289479178   17  y   3.9470671778   18  z  -2.8915323048
  O       :    19  x  -1.3631936245   20  y   0.7398825800   21  z   6.3797815384
  O       :    22  x   5.3633810037   23  y   1.7438884010   24  z   2.0506948860
  H       :    25  x   1.9741647574   26  y  -3.3005276198   27  z  -5.0400828788
  H       :    28  x   4.3262180481   29  y  -2.8639498623   30  z  -2.9642432969
  H       :    31  x  -1.2282388333   32  y   3.7357863484   33  z  -4.5554040325
  H       :    34  x  -1.4716828013   35  y   2.4458139421   36  z  -1.8348069043
  H       :    37  x  -3.1680842746   38  y   0.0633379505   39  z   6.4450186637
  H       :    40  x  -1.5961288256   41  y   2.5437074245   42  z   6.7553287009
  H       :    43  x   5.2382527883   44  y   3.3412379897   45  z   1.1569980481
  H       :    46  x   4.8659521753   47  y   1.9877953520   48  z   3.7373680492
  X       :    49  x   0.0000000000   50  y   0.0000000000   51  z   0.0000000000

  Max    interatomic separation is    7.2504 Angstrom (   13.7013 Bohr)
  between atoms   14 and    5, "H     " and "O     ".

  Min HX interatomic separation is    0.9395 Angstrom (    1.7753 Bohr)

  Min YX interatomic separation is    2.8030 Angstrom (    5.2969 Bohr)


  Bond distances (Angstrom):
  --------------------------

                  atom 1     atom 2       distance
                  ------     ------       --------
  bond distance:  H          N            1.024351
  bond distance:  H          N            1.045242
  bond distance:  H          N            0.984301
  bond distance:  H          O            1.001326
  bond distance:  H          O            0.976195
  bond distance:  H          O            0.983507
  bond distance:  H          O            1.015272
  bond distance:  H          O            1.020585
  bond distance:  H          O            0.982772
  bond distance:  H          O            0.970846
  bond distance:  H          O            0.939464


  Bond angles (degrees):
  ----------------------

                  atom 1     atom 2     atom 3         angle
                  ------     ------     ------         -----
  bond angle:     H          N          H            106.356
  bond angle:     H          N          H            101.260
  bond angle:     H          N          H            110.372
  bond angle:     H          O          H            115.889
  bond angle:     H          O          H            106.201
  bond angle:     H          O          H            102.503
  bond angle:     H          O          H            108.909




 Principal moments of inertia (u*A**2) and principal axes
 --------------------------------------------------------

   IA     304.875957         -0.321585    0.228289    0.918949
   IB     502.034416          0.837767   -0.383693    0.388493
   IC     632.384373          0.441283    0.894798   -0.067863


 Rotational constants
 --------------------

               A                   B                   C

           1657.6545           1006.6621            799.1643 MHz
            0.055293            0.033579            0.026657 cm-1


@  Nuclear repulsion energy :  178.443355829459 Hartree

  Number of floating/multiple basis set orbitals :    1


                     .---------------------------------------.
                     | Starting in Integral Section (HERMIT) |
                     `---------------------------------------'



 ***************************************************************************************
 ****************** Output from **INTEGRALS input processing (HERMIT) ******************
 ***************************************************************************************



    *************************************************************************
    ****************** Output from HERMIT input processing ******************
    *************************************************************************


 Default print level:        1

 * Nuclear model: Point charge

 Calculation of one- and two-electron Hamiltonian integrals.

 The following one-electron property integrals are calculated as requested:
          - overlap integrals
          - dipole length integrals

 Center of mass  (bohr):      1.137647447889      0.736242730029      0.203524030710
 Operator center (bohr):      0.000000000000      0.000000000000      0.000000000000
 Gauge origin    (bohr):      0.000000000000      0.000000000000      0.000000000000
 Dipole origin   (bohr):      0.000000000000      0.000000000000      0.000000000000
 
  *********************************** 
  QMMM electrostatic potential: 
  Multipole order                                    0
  Isotropic polarization  
  *********************************** 
 
  ---------------- 
  QMMM information 
  ---------------- 
 
  MM coordinates in au 
  -------------------- 
     1      9.617219      8.353311     -8.190285
     2     10.227812      7.427013     -9.679412
     3      7.911730      9.168906     -8.619612
     4     -8.827387     -7.685380      4.981311
     5     -7.456823     -8.992783      5.255805
     6     -8.795315     -6.534594      6.447617
     7     -8.804034     -4.721307      9.589357
     8     -7.991998     -5.492954     11.100597
     9    -10.667049     -4.077698      9.878766
    10    -11.498583      6.035332     11.061860
    11    -10.285231      7.411744     10.877995
    12    -11.920156      5.213102      9.363412
    13     -8.246958     -0.427658      1.364858
    14     -9.897837      0.328697      1.567688
    15     -7.672386      0.312120     -0.199538
    16     -1.309336     -4.310310     -6.417812
    17     -1.954844     -2.850074     -7.343754
    18     -2.839011     -4.933852     -5.627183
    19      7.945620      4.809001     -4.809867
    20      7.112164      5.818841     -3.402569
    21      8.491893      6.195998     -6.111032
    22     -0.634324     -8.443880    -10.979585
    23     -2.327649     -7.951750    -10.344055
    24     -0.895131     -9.258003    -12.654407
    25      7.352350     -7.401194     11.102043
    26      8.857054     -8.555548     11.740052
    27      6.396334     -7.023241     12.683248
    28    -10.048065      4.248380     -5.010868
    29    -11.765554      4.551277     -4.298662
    30    -10.598238      3.447346     -6.609876
    31     -7.125469     -2.339728     -7.510248
    32     -6.255538     -1.355176     -6.200807
    33     -8.623200     -3.063975     -6.614208
    34     -4.996899     -6.433654     -3.315071
    35     -3.899499     -8.004895     -3.229279
    36     -5.957543     -5.886525     -1.728372
    37     -5.488197      3.921189     11.497054
    38     -5.532460      5.713509     12.139601
    39     -6.055922      3.916361      9.714857
    40      9.119170     -0.303416     -2.742102
    41      8.436663      1.157949     -3.539589
    42      7.808675     -0.983395     -1.583608
    43     11.499316     10.625705      0.773852
    44     10.306117     10.969813      2.185323
    45     10.764269     11.582730     -0.640844
    46      4.182170      7.339566      5.955360
    47      4.037279      8.634102      4.517827
    48      5.685405      6.279346      5.622568
    49     -1.784814     -0.070961    -10.252074
    50     -0.909211     -0.851654    -11.692832
    51     -3.321005      0.581796    -10.987128
    52     -8.538707     10.441037     11.178817
    53     -7.209080      9.882128     12.195074
    54     -9.530286     11.822187     11.889441
    55     -7.989762      6.756287     -0.227317
    56     -9.149389      8.042423      0.387982
    57     -6.474504      6.664552      0.964380
    58      9.820013     -3.321258      9.178054
    59      9.304681     -1.530361     10.093209
    60      8.675375     -4.611019     10.000089
    61     -0.663621    -10.437577      7.457120
    62      0.977072    -10.855263      6.623031
    63     -0.968400     -8.789640      6.758375
    64      8.425393     10.198026      9.219832
    65      6.973418      9.555238      8.298077
    66      9.578510      8.789313      9.547494
    67      0.774757      7.465990    -11.351632
    68      2.335063      8.559516    -11.008248
    69      0.833821      5.995035    -10.177918
    70      6.277808     -6.828881     -6.271600
    71      5.907348     -5.200970     -5.477381
    72      7.400595     -7.680078     -4.976977
    73      3.179608     10.591836      0.991025
    74      2.869925     12.499728      0.942769
    75      1.461030     10.053031      0.463516
    76      0.486960     -3.400868      9.906186
    77      0.263262     -4.936163     10.809069
    78     -0.209438     -3.664939      8.240799
    79     -3.939115      9.476534     -9.875002
    80     -4.285088      9.248254     -8.063904
    81     -2.210535      9.054027    -10.250850
    82     -6.660568      0.944886     -3.201740
    83     -7.948940      2.081170     -3.886564
    84     -5.114343      1.985344     -3.107112
    85      5.404694     -3.568803      0.029170
    86      4.549812     -2.957988      1.551488
    87      6.791725     -4.736920      0.489010
    88      5.032709     10.977232     -9.834120
    89      4.168793     12.183803     -8.668166
    90      5.984080     11.842834    -11.068795
    91      3.345350      1.179344      7.419038
    92      1.520430      0.563303      7.267161
    93      3.188197      2.542281      8.664634
    94      0.589927      3.573357     -7.473353
    95     -0.221714      2.077686     -8.476631
    96      2.358509      2.930561     -7.325703
    97     -8.184912     -9.933274     -6.169502
    98     -7.291151     -8.585217     -4.940377
    99     -7.393816    -11.549108     -5.622264
   100      6.631045      7.087749     -0.317283
   101      5.604582      8.763641     -0.112694
   102      8.423878      7.634153     -0.509304
   103      1.944526     -9.983285     -6.730148
   104      0.918862     -9.449689     -8.134991
   105      3.293834     -8.739913     -6.416875
   106     -5.785251     -1.775779      6.085729
   107     -6.732648     -2.627579      7.498006
   108     -6.983385     -1.387155      4.699652
   109    -10.156832      1.818977     -9.522636
   110     -8.966556      3.065935    -10.347997
   111     -9.234844      0.227302     -9.118369
   112      0.826578     -7.851682      0.790234
   113      2.139726     -6.789497      0.037024
   114     -0.308857     -8.193286     -0.637019
   115     -5.619596     -7.085044     -9.823284
   116     -5.292921     -5.823110     -8.489683
   117     -6.303970     -8.576953     -8.822457
   118     -6.102982      9.099320     -5.088042
   119     -7.161446      7.631886     -4.411932
   120     -5.273681      9.639816     -3.611161
   121      9.195721     -6.202984      1.325280
   122     10.874416     -5.490471      1.712133
   123      8.706320     -7.505140      2.490644
   124     -1.275909    -10.102574     -3.057278
   125     -1.301641    -11.635450     -1.993132
   126     -0.201040    -10.058559     -4.682390
   127     10.379895     -9.740355     -3.134513
   128     10.499222     -7.944027     -2.504142
   129     12.037263    -10.003055     -4.131378
   130     -1.784595      8.917742     -0.639410
   131     -1.775007      7.224011     -1.497901
   132     -2.799195      8.639378      0.847181
   133     -0.470294      5.798352      7.166253
   134     -0.484775      6.115968      8.915928
   135      1.315200      6.007978      6.529856
   136      9.573409    -10.116339      4.624904
   137     11.431278     -9.710549      4.930261
   138      8.560607    -10.908833      6.055136
   139     -4.134354      7.223117      4.092381
   140     -2.633050      7.128089      5.272306
   141     -5.358899      8.479033      4.773698
   142      5.181996      1.275004     -7.537278
   143      4.576701     -0.124110     -6.443316
   144      6.269832      2.241758     -6.357180
   145     10.895210      2.803014      2.315784
   146     11.258015      4.048976      1.008891
   147      9.159314      2.208296      1.800416
   148     11.106304    -10.645103    -10.042379
   149     11.898885     -9.473817     -8.862084
   150     10.818901    -12.322585     -9.044110
   151     -8.653438     -5.631941      0.637218
   152     -8.518094     -3.901880      1.002942
   153     -8.638564     -6.594131      2.197357
   154      8.866695      0.958632    -11.690708
   155     10.325962      1.820420    -10.881852
   156      7.741798      0.518344    -10.393023
   157      9.381279      4.443315      6.957741
   158     10.230322      3.951809      5.360212
   159      8.568816      2.851132      7.727905
   160     -1.824559     -5.402353      5.031940
   161     -3.114104     -4.028135      4.946158
   162     -1.061225     -5.457166      3.264827
   163     -5.582000     11.545605      6.826407
   164     -6.639587     11.156123      8.307463
   165     -3.719550     12.062530      7.448703
   166     -7.528852      4.056522      6.585083
   167     -6.314176      4.196330      5.257781
   168     -9.024663      3.587373      5.685574
   169      4.337675     -9.156842      6.429627
   170      4.442973     -7.259396      5.884447
   171      4.902390     -9.124694      8.159418
   172      5.273732     -3.948337      5.553693
   173      4.379176     -3.277016      6.989659
   174      7.043580     -3.706012      6.238339
   175    -10.952002     -3.915119     -3.651922
   176    -10.421620     -4.545453     -1.959364
   177    -12.181991     -2.569534     -3.642591
 
  MM charges 
  ---------- 
     1     -0.674440
     2      0.337220
     3      0.337220
     4     -0.674440
     5      0.337220
     6      0.337220
     7     -0.674440
     8      0.337220
     9      0.337220
    10     -0.674440
    11      0.337220
    12      0.337220
    13     -0.674440
    14      0.337220
    15      0.337220
    16     -0.674440
    17      0.337220
    18      0.337220
    19     -0.674440
    20      0.337220
    21      0.337220
    22     -0.674440
    23      0.337220
    24      0.337220
    25     -0.674440
    26      0.337220
    27      0.337220
    28     -0.674440
    29      0.337220
    30      0.337220
    31     -0.674440
    32      0.337220
    33      0.337220
    34     -0.674440
    35      0.337220
    36      0.337220
    37     -0.674440
    38      0.337220
    39      0.337220
    40     -0.674440
    41      0.337220
    42      0.337220
    43     -0.674440
    44      0.337220
    45      0.337220
    46     -0.674440
    47      0.337220
    48      0.337220
    49     -0.674440
    50      0.337220
    51      0.337220
    52     -0.674440
    53      0.337220
    54      0.337220
    55     -0.674440
    56      0.337220
    57      0.337220
    58     -0.674440
    59      0.337220
    60      0.337220
    61     -0.674440
    62      0.337220
    63      0.337220
    64     -0.674440
    65      0.337220
    66      0.337220
    67     -0.674440
    68      0.337220
    69      0.337220
    70     -0.674440
    71      0.337220
    72      0.337220
    73     -0.674440
    74      0.337220
    75      0.337220
    76     -0.674440
    77      0.337220
    78      0.337220
    79     -0.674440
    80      0.337220
    81      0.337220
    82     -0.674440
    83      0.337220
    84      0.337220
    85     -0.674440
    86      0.337220
    87      0.337220
    88     -0.674440
    89      0.337220
    90      0.337220
    91     -0.674440
    92      0.337220
    93      0.337220
    94     -0.674440
    95      0.337220
    96      0.337220
    97     -0.674440
    98      0.337220
    99      0.337220
   100     -0.674440
   101      0.337220
   102      0.337220
   103     -0.674440
   104      0.337220
   105      0.337220
   106     -0.674440
   107      0.337220
   108      0.337220
   109     -0.674440
   110      0.337220
   111      0.337220
   112     -0.674440
   113      0.337220
   114      0.337220
   115     -0.674440
   116      0.337220
   117      0.337220
   118     -0.674440
   119      0.337220
   120      0.337220
   121     -0.674440
   122      0.337220
   123      0.337220
   124     -0.674440
   125      0.337220
   126      0.337220
   127     -0.674440
   128      0.337220
   129      0.337220
   130     -0.674440
   131      0.337220
   132      0.337220
   133     -0.674440
   134      0.337220
   135      0.337220
   136     -0.674440
   137      0.337220
   138      0.337220
   139     -0.674440
   140      0.337220
   141      0.337220
   142     -0.674440
   143      0.337220
   144      0.337220
   145     -0.674440
   146      0.337220
   147      0.337220
   148     -0.674440
   149      0.337220
   150      0.337220
   151     -0.674440
   152      0.337220
   153      0.337220
   154     -0.674440
   155      0.337220
   156      0.337220
   157     -0.674440
   158      0.337220
   159      0.337220
   160     -0.674440
   161      0.337220
   162      0.337220
   163     -0.674440
   164      0.337220
   165      0.337220
   166     -0.674440
   167      0.337220
   168      0.337220
   169     -0.674440
   170      0.337220
   171      0.337220
   172     -0.674440
   173      0.337220
   174      0.337220
   175     -0.674440
   176      0.337220
   177      0.337220
 
  MM isotropic polarizabilities in au 
  ----------------------------------- 
     1      5.739350
     2      2.308390
     3      2.308390
     4      5.739350
     5      2.308390
     6      2.308390
     7      5.739350
     8      2.308390
     9      2.308390
    10      5.739350
    11      2.308390
    12      2.308390
    13      5.739350
    14      2.308390
    15      2.308390
    16      5.739350
    17      2.308390
    18      2.308390
    19      5.739350
    20      2.308390
    21      2.308390
    22      5.739350
    23      2.308390
    24      2.308390
    25      5.739350
    26      2.308390
    27      2.308390
    28      5.739350
    29      2.308390
    30      2.308390
    31      5.739350
    32      2.308390
    33      2.308390
    34      5.739350
    35      2.308390
    36      2.308390
    37      5.739350
    38      2.308390
    39      2.308390
    40      5.739350
    41      2.308390
    42      2.308390
    43      5.739350
    44      2.308390
    45      2.308390
    46      5.739350
    47      2.308390
    48      2.308390
    49      5.739350
    50      2.308390
    51      2.308390
    52      5.739350
    53      2.308390
    54      2.308390
    55      5.739350
    56      2.308390
    57      2.308390
    58      5.739350
    59      2.308390
    60      2.308390
    61      5.739350
    62      2.308390
    63      2.308390
    64      5.739350
    65      2.308390
    66      2.308390
    67      5.739350
    68      2.308390
    69      2.308390
    70      5.739350
    71      2.308390
    72      2.308390
    73      5.739350
    74      2.308390
    75      2.308390
    76      5.739350
    77      2.308390
    78      2.308390
    79      5.739350
    80      2.308390
    81      2.308390
    82      5.739350
    83      2.308390
    84      2.308390
    85      5.739350
    86      2.308390
    87      2.308390
    88      5.739350
    89      2.308390
    90      2.308390
    91      5.739350
    92      2.308390
    93      2.308390
    94      5.739350
    95      2.308390
    96      2.308390
    97      5.739350
    98      2.308390
    99      2.308390
   100      5.739350
   101      2.308390
   102      2.308390
   103      5.739350
   104      2.308390
   105      2.308390
   106      5.739350
   107      2.308390
   108      2.308390
   109      5.739350
   110      2.308390
   111      2.308390
   112      5.739350
   113      2.308390
   114      2.308390
   115      5.739350
   116      2.308390
   117      2.308390
   118      5.739350
   119      2.308390
   120      2.308390
   121      5.739350
   122      2.308390
   123      2.308390
   124      5.739350
   125      2.308390
   126      2.308390
   127      5.739350
   128      2.308390
   129      2.308390
   130      5.739350
   131      2.308390
   132      2.308390
   133      5.739350
   134      2.308390
   135      2.308390
   136      5.739350
   137      2.308390
   138      2.308390
   139      5.739350
   140      2.308390
   141      2.308390
   142      5.739350
   143      2.308390
   144      2.308390
   145      5.739350
   146      2.308390
   147      2.308390
   148      5.739350
   149      2.308390
   150      2.308390
   151      5.739350
   152      2.308390
   153      2.308390
   154      5.739350
   155      2.308390
   156      2.308390
   157      5.739350
   158      2.308390
   159      2.308390
   160      5.739350
   161      2.308390
   162      2.308390
   163      5.739350
   164      2.308390
   165      2.308390
   166      5.739350
   167      2.308390
   168      2.308390
   169      5.739350
   170      2.308390
   171      2.308390
   172      5.739350
   173      2.308390
   174      2.308390
   175      5.739350
   176      2.308390
   177      2.308390


     ************************************************************************
     ************************** Output from HERINT **************************
     ************************************************************************



                      Nuclear contribution to dipole moments
                      --------------------------------------

                 au               Debye          C m (/(10**-30)

      x     55.54544187       141.18242178       470.93386778
      y     35.88812710        91.21851455       304.27221271
      z     11.45963748        29.12749126        97.15885268



 Threshold for neglecting two-electron integrals:  1.00D-12
 HERMIT - Number of two-electron integrals written:    28206048 ( 36.7% )
 HERMIT - Megabytes written:                            322.978

  Time used in TWOINT     is       5.88 seconds
  Total CPU  time used in HERMIT:   6.08 seconds
  Total wall time used in HERMIT:   7.92 seconds


                        .----------------------------------.
                        | End of Integral Section (HERMIT) |
                        `----------------------------------'



                   .--------------------------------------------.
                   | Starting in Wave Function Section (SIRIUS) |
                   `--------------------------------------------'

NCCEXCI for singlet:    1
 CCSD_INPUT: core-val requested
 Requested number of virtual orbs per sym
                     1
 Indices of requested virtual orbs
                     1
 CCSD_INPUT: core-val requested
 Requested number of core orbs per sym
                     1
 Indices of requested core orbs
                     1

 *** Output from Huckel module :

     Using EWMO model:          T
     Using EHT  model:          F
     Number of Huckel orbitals each symmetry:   36

 EWMO - Energy Weighted Maximum Overlap - is a Huckel type method,
        which normally is better than Extended Huckel Theory.
 Reference: Linderberg and Ohrn, Propagators in Quantum Chemistry (Wiley, 1973)

 Huckel EWMO eigenvalues for symmetry :  1
          -20.685034     -20.684494     -20.684358     -20.684323     -15.673998
           -1.704898      -1.607283      -1.587094      -1.582268      -1.465803
           -0.805697      -0.798503      -0.788349      -0.774954      -0.745931
           -0.721099      -0.695388      -0.691790      -0.678398      -0.658335
           -0.616367      -0.615541      -0.601398      -0.589546      -0.515375
           -0.255561      -0.246348      -0.233177      -0.228096      -0.182349
           -0.181466      -0.174945      -0.166017      -0.160947      -0.152090
           -0.138577

 **********************************************************************
 *SIRIUS* a direct, restricted step, second order MCSCF program       *
 **********************************************************************

 
     Date and time (Linux)  : Mon Dec  3 17:54:20 2018
     Host name              : n-62-29-6                               

 Title lines from ".mol" input file:
                                                                             
                                                                             

 Print level on unit LUPRI =   2 is   0
 Print level on unit LUW4  =   2 is  11

@    (Integral direct) CC calculation.

@    This is a combination run starting with
@              a restricted, closed shell Hartree-Fock calculation


 Initial molecular orbitals are obtained according to
 ".MOSTART EWMO  " input option

@    QM part is embedded in an environment :

@         Model: QMMM

     Wave function specification
     ============================

     For the specification of the Coupled Cluster: see later.

@    Wave function type        --- CC ---
@    Number of closed shell electrons          50
@    Number of electrons in active shells       0
@    Total charge of the molecule               0

@    Spin multiplicity and 2 M_S                1         0
@    Total number of symmetries                 1 (point group: C1 )
@    Reference state symmetry                   1 (irrep name : A  )

     Orbital specifications
     ======================
@    Abelian symmetry species          All |    1
@                                          |  A  
                                       --- |  ---
@    Occupied SCF orbitals              25 |   25
@    Secondary orbitals                132 |  132
@    Total number of orbitals          157 |  157
@    Number of basis functions         157 |  157

     Optimization information
     ========================
@    Number of configurations                 1
@    Number of orbital rotations           3300
     ------------------------------------------
@    Total number of variables             3301

     Maximum number of Fock   iterations      0
     Maximum number of DIIS   iterations     60
     Maximum number of QC-SCF iterations     60
     Threshold for SCF convergence     1.00D-07


 Changes of defaults for CC:
 ---------------------------


 -Implicit frozen core calculation
 -Excitation energies calculated
 -One-photon absorption strengths will be calculated
 -Oscillator strengths calculated
  
* Read MO coefficients from SIRIUS.RST with label "NEWORB  " and header info:  3Dec18  REORTHO 


 ***********************************************
 ***** DIIS acceleration of SCF iterations *****
 ***********************************************

 C1-DIIS algorithm; max error vectors =    8
 -----------------------------------------------------------------------------

 *** DIIS iteration number    1
 RDSUPM called. NFMAT, ISYMDM(1:NFMAT)                     1
                     1

Calculating AOSUPINT
     (Precalculated two-electron integrals are transformed to P-supermatrix elements.
      Threshold for discarding integrals :  1.00D-12 )
  CPU  time used in FORMSUP    is   4.41 seconds
  WALL time used in FORMSUP    is  15.35 seconds

 ITDIIS, energy, error norm, change in energy, scr.thr., difden:
@ DIIS iter.   1    -359.916155583        3.81416D+00   -3.60D+02  -20    F

 (DIIS_RED) Control Parameters C2DIIS =         F NEVC =    1


 (DIIS_RED) B matrix:

               Column   1
       1      14.54782195
    ==== End of matrix output ====

 DIIS C vector; C2DIIS = F, LAMBDA = -1.45D+01
    1.000000
* Read MO coefficients from SIRIUS.RST with label "NEWORB  " and header info:  3Dec18  DIIS   1
      Virial theorem: -V/T =      1.998398
@      MULPOP N      -0.38; H       0.16; H       0.17; H       0.17; O      -0.66; O      -0.83; O      -0.64; O      -0.63; H       0.33; H       0.33; 
@             H       0.32; H       0.32; H       0.33; H       0.33; H       0.34; H       0.33; 
   1  Level shift: doubly occupied orbital energies shifted by -2.00D-01

 DIIS Fock eigenvalues in symmetry 1
      -20.74386      -20.72785      -20.69360      -20.53897      -15.99006
       -1.57965       -1.54607       -1.51582       -1.45834       -1.44548
       -0.96896       -0.95680       -0.93754       -0.91798       -0.91222
       -0.86605       -0.80782       -0.80401       -0.77023       -0.76603
       -0.75624       -0.75114       -0.73343       -0.69196       -0.65983
        0.00000        0.09638        0.14740        0.15196        0.21322
        0.22543        0.24197        0.25322        0.26825        0.29603
        0.33785        0.35390        0.43108        0.44630        0.50206
        0.52188        0.54641        0.57274        0.58243        0.58730
        0.59598        0.61686        0.63906        0.82061        0.85986
        0.90354        0.93806        0.96187        0.97610        0.99391
        1.00531        1.03356        1.05754        1.07556        1.08819
        1.10715        1.12924        1.18268        1.19483        1.23672
        1.26315        1.30711        1.33913        1.38505        1.42568
        1.44468        1.46052        1.47379        1.47871        1.51033
        1.53260        1.63038        1.64866        1.65793        1.67739
        1.70404        1.74482        1.75667        1.77438        1.81075
        1.82604        1.83623        1.86897        1.92658        1.98752
        2.07342        2.12420        2.14759        2.21466        2.26731
        2.29371        2.31289        2.32651        2.32904        2.40756
        2.48946        2.55988        2.59951        2.62780        2.63708
        2.67452        2.69788        2.70033        2.74083        2.76792
        2.81047        2.82676        2.86074        2.89219        3.05214
        3.26775        3.35927        3.38394        3.41091        3.44468
        3.46177        3.50731        3.51048        3.53714        3.58162
        3.58612        3.60903        3.65082        3.71771        3.92693
        4.01596        4.04158        4.07076        4.14516        4.17051
        4.19436        4.22934        4.45774        4.97071        5.06807
        5.33347        5.34262        5.40411        5.43546        5.64378
        5.71712        5.77283        5.80987        6.01830        6.16723
        6.17967        6.23524       36.79175       51.52479       51.56177
       51.57713       51.75559
 Time used in FCKEIG, thr_jaco:   4.10D-02  7.00D-02  1.66D-04
 CPU and wall times used in FCKEIG, THR_FCKEIG:   4.10D-02  7.00D-02  3.81D-02
 -----------------------------------------------------------------------------

 *** DIIS iteration number    2
 RDSUPM called. NFMAT, ISYMDM(1:NFMAT)                     1
                     1

 ITDIIS, energy, error norm, change in energy, scr.thr., difden:
@ DIIS iter.   2    -360.715474188        9.29450D-01   -7.99D-01  -20    F

 (DIIS_RED) Control Parameters C2DIIS =         F NEVC =    2


 (DIIS_RED) B matrix:

               Column   1     Column   2
       1      14.54782195
       2       0.99829646     0.86387798
    ==== End of matrix output ====

 DIIS C vector; C2DIIS = F, LAMBDA = -8.63D-01
   -0.010020    1.010020
* Read MO coefficients from SIRIUS.RST with label "NEWORB  " and header info:  3Dec18  DIIS   2
      Virial theorem: -V/T =      2.003743
@      MULPOP N      -0.65; H       0.22; H       0.22; H       0.23; O      -0.66; O      -0.68; O      -0.60; O      -0.54; H       0.33; H       0.34; 
@             H       0.29; H       0.31; H       0.33; H       0.29; H       0.29; H       0.29; 
   2  Level shift: doubly occupied orbital energies shifted by -5.00D-02

 DIIS Fock eigenvalues in symmetry 1
      -20.65130      -20.62755      -20.62459      -20.59721      -15.47720
       -1.40932       -1.38294       -1.36677       -1.35911       -1.15712
       -0.78354       -0.74000       -0.73809       -0.73060       -0.66553
       -0.65246       -0.64435       -0.64003       -0.62729       -0.60613
       -0.58037       -0.57246       -0.56509       -0.55764       -0.46112
        0.00000        0.14117        0.18424        0.19047        0.24477
        0.25192        0.26069        0.28458        0.29647        0.34108
        0.36697        0.38054        0.50463        0.51010        0.54646
        0.56465        0.58410        0.60879        0.61848        0.62746
        0.63571        0.65534        0.69670        0.92075        0.93462
        0.95434        0.97265        0.98037        0.98980        1.00094
        1.05182        1.06508        1.08105        1.11085        1.11345
        1.13480        1.14913        1.16180        1.26340        1.32698
        1.33083        1.34808        1.40218        1.43589        1.47501
        1.48995        1.50184        1.52790        1.53673        1.56153
        1.57886        1.64476        1.70047        1.71368        1.73641
        1.74733        1.80004        1.84557        1.85090        1.86493
        1.89372        1.91085        1.93718        2.00253        2.06524
        2.19639        2.19954        2.24701        2.27638        2.31164
        2.34427        2.36099        2.37751        2.39482        2.49645
        2.57145        2.63181        2.65887        2.69477        2.72657
        2.72833        2.76440        2.78554        2.79634        2.83221
        2.86522        2.98298        3.00499        3.03637        3.19689
        3.40656        3.42030        3.43688        3.44985        3.47640
        3.49154        3.52132        3.54382        3.56014        3.58491
        3.61807        3.64058        3.66773        3.69232        3.95262
        3.99749        4.05494        4.09678        4.17149        4.19550
        4.20196        4.22729        4.63496        5.19948        5.27913
        5.30604        5.33780        5.34740        5.43650        5.64232
        5.69355        5.72156        5.79006        6.03827        6.13710
        6.18504        6.21461       37.14847       51.47757       51.49871
       51.52609       51.53395
 Time used in FCKEIG, thr_jaco:   3.40D-02  4.60D-02  4.04D-05
 CPU and wall times used in FCKEIG, THR_FCKEIG:   3.40D-02  4.60D-02  9.29D-03
 -----------------------------------------------------------------------------

 *** DIIS iteration number    3
 RDSUPM called. NFMAT, ISYMDM(1:NFMAT)                     1
                     1

 ITDIIS, energy, error norm, change in energy, scr.thr., difden:
@ DIIS iter.   3    -360.776048535        3.41781D-01   -6.06D-02  -20    F

 (DIIS_RED) Control Parameters C2DIIS =         F NEVC =    3


 (DIIS_RED) B matrix:

               Column   1     Column   2     Column   3
       1      14.54782195
       2       0.99829646     0.86387798
       3       0.61732226     0.05903683     0.11681447
    ==== End of matrix output ====

 DIIS C vector; C2DIIS = F, LAMBDA = -9.17D-02
   -0.040123    0.087387    0.952736
* Read MO coefficients from SIRIUS.RST with label "NEWORB  " and header info:  3Dec18  DIIS   3
      Virial theorem: -V/T =      2.001856
@      MULPOP N      -0.58; H       0.19; H       0.19; H       0.21; O      -0.72; O      -0.77; O      -0.66; O      -0.57; H       0.36; H       0.37; 
@             H       0.35; H       0.35; H       0.37; H       0.31; H       0.30; H       0.30; 
   3  Level shift: doubly occupied orbital energies shifted by -2.50D-02

 DIIS Fock eigenvalues in symmetry 1
      -20.57342      -20.56922      -20.54355      -20.49387      -15.58959
       -1.37407       -1.34567       -1.32417       -1.29901       -1.17057
       -0.74662       -0.70501       -0.69983       -0.67460       -0.66389
       -0.64357       -0.60836       -0.60279       -0.56765       -0.56377
       -0.53899       -0.52758       -0.51351       -0.48913       -0.45983
        0.00000        0.14355        0.18711        0.19127        0.24855
        0.25345        0.26482        0.28673        0.29812        0.34033
        0.36960        0.38082        0.50209        0.50775        0.55458
        0.57072        0.59344        0.61637        0.62593        0.63426
        0.64234        0.66548        0.69548        0.91643        0.93397
        0.96465        0.97906        0.99350        1.00247        1.01745
        1.04939        1.07196        1.09016        1.11709        1.12204
        1.14302        1.15870        1.18509        1.26118        1.33157
        1.33266        1.35026        1.39972        1.43879        1.48848
        1.49893        1.51219        1.53669        1.54527        1.57182
        1.58953        1.66102        1.70794        1.72083        1.74378
        1.75787        1.80689        1.84721        1.85313        1.87116
        1.90167        1.91518        1.93988        2.00490        2.06799
        2.18237        2.20861        2.23450        2.28683        2.32164
        2.36428        2.37279        2.38812        2.40680        2.50549
        2.57591        2.63885        2.66967        2.69929        2.72949
        2.73512        2.77295        2.79071        2.80255        2.83895
        2.87260        2.95715        2.98616        3.01326        3.17363
        3.40414        3.42421        3.45418        3.47011        3.49818
        3.50911        3.54310        3.56229        3.57840        3.58657
        3.63201        3.66030        3.70744        3.71757        3.97132
        4.04512        4.07104        4.11401        4.19014        4.21797
        4.24589        4.24711        4.58037        5.14332        5.23447
        5.35741        5.36964        5.38427        5.44971        5.66364
        5.74510        5.76751        5.80886        6.06199        6.20622
        6.21049        6.23551       37.01529       51.51120       51.55491
       51.56001       51.63009
 Time used in FCKEIG, thr_jaco:   3.00D-02  4.50D-02  1.49D-05
 CPU and wall times used in FCKEIG, THR_FCKEIG:   3.00D-02  4.50D-02  3.42D-03
 -----------------------------------------------------------------------------

 *** DIIS iteration number    4
 RDSUPM called. NFMAT, ISYMDM(1:NFMAT)                     1
                     1

 ITDIIS, energy, error norm, change in energy, scr.thr., difden:
@ DIIS iter.   4    -360.784107565        1.19173D-01   -8.06D-03  -20    F

 (DIIS_RED) Control Parameters C2DIIS =         F NEVC =    4


 (DIIS_RED) B matrix:

               Column   1     Column   2     Column   3     Column   4
       1      14.54782195
       2       0.99829646     0.86387798
       3       0.61732226     0.05903683     0.11681447
       4      -0.00172377     0.08229276    -0.00955490     0.01420219
    ==== End of matrix output ====

 DIIS C vector; C2DIIS = F, LAMBDA = -3.93D-03
    0.000287   -0.095917    0.157340    0.938291
* Read MO coefficients from SIRIUS.RST with label "NEWORB  " and header info:  3Dec18  DIIS   4
      Virial theorem: -V/T =      2.002601
@      MULPOP N      -0.65; H       0.21; H       0.21; H       0.23; O      -0.74; O      -0.76; O      -0.68; O      -0.58; H       0.37; H       0.38; 
@             H       0.35; H       0.35; H       0.38; H       0.32; H       0.30; H       0.31; 
   4  Level shift: doubly occupied orbital energies shifted by -1.25D-02

 DIIS Fock eigenvalues in symmetry 1
      -20.56846      -20.56643      -20.53884      -20.52200      -15.54204
       -1.36523       -1.33767       -1.31519       -1.29961       -1.14737
       -0.73708       -0.69596       -0.69099       -0.66973       -0.64311
       -0.62192       -0.59814       -0.59121       -0.56046       -0.55537
       -0.52596       -0.51573       -0.50054       -0.48607       -0.43760
        0.00000        0.14339        0.18598        0.19114        0.24818
        0.25328        0.26405        0.28680        0.29819        0.34167
        0.37055        0.38224        0.50568        0.51096        0.55406
        0.57017        0.59358        0.61535        0.62488        0.63189
        0.64128        0.66311        0.69796        0.92120        0.93719
        0.96502        0.98153        0.99439        1.00066        1.01359
        1.05298        1.07265        1.08883        1.11723        1.12111
        1.14244        1.15743        1.17866        1.26302        1.33208
        1.33458        1.35084        1.40339        1.44010        1.48628
        1.49684        1.51023        1.53480        1.54266        1.57062
        1.58785        1.65768        1.70639        1.71934        1.74277
        1.75639        1.80534        1.84986        1.85481        1.86998
        1.90056        1.91463        1.94042        2.00699        2.07041
        2.18994        2.20539        2.24121        2.28499        2.31908
        2.35810        2.36914        2.38540        2.40413        2.50655
        2.57792        2.63693        2.66824        2.70017        2.73135
        2.73330        2.77128        2.79237        2.80139        2.83635
        2.87229        2.96807        2.99517        3.02259        3.18271
        3.41355        3.42253        3.45216        3.47320        3.48687
        3.50605        3.54618        3.55979        3.57272        3.58447
        3.63043        3.65720        3.70533        3.70622        3.96799
        4.03365        4.06893        4.11163        4.18800        4.21481
        4.23619        4.24415        4.59651        5.16094        5.24992
        5.35227        5.36233        5.36675        5.44743        5.66001
        5.73997        5.74765        5.80569        6.05639        6.19013
        6.20195        6.23132       37.04968       51.50174       51.54737
       51.55259       51.59032
 Time used in FCKEIG, thr_jaco:   2.40D-02  9.00D-02  5.19D-06
 CPU and wall times used in FCKEIG, THR_FCKEIG:   2.40D-02  9.00D-02  1.19D-03
 -----------------------------------------------------------------------------

 *** DIIS iteration number    5
 RDSUPM called. NFMAT, ISYMDM(1:NFMAT)                     1
                     1

 ITDIIS, energy, error norm, change in energy, scr.thr., difden:
@ DIIS iter.   5    -360.785236559        2.35760D-02   -1.13D-03  -20    F

 (DIIS_RED) Control Parameters C2DIIS =         F NEVC =    5


 (DIIS_RED) B matrix:

               Column   1     Column   2     Column   3     Column   4     Column   5
       1      14.54782195
       2       0.99829646     0.86387798
       3       0.61732226     0.05903683     0.11681447
       4      -0.00172377     0.08229276    -0.00955490     0.01420219
       5       0.01320284     0.00637947     0.00482413     0.00077888     0.00055583
    ==== End of matrix output ====

 DIIS C vector; C2DIIS = F, LAMBDA = -2.94D-04
    0.001315    0.007373   -0.068318   -0.133238    1.192868
* Read MO coefficients from SIRIUS.RST with label "NEWORB  " and header info:  3Dec18  DIIS   5
      Virial theorem: -V/T =      2.002268
@      MULPOP N      -0.64; H       0.21; H       0.21; H       0.22; O      -0.75; O      -0.78; O      -0.69; O      -0.59; H       0.37; H       0.39; 
@             H       0.36; H       0.35; H       0.38; H       0.32; H       0.31; H       0.32; 

 DIIS Fock eigenvalues in symmetry 1
      -20.55472      -20.55285      -20.52553      -20.50320      -15.52626
       -1.35245       -1.32493       -1.30248       -1.28487       -1.13417
       -0.72486       -0.68402       -0.67879       -0.65607       -0.63015
       -0.60898       -0.58586       -0.57876       -0.54632       -0.54262
       -0.51233       -0.50216       -0.48681       -0.47055       -0.42387
        0.00000        0.14318        0.18563        0.19097        0.24815
        0.25322        0.26392        0.28669        0.29802        0.34161
        0.37070        0.38236        0.50574        0.51100        0.55389
        0.56991        0.59378        0.61516        0.62466        0.63143
        0.64102        0.66330        0.69811        0.92199        0.93749
        0.96523        0.98196        0.99486        1.00172        1.01537
        1.05326        1.07328        1.08871        1.11755        1.12113
        1.14258        1.15732        1.17959        1.26326        1.33212
        1.33472        1.35095        1.40361        1.44032        1.48677
        1.49642        1.50988        1.53429        1.54196        1.57063
        1.58779        1.65834        1.70595        1.71885        1.74241
        1.75654        1.80478        1.84978        1.85473        1.86948
        1.90008        1.91405        1.94026        2.00706        2.07044
        2.19017        2.20464        2.24141        2.28447        2.31845
        2.35839        2.36860        2.38482        2.40368        2.50674
        2.57822        2.63617        2.66811        2.69994        2.73116
        2.73265        2.77053        2.79198        2.80066        2.83530
        2.87197        2.96863        2.99573        3.02302        3.18319
        3.41427        3.42284        3.45240        3.47365        3.48909
        3.50620        3.54741        3.56006        3.57368        3.58517
        3.63065        3.65727        3.70608        3.70785        3.96809
        4.03585        4.06904        4.11164        4.18813        4.21502
        4.23842        4.24434        4.59811        5.16222        5.25120
        5.35344        5.36438        5.36870        5.44826        5.66037
        5.74043        5.75095        5.80620        6.05657        6.19325
        6.20204        6.23158       37.05289       51.50280       51.54817
       51.55382       51.59648
 Time used in FCKEIG, thr_jaco:   2.50D-02  5.70D-02  1.03D-06
 CPU and wall times used in FCKEIG, THR_FCKEIG:   2.50D-02  5.70D-02  2.36D-04
 -----------------------------------------------------------------------------

 *** DIIS iteration number    6
 RDSUPM called. NFMAT, ISYMDM(1:NFMAT)                     1
                     1

 ITDIIS, energy, error norm, change in energy, scr.thr., difden:
@ DIIS iter.   6    -360.785317851        7.39930D-03   -8.13D-05  -20    F

 (DIIS_RED) Control Parameters C2DIIS =         F NEVC =    6


 (DIIS_RED) B matrix:

               Column   1     Column   2     Column   3     Column   4     Column   5     Column   6
       1      14.54782195
       2       0.99829646     0.86387798
       3       0.61732226     0.05903683     0.11681447
       4      -0.00172377     0.08229276    -0.00955490     0.01420219
       5       0.01320284     0.00637947     0.00482413     0.00077888     0.00055583
       6      -0.00233400    -0.00028639     0.00049003     0.00018233     0.00006379     0.00005475
    ==== End of matrix output ====

 DIIS C vector; C2DIIS = F, LAMBDA = -3.25D-05
    0.000443    0.007681   -0.022969   -0.078467    0.162320    0.930993
* Read MO coefficients from SIRIUS.RST with label "NEWORB  " and header info:  3Dec18  DIIS   6
      Virial theorem: -V/T =      2.002396
@      MULPOP N      -0.64; H       0.21; H       0.20; H       0.22; O      -0.75; O      -0.78; O      -0.69; O      -0.59; H       0.37; H       0.39; 
@             H       0.36; H       0.35; H       0.39; H       0.32; H       0.31; H       0.32; 

 DIIS Fock eigenvalues in symmetry 1
      -20.55540      -20.55335      -20.52569      -20.50544      -15.52954
       -1.35268       -1.32507       -1.30247       -1.28546       -1.13524
       -0.72520       -0.68421       -0.67904       -0.65672       -0.63110
       -0.60988       -0.58623       -0.57914       -0.54695       -0.54281
       -0.51244       -0.50217       -0.48664       -0.47098       -0.42483
        0.00000        0.14304        0.18551        0.19082        0.24805
        0.25308        0.26383        0.28658        0.29788        0.34142
        0.37052        0.38218        0.50539        0.51064        0.55367
        0.56971        0.59351        0.61506        0.62451        0.63125
        0.64092        0.66306        0.69775        0.92139        0.93702
        0.96503        0.98155        0.99474        1.00147        1.01510
        1.05283        1.07310        1.08851        1.11726        1.12090
        1.14242        1.15715        1.17919        1.26282        1.33200
        1.33433        1.35062        1.40318        1.43993        1.48644
        1.49620        1.50963        1.53411        1.54172        1.57036
        1.58753        1.65800        1.70582        1.71858        1.74212
        1.75625        1.80462        1.84942        1.85437        1.86930
        1.89983        1.91374        1.93989        2.00671        2.07009
        2.18946        2.20435        2.24071        2.28417        2.31828
        2.35798        2.36833        2.38463        2.40341        2.50630
        2.57775        2.63588        2.66787        2.69961        2.73076
        2.73247        2.77027        2.79168        2.80042        2.83502
        2.87175        2.96760        2.99481        3.02212        3.18231
        3.41333        3.42273        3.45212        3.47303        3.48838
        3.50596        3.54654        3.55972        3.57325        3.58466
        3.63054        3.65706        3.70574        3.70718        3.96787
        4.03508        4.06870        4.11156        4.18807        4.21478
        4.23760        4.24405        4.59639        5.16055        5.24965
        5.35320        5.36384        5.36797        5.44776        5.66029
        5.74010        5.74980        5.80576        6.05624        6.19210
        6.20192        6.23114       37.04967       51.50230       51.54800
       51.55315       51.59429
 Time used in FCKEIG, thr_jaco:   2.20D-02  2.90D-02  3.22D-07
 CPU and wall times used in FCKEIG, THR_FCKEIG:   2.20D-02  3.00D-02  7.40D-05
 -----------------------------------------------------------------------------

 *** DIIS iteration number    7
 RDSUPM called. NFMAT, ISYMDM(1:NFMAT)                     1
                     1

 ITDIIS, energy, error norm, change in energy, scr.thr., difden:
@ DIIS iter.   7    -360.785323360        2.38114D-03   -5.51D-06  -20    F

 (DIIS_RED) Control Parameters C2DIIS =         F NEVC =    7


 (DIIS_RED) B matrix:

               Column   1     Column   2     Column   3     Column   4     Column   5     Column   6
       1      14.54782195
       2       0.99829646     0.86387798
       3       0.61732226     0.05903683     0.11681447
       4      -0.00172377     0.08229276    -0.00955490     0.01420219
       5       0.01320284     0.00637947     0.00482413     0.00077888     0.00055583
       6      -0.00233400    -0.00028639     0.00049003     0.00018233     0.00006379     0.00005475
       7       0.00073102     0.00001359     0.00006873    -0.00000178     0.00003331    -0.00000071

               Column   7
       7       0.00000567
    ==== End of matrix output ====

 DIIS C vector; C2DIIS = F, LAMBDA = -1.12D-06
   -0.000210   -0.001499    0.009832    0.023996   -0.164947    0.042168    1.090660
* Read MO coefficients from SIRIUS.RST with label "NEWORB  " and header info:  3Dec18  DIIS   7
      Virial theorem: -V/T =      2.002365
@      MULPOP N      -0.64; H       0.21; H       0.20; H       0.22; O      -0.75; O      -0.78; O      -0.69; O      -0.59; H       0.37; H       0.39; 
@             H       0.36; H       0.35; H       0.39; H       0.32; H       0.31; H       0.32; 

 DIIS Fock eigenvalues in symmetry 1
      -20.55531      -20.55328      -20.52568      -20.50475      -15.52891
       -1.35263       -1.32501       -1.30241       -1.28515       -1.13504
       -0.72520       -0.68422       -0.67903       -0.65650       -0.63096
       -0.60976       -0.58628       -0.57918       -0.54676       -0.54281
       -0.51234       -0.50207       -0.48654       -0.47063       -0.42461
        0.00000        0.14306        0.18551        0.19084        0.24808
        0.25311        0.26384        0.28659        0.29789        0.34145
        0.37059        0.38222        0.50546        0.51071        0.55371
        0.56973        0.59361        0.61509        0.62452        0.63124
        0.64094        0.66314        0.69783        0.92153        0.93709
        0.96504        0.98163        0.99479        1.00160        1.01531
        1.05290        1.07318        1.08854        1.11733        1.12094
        1.14247        1.15718        1.17936        1.26292        1.33204
        1.33439        1.35067        1.40324        1.44002        1.48657
        1.49620        1.50963        1.53410        1.54170        1.57043
        1.58759        1.65815        1.70583        1.71858        1.74213
        1.75636        1.80463        1.84945        1.85443        1.86931
        1.89982        1.91374        1.93995        2.00679        2.07015
        2.18956        2.20434        2.24080        2.28416        2.31828
        2.35809        2.36832        2.38463        2.40340        2.50639
        2.57785        2.63585        2.66796        2.69962        2.73078
        2.73247        2.77024        2.79169        2.80042        2.83498
        2.87183        2.96777        2.99499        3.02227        3.18245
        3.41350        3.42278        3.45217        3.47313        3.48868
        3.50600        3.54676        3.55978        3.57341        3.58480
        3.63059        3.65710        3.70580        3.70747        3.96790
        4.03539        4.06874        4.11160        4.18811        4.21483
        4.23792        4.24410        4.59675        5.16085        5.24993
        5.35331        5.36404        5.36822        5.44785        5.66032
        5.74016        5.75021        5.80582        6.05629        6.19251
        6.20195        6.23120       37.05029       51.50236       51.54802
       51.55324       51.59497
 Time used in FCKEIG, thr_jaco:   2.50D-02  4.20D-02  1.04D-07
 CPU and wall times used in FCKEIG, THR_FCKEIG:   2.50D-02  4.20D-02  2.38D-05
 -----------------------------------------------------------------------------

 *** DIIS iteration number    8
 RDSUPM called. NFMAT, ISYMDM(1:NFMAT)                     1
                     1

 ITDIIS, energy, error norm, change in energy, scr.thr., difden:
@ DIIS iter.   8    -360.785323919        3.36297D-04   -5.58D-07  -20    F

 (DIIS_RED) Control Parameters C2DIIS =         F NEVC =    8


 (DIIS_RED) B matrix:

               Column   1     Column   2     Column   3     Column   4     Column   5     Column   6
       1      14.54782195
       2       0.99829646     0.86387798
       3       0.61732226     0.05903683     0.11681447
       4      -0.00172377     0.08229276    -0.00955490     0.01420219
       5       0.01320284     0.00637947     0.00482413     0.00077888     0.00055583
       6      -0.00233400    -0.00028639     0.00049003     0.00018233     0.00006379     0.00005475
       7       0.00073102     0.00001359     0.00006873    -0.00000178     0.00003331    -0.00000071
       8       0.00003108     0.00000171    -0.00000255     0.00000410     0.00000089     0.00000126

               Column   7     Column   8
       7       0.00000567
       8       0.00000025     0.00000011
    ==== End of matrix output ====

 DIIS C vector; C2DIIS = F, LAMBDA = -5.25D-08
    0.000021    0.000137   -0.001311   -0.003121    0.028852   -0.039802   -0.208048    1.223272
* Read MO coefficients from SIRIUS.RST with label "NEWORB  " and header info:  3Dec18  DIIS   8
      Virial theorem: -V/T =      2.002381
@      MULPOP N      -0.64; H       0.21; H       0.20; H       0.22; O      -0.75; O      -0.78; O      -0.69; O      -0.59; H       0.37; H       0.39; 
@             H       0.36; H       0.35; H       0.39; H       0.32; H       0.31; H       0.32; 

 DIIS Fock eigenvalues in symmetry 1
      -20.55531      -20.55329      -20.52566      -20.50478      -15.52894
       -1.35262       -1.32501       -1.30240       -1.28516       -1.13504
       -0.72519       -0.68421       -0.67903       -0.65651       -0.63096
       -0.60978       -0.58630       -0.57919       -0.54677       -0.54282
       -0.51233       -0.50207       -0.48653       -0.47064       -0.42462
        0.00000        0.14305        0.18550        0.19084        0.24808
        0.25310        0.26384        0.28659        0.29789        0.34145
        0.37058        0.38222        0.50545        0.51071        0.55370
        0.56973        0.59360        0.61509        0.62452        0.63124
        0.64094        0.66314        0.69782        0.92152        0.93708
        0.96503        0.98162        0.99478        1.00159        1.01531
        1.05289        1.07318        1.08854        1.11733        1.12094
        1.14247        1.15718        1.17936        1.26291        1.33205
        1.33438        1.35067        1.40324        1.44001        1.48656
        1.49619        1.50962        1.53410        1.54169        1.57042
        1.58759        1.65814        1.70583        1.71857        1.74212
        1.75635        1.80463        1.84945        1.85442        1.86931
        1.89981        1.91373        1.93994        2.00678        2.07014
        2.18955        2.20433        2.24079        2.28415        2.31828
        2.35809        2.36831        2.38463        2.40339        2.50638
        2.57783        2.63585        2.66795        2.69962        2.73078
        2.73247        2.77023        2.79168        2.80042        2.83497
        2.87181        2.96776        2.99497        3.02226        3.18244
        3.41349        3.42278        3.45216        3.47312        3.48867
        3.50599        3.54674        3.55977        3.57341        3.58480
        3.63060        3.65710        3.70580        3.70746        3.96789
        4.03538        4.06874        4.11160        4.18812        4.21482
        4.23791        4.24410        4.59672        5.16083        5.24991
        5.35331        5.36403        5.36820        5.44785        5.66033
        5.74015        5.75018        5.80582        6.05628        6.19248
        6.20195        6.23119       37.05026       51.50236       51.54804
       51.55324       51.59494
 Time used in FCKEIG, thr_jaco:   2.30D-02  4.10D-02  1.46D-08
 CPU and wall times used in FCKEIG, THR_FCKEIG:   2.30D-02  4.10D-02  3.36D-06
 -----------------------------------------------------------------------------

 *** DIIS iteration number    9
 RDSUPM called. NFMAT, ISYMDM(1:NFMAT)                     1
                     1

 ITDIIS, energy, error norm, change in energy, scr.thr., difden:
@ DIIS iter.   9    -360.785323934        7.22120D-05   -1.58D-08  -20    F

 (DIIS_RED) Control Parameters C2DIIS =         F NEVC =    8


 (DIIS_RED) B matrix:

               Column   1     Column   2     Column   3     Column   4     Column   5     Column   6
       1       0.00000001
       2       0.00000225     0.86387798
       3       0.00000005     0.05903683     0.11681447
       4       0.00000004     0.08229276    -0.00955490     0.01420219
       5       0.00000014     0.00637947     0.00482413     0.00077888     0.00055583
[...]
 | 1 1 1 1 |  12   1  21   1 |     2652        1 |      3515227 |    0.078736  |
 | 1 1 1 1 |  17   1  21   1 |     2657        1 |      3528497 |    0.075945  |
 | 1 1 1 1 |  24   1  21   1 |     2664        1 |      3547117 |   -0.170372  |
 | 1 1 1 1 | 113   1  21   1 |     2753        1 |      3788129 |    0.099676  |
 | 1 1 1 1 |   1  24  21   1 |     2641       24 |      3486144 |    0.067284  |
 +=============================================================================+


          Norm of Printed Amplitude Vector :             0.8755

          Printed all single excitations greater than 0.379075

          Printed all double excitations greater than 0.065208



+======================================================================+
| contributions of excitation levels to right eigenvectors as computed |
| from the (RE|RE) self overlap                                        |
+----------------------------------------------------------------------+
| sym | multi | state |    E / eV  | % singles | % doubles | % triples |
+======================================================================+
|    1|   1   |   1   |  406.42784 |  88.2003  |  11.7997  |   0.0000  |
+======================================================================+





+======================================================================+
| contributions of excitation levels to excited states as computed     |
| from the (LE|RE) overlap                                             |
+----------------------------------------------------------------------+
| sym | multi | state |    E / eV  | % singles | % doubles | % triples |
+======================================================================+
|    1|   1   |   1   |  406.42784 |  78.9062  |  21.0938  |   0.0000  |
+======================================================================+



 --------------------------
 Symmetry class Nr.:     1
 Multiplicity      :     3
 --------------------------

 Length of Excitation vectors in this class is:   7689528
 No Excitation Energies calculated in this symmetry class
     

   *******************************************************************
   *                                                                 *
   *--------   OUTPUT FROM PROPERTY AND SYMMETRY ANALYSIS   ---------*
   *                                                                 *
   *******************************************************************



                         +-------------------------------+
                         ! REQUESTED PROPERTY OPERATORS: !
                         +-------------------------------+

             Index   Oper. Label  Symmetry  Transp.  PDBS  Atom
             --------------------------------------------------
                1     HAM0            1        1      T      0
                2     XDIPLEN         1        1      F      0
                3     YDIPLEN         1        1      F      0
                4     ZDIPLEN         1        1      F      0
             --------------------------------------------------




                         +-------------------------------+
                         ! REQUESTED EXPECTATION VALUES: !
                         +-------------------------------+

                       Index   Oper. Label  Symmetry
                       -----------------------------
                       -----------------------------




                       +------------------------------------+
                       ! REQUESTED EFFECTIVE FOCK MATRICES: !
                       +------------------------------------+

                       Index   Oper. Label  Symmetry
                       -----------------------------
                       -----------------------------




                        +----------------------------------+
                        ! REQUESTED FIRST ORDER M-VECTORS: !
                        +----------------------------------+

               Index   State Symmetry  Frequency
               --------------------------------------------------
                  1             1    1     1.493595D+01
               --------------------------------------------------


      

    *******************************************************************
    *          SOLVING COUPLED CLUSTER RESPONSE EQUATIONS             *
    *******************************************************************



 
 +======================================================================+
 !                     RHS & ETA VECTORS TO COMPUTE:                    !
 +======================================================================+
 | TYPE | # VEC. |  NEEDED FOR:                                         |
 +----------------------------------------------------------------------+
 +======================================================================+



 +======================================================================+
 !                       LINEAR EQUATIONS TO SOLVE:                     !
 +======================================================================+
 | TYPE | # VEC. |  EQUATION:                                           |
 +----------------------------------------------------------------------+
 |  M1  |    1   |  first-order ground - excited state multipliers      |
 +======================================================================+



 +======================================================================+
 !                F MATRIX TRANSFORMATIONS TO COMPUTE:                  !
 +======================================================================+
 | TYPE | # VEC. |  TRANSFORMED:                                        |
 +----------------------------------------------------------------------+
 |  FR  |    1   |  right eigenvectors (RE)                             |
 +======================================================================+





 Testing R1 list: 

 List nr.  Label     Symmetry      Frequency      T1-norm        T2-norm


 Testing L1 list: 

 List nr.  Label     Symmetry      Frequency      T1-norm        T2-norm
  Solvent 1-order response equations converged in                     0 
  solvent iterations
 SONIAPRI                     0
 CCEQ_STR: CVSEPARATION =  T
 CCEQ_STR: IONIZATION =  T
 CCEQ_STR: REMOVE_CORE =  F
 could not find required file CCM1_1___1
 IOPTSV is    33 ... program continues nevertheless.
 Vector nr.  1 of type M1  and symmetry  1 was not found on file.
     M1  start vector nr.  1 of symmetry  1 generated from gradient
 CCEQ_STR: freeze VALENCE OR VIRT
 CCEQ_SOL: CVSEPARA=     T
 CCEQ_SOL: LIONISAT=     T
 CCEQ_SOL: REMOVE_CORE =  F



 ----- COUPLED CLUSTER RESPONSE SOLVER -----

    Iter  #Vectors  time (min)   residual
    --------------------------------------
 CCRED CVS/IONIS sigma_                     1 
 project out valence occupied or virtual
      1       1         1.14     0.34E+00
 CCRED CVS/IONIS sigma_                     2 
 project out valence occupied or virtual
      2       1         1.15     0.74E-01
 CCRED CVS/IONIS sigma_                     3 
 project out valence occupied or virtual
                    -1  vectors with norm le:  1.000000000000000E-035  REMOVED

 CCORT,**WARNING**  number vectors added is zero after check for vector norm , NBADD :    0

 CCORT, number vectors added is zero , NBADD :    0

 CCORT, number vectors added is zero , NBADD :    0

 CCORT, number vectors added is zero , NBADD :    0

 *** MICROITERATIONS STOPPED DUE TO LINEAR DEPENDENCE BETWEEN ALL NEW TRIAL VECTORS
                     0  trial vectors converged
  LINEAR DEPENDENCE BETWEEN                     1  NON CONVERGED TRIAL VECTORS
      3       1         1.14     0.78E-02

 ***  CCEQ_SOL -MICROITERATIONS STOPPED  
     LINEAR DEPENDENCE BETWEEN ALL NEW TRIAL VECTORS
    --------------------------------------
    converged in  3 iterations
    threshold:    0.10E-08


         Routine          Time (min)
         ---------------------------
         CC_TRDRV            3.43
         CCRED               0.02
         CCNEX               0.03
         ---------------------------
         Total time          3.49


  Total CPU  time used in CCEQ_SOLV:  3 minutes 29 seconds
  Total wall time used in CCEQ_SOLV:  4 minutes  2 seconds


 xxxxxxxxxxxxxxxxxxxxxxxxxxxxxxxxxxxxx

 
 Solution of CC response equations completed.
 

 *******************************************************************
 *                                                                 *
 *--------  OUTPUT FROM COUPLED CLUSTER LINEAR RESPONSE   ---------*
 *                                                                 *
 *--------      CALCULATION OF SECOND ORDER RESIDUES      ---------*
 *                                                                 *
 *******************************************************************



                  +---------------------------------------------+
                  ! CC_SOPR: Calculation of CCSD       Residues !
                  +---------------------------------------------+

 Doing the Mf*CsiA
 Doing the Mf*CsiA
 Doing the Mf*CsiA


 CCSD  Right transition moments in atomic units:
 -----------------------------------------------

  1      14.935949  <XDIPLEN |f> =      -0.00000000
  1      14.935949  <YDIPLEN |f> =      -0.00000001
  1      14.935949  <ZDIPLEN |f> =       0.00000000


 CCSD  Left  transition moments in atomic units:
 -----------------------------------------------

  1      14.935949  <f|XDIPLEN > =      -0.00000000
  1      14.935949  <f|YDIPLEN > =      -0.00000001
  1      14.935949  <f|ZDIPLEN > =       0.00000000


 CCSD  linear response residue property in atomic units:
 -------------------------------------------------------

 RES{<<XDIPLEN ,XDIPLEN >>(14.935949)} =     0.00000000 (   0.00000000)
 RES{<<XDIPLEN ,YDIPLEN >>(14.935949)} =     0.00000000 (   0.00000000)
 RES{<<XDIPLEN ,ZDIPLEN >>(14.935949)} =    -0.00000000 (  -0.00000000)
 RES{<<YDIPLEN ,XDIPLEN >>(14.935949)} =     0.00000000 (   0.00000000)
 RES{<<YDIPLEN ,YDIPLEN >>(14.935949)} =     0.00000000 (   0.00000001)
 RES{<<YDIPLEN ,ZDIPLEN >>(14.935949)} =    -0.00000000 (  -0.00000000)
 RES{<<ZDIPLEN ,XDIPLEN >>(14.935949)} =    -0.00000000 (  -0.00000000)
 RES{<<ZDIPLEN ,YDIPLEN >>(14.935949)} =    -0.00000000 (  -0.00000000)
 RES{<<ZDIPLEN ,ZDIPLEN >>(14.935949)} =     0.00000000 (   0.00000000)


 CCSD  Transition strength matrix for state nr.  1 of symmetry 1
 CCSD  excitation energy:14.93594884

 Gauge: length

               Column   1     Column   2     Column   3
       1     8.282364D-18   2.212658D-17  -7.678209D-18
       2     2.212658D-17   5.909859D-17  -2.050354D-17
       3    -7.678209D-18  -2.050354D-17   7.111968D-18
    ==== End of matrix output ====

 Principal values of diagonalized transition strength matrix:

             a.u.               
 1       0.00000000
 2       0.00000000
 3       0.00000000

 Principal axis of diagonalized transition strength matrix:


               Column   1     Column   2     Column   3
       1       1.00000000     0.00000000     0.00000000
       2       0.00000000     1.00000000     0.00000000
       3       0.00000000     0.00000000     1.00000000
    ==== End of matrix output ====


 CCSD   oscillator strength matrix for state nr.  1 of symmetry 1
 CCSD  excitation energy:14.93594884


               Column   1     Column   2     Column   3
       1     8.246998D-17   2.203210D-16  -7.645422D-17
       2     2.203210D-16   5.884623D-16  -2.041598D-16
       3    -7.645422D-17  -2.041598D-16   7.081599D-17
    ==== End of matrix output ====

 Principal values of diagonalized oscillator strength matrix:

             a.u.               
 1       0.00000000
 2       0.00000000
 3       0.00000000

 Principal axis of diagonalized oscillator strength matrix:


               Column   1     Column   2     Column   3
       1       1.00000000     0.00000000     0.00000000
       2       0.00000000     1.00000000     0.00000000
       3       0.00000000     0.00000000     1.00000000
    ==== End of matrix output ====

  Total time for      9 linear response residues:       2.65 seconds.
  

 *******************************************************************************
 *******************************************************************************
 *                                                                             *
 *                                                                             *
 *                   SUMMARY OF COUPLED CLUSTER CALCULATION                    *
 *                                                                             *
 *                                                                             *
 *******************************************************************************
 *******************************************************************************

                                                                                
                                                                                
            Total SCF   energy:                  -360.7853239351                
            Total MP2   energy:                  -361.8826807984                
            Total CCSD  energy:                  -361.9227103390                
                                                                                
                                                                                
            Total SCF   energy:                  -360.7853239351                
            Total RSTAR energy:                  -361.9227103390                
            Total CCSD  energy:                  -361.9228532195                
                                                                                
                                                                                
            Total SCF   energy:                  -360.7853239351                
            Total RSTAR energy:                  -361.9228532195                
            Total CCSD  energy:                  -361.9228554939                
                                                                                
                                                                                
            Total SCF   energy:                  -360.7853239351                
            Total RSTAR energy:                  -361.9228554939                
            Total CCSD  energy:                  -361.9228556720                
                                                                                
                                                                                
            Total SCF   energy:                  -360.7853239351                
            Total RSTAR energy:                  -361.9228556720                
            Total CCSD  energy:                  -361.9228556839                
                                                                                
                                                                                
            Total SCF   energy:                  -360.7853239351                
            Total RSTAR energy:                  -361.9228556839                
            Total CCSD  energy:                  -361.9228556847                
                                                                                
                                                                                
            Total SCF   energy:                  -360.7853239351                
            Total RSTAR energy:                  -361.9228556847                
            Total CCSD  energy:                  -361.9228556848                
            CCSD Total  energy:                  -362.3345284005                
            CCSD E(QM/MM)     :                    -0.4064335100                
                                                                                
                                                                                
                                                                                
 +=============================================================================+
 |  sym. | Exci.  |        CCSD       Excitation energies            | ||T1||  |
 |(spin, |        +------------------------------------------------------------+
 | spat) |        |     Hartree    |       eV.      |     cm-1       |    %    |
 +=============================================================================+
 | ^1A   |    1   |    14.9359488  |     406.42784  |   3278061.836  |  88.20  |
 +=============================================================================+
                                                                                
                                                                                
     Total energies in Hartree:                                                 
             1 ^1A       -346.9921460493                                        
                                                                                
                                                                                
 +=============================================================================+
 |  sym. | Exci.  |        CCSD       Length   Gauge Oscillator Strength       |
 |(spin, |        +------------------------------------------------------------+
 | spat) |        | Dipole Strength(a.u.) | Oscillator strength  | Direction   |
 +=============================================================================+
 | ^1A   |    1   |        0.0000000      |      0.0000000       |    -        |
 +=============================================================================+

  1 a.u. =        27.21138 eV.  
  1 a.u. =    219474.62934 cm-1.
  

 *******************************************************************************
 *******************************************************************************
 *                                                                             *
 *                                                                             *
 *                      END OF COUPLED CLUSTER CALCULATION                     *
 *                                                                             *
 *                                                                             *
 *******************************************************************************
 *******************************************************************************


 CPU and wall time for CC :    5600.640    7161.789

 
     Date and time (Linux)  : Mon Dec  3 19:58:05 2018
     Host name              : n-62-29-6                               


                      .-------------------------------------.
                      | End of Coupled Cluster Section (CC) |
                      `-------------------------------------'

  Total CPU  time used in DALTON:   1 hour  35 minutes  8 seconds
  Total wall time used in DALTON:   2 hours  3 minutes 54 seconds

 
     Date and time (Linux)  : Mon Dec  3 19:58:05 2018
     Host name              : n-62-29-6                               
  

 +---------------------------------------------------------+ 
 | List of selected calculated molecular properties (a.u.) | 
 +---------------------------------------------------------+ 

  Properties are read from unit number                      4

 CCSD       properties :
 #  1 1 CCSD/MM  Ground state Energy =    -362.3345284005
 #  2 1 E_QM/MM  Ground state Energy =      -0.4064335100
 #  3 1 Sy: 1 Sp: 1 Exc:  1 E_tot:   -346.9921460493 w:     14.9359488412 E_grs:   -361.9280948905
 #  4 1 Exctot   Excited state Energy =    -346.9921460493
 #  5 1 |<O|XDIPLEN |i(14.935949)>| =     0.00000000
 #  7 1 |<O|YDIPLEN |i(14.935949)>| =     0.00000001
 #  9 1 |<O|ZDIPLEN |i(14.935949)>| =     0.00000000

 THE_END   
