

     ************************************************************************
     *************** Dalton - An Electronic Structure Program ***************
     ************************************************************************

    This is output from DALTON release Dalton2017.alpha (2016)
         ( Web site: http://daltonprogram.org )

   ----------------------------------------------------------------------------

    NOTE:
     
    Dalton is an experimental code for the evaluation of molecular
    properties using (MC)SCF, DFT, CI, and CC wave functions.
    The authors accept no responsibility for the performance of
    the code or for the correctness of the results.
     
    The code (in whole or part) is provided under a licence and
    is not to be reproduced for further distribution without
    the written permission of the authors or their representatives.
     
    See the home page "http://daltonprogram.org" for further information.
     
    If results obtained with this code are published,
    the appropriate citations would be both of:
     
       K. Aidas, C. Angeli, K. L. Bak, V. Bakken, R. Bast,
       L. Boman, O. Christiansen, R. Cimiraglia, S. Coriani,
       P. Dahle, E. K. Dalskov, U. Ekstroem,
       T. Enevoldsen, J. J. Eriksen, P. Ettenhuber, B. Fernandez,
       L. Ferrighi, H. Fliegl, L. Frediani, K. Hald, A. Halkier,
       C. Haettig, H. Heiberg, T. Helgaker, A. C. Hennum,
       H. Hettema, E. Hjertenaes, S. Hoest, I.-M. Hoeyvik,
       M. F. Iozzi, B. Jansik, H. J. Aa. Jensen, D. Jonsson,
       P. Joergensen, J. Kauczor, S. Kirpekar,
       T. Kjaergaard, W. Klopper, S. Knecht, R. Kobayashi, H. Koch,
       J. Kongsted, A. Krapp, K. Kristensen, A. Ligabue,
       O. B. Lutnaes, J. I. Melo, K. V. Mikkelsen, R. H. Myhre,
       C. Neiss, C. B. Nielsen, P. Norman, J. Olsen,
       J. M. H. Olsen, A. Osted, M. J. Packer, F. Pawlowski,
       T. B. Pedersen, P. F. Provasi, S. Reine, Z. Rinkevicius,
       T. A. Ruden, K. Ruud, V. Rybkin, P. Salek, C. C. M. Samson,
       A. Sanchez de Meras, T. Saue, S. P. A. Sauer,
       B. Schimmelpfennig, K. Sneskov, A. H. Steindal,
       K. O. Sylvester-Hvid, P. R. Taylor, A. M. Teale,
       E. I. Tellgren, D. P. Tew, A. J. Thorvaldsen, L. Thoegersen,
       O. Vahtras, M. A. Watson, D. J. D. Wilson, M. Ziolkowski
       and H. Agren,
       "The Dalton quantum chemistry program system",
       WIREs Comput. Mol. Sci. 2014, 4:269–284 (doi: 10.1002/wcms.1172)
     
    and
     
       Dalton, a Molecular Electronic Structure Program,
       Release Dalton2017.alpha (2016), see http://daltonprogram.org
   ----------------------------------------------------------------------------

    Authors in alphabetical order (major contribution(s) in parenthesis):

  Kestutis Aidas,           Vilnius University,           Lithuania   (QM/MM)
  Celestino Angeli,         University of Ferrara,        Italy       (NEVPT2)
  Keld L. Bak,              UNI-C,                        Denmark     (AOSOPPA, non-adiabatic coupling, magnetic properties)
  Vebjoern Bakken,          University of Oslo,           Norway      (DALTON; geometry optimizer, symmetry detection)
  Radovan Bast,             UiT The Arctic U. of Norway,  Norway      (DALTON installation and execution frameworks)
  Pablo Baudin,             University of Valencia,       Spain       (Cholesky excitation energies)
  Linus Boman,              NTNU,                         Norway      (Cholesky decomposition and subsystems)
  Ove Christiansen,         Aarhus University,            Denmark     (CC module)
  Renzo Cimiraglia,         University of Ferrara,        Italy       (NEVPT2)
  Sonia Coriani,            University of Trieste,        Italy       (CC module, MCD in RESPONS)
  Janusz Cukras,            University of Trieste,        Italy       (MChD in RESPONS)
  Paal Dahle,               University of Oslo,           Norway      (Parallelization)
  Erik K. Dalskov,          UNI-C,                        Denmark     (SOPPA)
  Thomas Enevoldsen,        Univ. of Southern Denmark,    Denmark     (SOPPA)
  Janus J. Eriksen,         Aarhus University,            Denmark     (Polarizable embedding model, TDA)
  Rasmus Faber,             University of Copenhagen,     Denmark     (Vib.avg. NMR with SOPPA, parallel AO-SOPPA)
  Berta Fernandez,          U. of Santiago de Compostela, Spain       (doublet spin, ESR in RESPONS)
  Lara Ferrighi,            Aarhus University,            Denmark     (PCM Cubic response)
  Heike Fliegl,             University of Oslo,           Norway      (CCSD(R12))
  Luca Frediani,            UiT The Arctic U. of Norway,  Norway      (PCM)
  Bin Gao,                  UiT The Arctic U. of Norway,  Norway      (Gen1Int library)
  Christof Haettig,         Ruhr-University Bochum,       Germany     (CC module)
  Kasper Hald,              Aarhus University,            Denmark     (CC module)
  Asger Halkier,            Aarhus University,            Denmark     (CC module)
  Frederik Beyer Hansen,    University of Copenhagen,     Denmark     (Parallel AO-SOPPA)
  Erik D. Hedegaard,        Univ. of Southern Denmark,    Denmark     (Polarizable embedding model, QM/MM)
  Hanne Heiberg,            University of Oslo,           Norway      (geometry analysis, selected one-electron integrals)
  Trygve Helgaker,          University of Oslo,           Norway      (DALTON; ABACUS, ERI, DFT modules, London, and much more)
  Alf Christian Hennum,     University of Oslo,           Norway      (Parity violation)
  Hinne Hettema,            University of Auckland,       New Zealand (quadratic response in RESPONS; SIRIUS supersymmetry)
  Eirik Hjertenaes,         NTNU,                         Norway      (Cholesky decomposition)
  Pi A. B. Haase,           University of Copenhagen,     Denmark     (Triplet AO-SOPPA)
  Maria Francesca Iozzi,    University of Oslo,           Norway      (RPA)
  Brano Jansik              Technical Univ. of Ostrava    Czech Rep.  (DFT cubic response)
  Hans Joergen Aa. Jensen,  Univ. of Southern Denmark,    Denmark     (DALTON; SIRIUS, RESPONS, ABACUS modules, London, and much more)
  Dan Jonsson,              UiT The Arctic U. of Norway,  Norway      (cubic response in RESPONS module)
  Poul Joergensen,          Aarhus University,            Denmark     (RESPONS, ABACUS, and CC modules)
  Maciej Kaminski,          University of Warsaw,         Poland      (CPPh in RESPONS)
  Joanna Kauczor,           Linkoeping University,        Sweden      (Complex polarization propagator (CPP) module)
  Sheela Kirpekar,          Univ. of Southern Denmark,    Denmark     (Mass-velocity & Darwin integrals)
  Wim Klopper,              KIT Karlsruhe,                Germany     (R12 code in CC, SIRIUS, and ABACUS modules)
  Stefan Knecht,            ETH Zurich,                   Switzerland (Parallel CI and MCSCF)
  Rika Kobayashi,           Australian National Univ.,    Australia   (DIIS in CC, London in MCSCF)
  Henrik Koch,              NTNU,                         Norway      (CC module, Cholesky decomposition)
  Jacob Kongsted,           Univ. of Southern Denmark,    Denmark     (Polarizable embedding model, QM/MM)
  Andrea Ligabue,           University of Modena,         Italy       (CTOCD, AOSOPPA)
  Nanna H. List             Univ. of Southern Denmark,    Denmark     (Polarizable embedding model)
  Ola B. Lutnaes,           University of Oslo,           Norway      (DFT Hessian)
  Juan I. Melo,             University of Buenos Aires,   Argentina   (LRESC, Relativistic Effects on NMR Shieldings)
  Kurt V. Mikkelsen,        University of Copenhagen,     Denmark     (MC-SCRF and QM/MM)
  Rolf H. Myhre,            NTNU,                         Norway      (Cholesky, subsystems and ECC2)
  Christian Neiss,          Univ. Erlangen-Nuernberg,     Germany     (CCSD(R12))
  Christian B. Nielsen,     University of Copenhagen,     Denmark     (QM/MM)
  Patrick Norman,           Linkoeping University,        Sweden      (Cubic response and complex frequency response in RESPONS)
  Jeppe Olsen,              Aarhus University,            Denmark     (SIRIUS CI/density modules)
  Jogvan Magnus H. Olsen,   Univ. of Southern Denmark,    Denmark     (Polarizable embedding model, QM/MM)
  Anders Osted,             Copenhagen University,        Denmark     (QM/MM)
  Martin J. Packer,         University of Sheffield,      UK          (SOPPA)
  Filip Pawlowski,          Kazimierz Wielki University,  Poland      (CC3)
  Morten N. Pedersen,       Univ. of Southern Denmark,    Denmark     (Polarizable embedding model)
  Thomas B. Pedersen,       University of Oslo,           Norway      (Cholesky decomposition)
  Patricio F. Provasi,      University of Northeastern,   Argentina   (Analysis of coupling constants in localized orbitals)
  Zilvinas Rinkevicius,     KTH Stockholm,                Sweden      (open-shell DFT, ESR)
  Elias Rudberg,            KTH Stockholm,                Sweden      (DFT grid and basis info)
  Torgeir A. Ruden,         University of Oslo,           Norway      (Numerical derivatives in ABACUS)
  Kenneth Ruud,             UiT The Arctic U. of Norway,  Norway      (DALTON; ABACUS magnetic properties and much more)
  Pawel Salek,              KTH Stockholm,                Sweden      (DALTON; DFT code)
  Claire C. M. Samson       University of Karlsruhe       Germany     (Boys localization, r12 integrals in ERI)
  Alfredo Sanchez de Meras, University of Valencia,       Spain       (CC module, Cholesky decomposition)
  Trond Saue,               Paul Sabatier University,     France      (direct Fock matrix construction)
  Stephan P. A. Sauer,      University of Copenhagen,     Denmark     (SOPPA(CCSD), SOPPA prop., AOSOPPA, vibrational g-factors)
  Bernd Schimmelpfennig,    Forschungszentrum Karlsruhe,  Germany     (AMFI module)
  Kristian Sneskov,         Aarhus University,            Denmark     (Polarizable embedding model, QM/MM)
  Arnfinn H. Steindal,      UiT The Arctic U. of Norway,  Norway      (parallel QM/MM, Polarizable embedding model)
  Casper Steinmann,         Univ. of Southern Denmark,    Denmark     (QFIT, Polarizable embedding model)
  K. O. Sylvester-Hvid,     University of Copenhagen,     Denmark     (MC-SCRF)
  Peter R. Taylor,          VLSCI/Univ. of Melbourne,     Australia   (Symmetry handling ABACUS, integral transformation)
  Andrew M. Teale,          University of Nottingham,     England     (DFT-AC, DFT-D)
  David P. Tew,             University of Bristol,        England     (CCSD(R12))
  Olav Vahtras,             KTH Stockholm,                Sweden      (triplet response, spin-orbit, ESR, TDDFT, open-shell DFT)
  David J. Wilson,          La Trobe University,          Australia   (DFT Hessian and DFT magnetizabilities)
  Hans Agren,               KTH Stockholm,                Sweden      (SIRIUS module, RESPONS, MC-SCRF solvation model)
 --------------------------------------------------------------------------------

     Date and time (Linux)  : Tue Dec  4 09:18:18 2018
     Host name              : n-62-29-8                               

 * Work memory size             :  1280000000 =  9.537 gigabytes.

 * Directories for basis set searches:
   1) /zhome/d7/7/119775/My_Codes/dalton-private/build2016/basis/diffs
   2) /zhome/37/3/129401/NH3NH4/CCSD/AIMD_SAMPLING/nh3_4h2o_nd
   3) /zhome/9a/4/124800/source/dalton/build-mlcc/basis


Compilation information
-----------------------

 Who compiled             | rfaber
 Host                     | hpclogin1
 System                   | Linux-2.6.32-696.1.1.el6.x86_64
 CMake generator          | Unix Makefiles
 Processor                | x86_64
 64-bit integers          | ON
 MPI                      | OFF
 Fortran compiler         | /opt/intel/2016update2/compilers_and_libraries_201
                          | 6.2.181/linux/bin/intel64/ifort
 Fortran compiler version | ifort (IFORT) 16.0.2 20160204
 C compiler               | /opt/intel/2016update2/compilers_and_libraries_201
                          | 6.2.181/linux/bin/intel64/icc
 C compiler version       | icc (ICC) 16.0.2 20160204
 C++ compiler             | /opt/intel/2016update2/compilers_and_libraries_201
                          | 6.2.181/linux/bin/intel64/icpc
 C++ compiler version     | icpc (ICC) 16.0.2 20160204
 Static linking           | OFF
 Last Git revision        | bb4d1599ca5680a9f3980451fc8bbefdba436d59
 Git branch               | mlcc
 Configuration time       | 2017-06-13 16:11:03.928841


   Content of the .dal input file
 ----------------------------------

**DALTON
.RUN WAVE FUNCTIONS
*QMMM
.QMMM
**INTEGRALS
.DIPLEN
**WAVE FUNCTIONS
.CC
*PRINT
!To check the origin of excit
.PRINTL
   0 11
*SCF INP
.THRESH
1.0D-7
*CC INP
.CCSD
.THRLEQ
 1.0D-9
.THRENR
 1.0D-10
.FROIMP
4
0
.PRINT
 1
.MAX IT
 1200
.MAXRED
 1200
.MXLRV
1199
*CCSLV
.CCMM
.MXSLIT
200
.MXINIT
4 5
*CCEXCI
.NCCEXC
 1
.IONISATION
1
1
.CVSEPARA
1
1
*CCLRSD
.DIPOLE
**END OF DALTON INPUT


   Content of the .mol file
 ----------------------------

ATOMBASIS


Atomtypes=5 Charge=0 Nosymm Angstrom
   7.00000    1    Basis=6-311G**
N          0.000000        0.000000        0.000000
   1.00000    3    Basis=6-311G**
H         -0.968624       -0.223858        0.300532
H          0.382532       -0.938547       -0.099343
H          0.456788        0.459576        0.819203
   8.00000    4    Basis=6-311G**
O         -2.900604       -0.523186        0.625604
O          1.637181        1.987199        1.861247
O          2.601495       -1.047595       -2.054720
O         -0.470941        1.922058       -1.810328
   1.00000    8    Basis=6-311G**
H         -3.145414       -0.045561        1.444573
H         -2.919898        0.106309       -0.127348
H          0.974060        2.693014        1.928014
H          2.517558        2.292817        2.167735
H          1.777628       -1.179198       -2.492695
H          2.469176       -0.352655       -1.374149
H          0.099557        1.705773       -2.572000
H         -0.197162        1.188331       -1.165227
   0.00000    1    Basis=diffs
X          0.000000        0.000000        0.000000


       *******************************************************************
       *********** Output from DALTON general input processing ***********
       *******************************************************************

 --------------------------------------------------------------------------------
   Overall default print level:    0
   Print level for DALTON.STAT:    1

    HERMIT 1- and 2-electron integral sections will be executed
    "Old" integral transformation used (limited to max 255 basis functions)
    Wave function sections will be executed (SIRIUS module)
 --------------------------------------------------------------------------------


 Changes of defaults for *QMMM  :
 --------------------------------

 +------------------+
 |  WORD: | CHANGE: |
 +------------------+
 |   QMMM |       T |
 +------------------+
 


   ****************************************************************************
   *************** Output of molecule and basis set information ***************
   ****************************************************************************


    The two title cards from your ".mol" input:
    ------------------------------------------------------------------------
 1:                                                                         
 2:                                                                         
    ------------------------------------------------------------------------

  Coordinates are entered in Angstrom and converted to atomic units.
          - Conversion factor : 1 bohr = 0.52917721 A

  Atomic type no.    1
  --------------------
  Nuclear charge:   7.00000
  Number of symmetry independent centers:    1
  Number of basis sets to read;    2
  The basis set is "6-311G**" from the basis set library.
  Basis set file used for this atomic type with Z =   7 :
     "/zhome/9a/4/124800/source/dalton/build-mlcc/basis/6-311G**"

  Info about the basis set file: your basis has no documentation.
  Basis set: 6-311G**                                                                        

  Atomic type no.    2
  --------------------
  Nuclear charge:   1.00000
  Number of symmetry independent centers:    3
  Number of basis sets to read;    2
  The basis set is "6-311G**" from the basis set library.
  Basis set file used for this atomic type with Z =   1 :
     "/zhome/9a/4/124800/source/dalton/build-mlcc/basis/6-311G**"

  Info about the basis set file: your basis has no documentation.
  Basis set: 6-311G**                                                                        

  Atomic type no.    3
  --------------------
  Nuclear charge:   8.00000
  Number of symmetry independent centers:    4
  Number of basis sets to read;    2
  The basis set is "6-311G**" from the basis set library.
  Basis set file used for this atomic type with Z =   8 :
     "/zhome/9a/4/124800/source/dalton/build-mlcc/basis/6-311G**"

  Info about the basis set file: your basis has no documentation.
  Basis set: 6-311G**                                                                        

  Atomic type no.    4
  --------------------
  Nuclear charge:   1.00000
  Number of symmetry independent centers:    8
  Number of basis sets to read;    2
  The basis set is "6-311G**" from the basis set library.
  Basis set file used for this atomic type with Z =   1 :
     "/zhome/9a/4/124800/source/dalton/build-mlcc/basis/6-311G**"

  Info about the basis set file: your basis has no documentation.
  Basis set: 6-311G**                                                                        

  Atomic type no.    5
  --------------------
  Nuclear charge:   0.00000
  Number of symmetry independent centers:    1
  Number of basis sets to read;    2
  The basis set is "diffs" from the basis set library.
  Basis set file used for this atomic type with Z =   0 :
     "/zhome/9a/4/124800/source/dalton/build-mlcc/basis/diffs"

  Info about the basis set file: your basis has no documentation.
  Basis set: diffs                                                                           


                         SYMGRP: Point group information
                         -------------------------------

@    Point group: C1 


                                 Isotopic Masses
                                 ---------------

                           N          14.003074
                           H           1.007825
                           H           1.007825
                           H           1.007825
                           O          15.994915
                           O          15.994915
                           O          15.994915
                           O          15.994915
                           H           1.007825
                           H           1.007825
                           H           1.007825
                           H           1.007825
                           H           1.007825
                           H           1.007825
                           H           1.007825
                           H           1.007825

                       Total mass:    89.068809 amu
                       Natural abundance:  98.514 %

 Center-of-mass coordinates (a.u.):    0.325189    0.915584   -0.492732


  Atoms and basis sets
  --------------------

  Number of atom types :    5
  Total number of atoms:   17

  label    atoms   charge   prim   cont     basis
  ----------------------------------------------------------------------
  N           1    7.0000    31    18      [11s5p1d|4s3p1d]                                   
  H           3    1.0000     8     6      [5s1p|3s1p]                                        
  O           4    8.0000    31    18      [11s5p1d|4s3p1d]                                   
  H           8    1.0000     8     6      [5s1p|3s1p]                                        
  X           1    0.0000     1     1      [1s|1s]                                            
  ----------------------------------------------------------------------
  total:     17   50.0000   244   157
  ----------------------------------------------------------------------
  Spherical harmonic basis used.

  Threshold for neglecting AO integrals:  1.00D-12


  Cartesian Coordinates (a.u.)
  ----------------------------

  Total number of coordinates:   51
  N       :     1  x   0.0000000000    2  y   0.0000000000    3  z   0.0000000000
  H       :     4  x  -1.8304340781    5  y  -0.4230303109    6  z   0.5679231718
  H       :     7  x   0.7228807140    8  y  -1.7735967854    9  z  -0.1877310624
  H       :    10  x   0.8632042172   11  y   0.8684727736   12  z   1.5480693108
  O       :    13  x  -5.4813471571   14  y  -0.9886782524   15  z   1.1822202227
  O       :    16  x   3.0938237070   17  y   3.7552618659   18  z   3.5172470810
  O       :    19  x   4.9161130655   20  y  -1.9796676399   21  z  -3.8828580635
  O       :    22  x  -0.8899495110   23  y   3.6321632164   24  z  -3.4210241164
  H       :    25  x  -5.9439710097   26  y  -0.0860978120   27  z   2.7298473376
  H       :    28  x  -5.5178075329   29  y   0.2008948946   30  z  -0.2406528426
  H       :    31  x   1.8407066293   32  y   5.0890589108   33  z   3.6434184252
  H       :    34  x   4.7574951238   35  y   4.3327961847   36  z   4.0964254616
  H       :    37  x   3.3592300721   38  y  -2.2283612671   39  z  -4.7105108631
  H       :    40  x   4.6660663944   41  y  -0.6664213666   42  z  -2.5967652649
  H       :    43  x   0.1881354638   44  y   3.2234438014   45  z  -4.8603755935
  H       :    46  x  -0.3725821823   47  y   2.2456201358   48  z  -2.2019599034
  X       :    49  x   0.0000000000   50  y   0.0000000000   51  z   0.0000000000

  Max    interatomic separation is    6.8027 Angstrom (   12.8552 Bohr)
  between atoms    9 and    7, "H     " and "O     ".

  Min HX interatomic separation is    0.9423 Angstrom (    1.7807 Bohr)

  Min YX interatomic separation is    2.6820 Angstrom (    5.0683 Bohr)


  Bond distances (Angstrom):
  --------------------------

                  atom 1     atom 2       distance
                  ------     ------       --------
  bond distance:  H          N            1.038588
  bond distance:  H          N            1.018366
  bond distance:  H          N            1.044490
  bond distance:  H          O            0.979167
  bond distance:  H          O            0.981618
  bond distance:  H          O            0.970753
  bond distance:  H          O            0.981020
  bond distance:  H          O            0.942284
  bond distance:  H          O            0.981645
  bond distance:  H          O            0.975905
  bond distance:  H          O            1.014626


  Bond angles (degrees):
  ----------------------

                  atom 1     atom 2     atom 3         angle
                  ------     ------     ------         -----
  bond angle:     H          N          H            100.365
  bond angle:     H          N          H            106.007
  bond angle:     H          N          H            108.527
  bond angle:     H          O          H            108.895
  bond angle:     H          O          H            111.409
  bond angle:     H          O          H            107.654
  bond angle:     H          O          H            100.266




 Principal moments of inertia (u*A**2) and principal axes
 --------------------------------------------------------

   IA     326.076225          0.933216   -0.018325   -0.358847
   IB     448.141573          0.304349    0.571172    0.762321
   IC     564.318663         -0.190994    0.820626   -0.538604


 Rotational constants
 --------------------

               A                   B                   C

           1549.8800           1127.7218            895.5561 MHz
            0.051698            0.037617            0.029873 cm-1


@  Nuclear repulsion energy :  184.034742575592 Hartree

  Number of floating/multiple basis set orbitals :    1


                     .---------------------------------------.
                     | Starting in Integral Section (HERMIT) |
                     `---------------------------------------'



 ***************************************************************************************
 ****************** Output from **INTEGRALS input processing (HERMIT) ******************
 ***************************************************************************************



    *************************************************************************
    ****************** Output from HERMIT input processing ******************
    *************************************************************************


 Default print level:        1

 * Nuclear model: Point charge

 Calculation of one- and two-electron Hamiltonian integrals.

 The following one-electron property integrals are calculated as requested:
          - overlap integrals
          - dipole length integrals

 Center of mass  (bohr):      0.325189237991      0.915583708166     -0.492731610840
 Operator center (bohr):      0.000000000000      0.000000000000      0.000000000000
 Gauge origin    (bohr):      0.000000000000      0.000000000000      0.000000000000
 Dipole origin   (bohr):      0.000000000000      0.000000000000      0.000000000000
 
  *********************************** 
  QMMM electrostatic potential: 
  Multipole order                                    0
  Isotropic polarization  
  *********************************** 
 
  ---------------- 
  QMMM information 
  ---------------- 
 
  MM coordinates in au 
  -------------------- 
     1      9.836884      7.259122      9.538181
     2     11.695793      7.592842      9.636753
     3      8.803658      8.848078      9.922300
     4    -10.983680     -7.742575      2.437012
     5     -9.397515     -8.445313      3.063616
     6    -11.621115     -6.395693      3.526288
     7     -6.711657     -4.082612      8.118999
     8     -6.161851     -4.304227      9.824750
     9     -8.337515     -4.964484      7.944267
    10     -8.495649      8.521898      8.868069
    11     -7.313845      9.819310      9.525459
    12     -8.164651      8.416923      7.024505
    13     -0.030846     -3.364684     -5.904861
    14     -1.149723     -2.216936     -6.732386
    15     -1.057906     -4.547220     -4.782347
    16      9.134668      5.508839     -8.927482
    17      7.735583      6.537959     -8.376332
    18      9.392583      5.980197    -10.695587
    19      0.690277     -6.872611    -10.425689
    20     -0.689839     -5.680751    -10.010709
    21      0.439223     -7.439060    -12.128922
    22      5.710503     -4.679825     10.184675
    23      7.193609     -4.690529     11.392873
    24      4.302585     -5.417990     11.115573
    25    -10.950262      4.389511     -6.026099
    26    -12.128744      5.212832     -7.249592
    27    -10.386564      2.882261     -6.997605
    28     -7.332281     -0.325348     -7.798047
    29     -6.629492      0.308424     -6.204062
    30     -8.954807     -0.995572     -7.429001
    31     -2.022283     -7.041218     -2.615829
    32     -0.896758     -7.507047     -1.227672
    33     -3.830622     -6.852005     -1.956167
    34     -3.787795      5.236493      7.658153
    35     -3.684195      5.916882      9.479724
    36     -5.248956      4.023286      7.711470
    37     10.367523      1.618985     -1.578535
    38     10.906044      3.177586     -2.414210
    39      8.496071      1.960379     -1.474807
    40     10.335908      9.289436     -3.788901
    41     10.357918     11.005449     -3.238210
    42     11.035179      9.289975     -5.493833
    43     10.661090     10.750911      4.068892
    44      9.909397     12.032334      3.029327
    45      9.203374      9.390208      4.206751
    46     -0.551318      1.191404     10.323854
    47      0.893476      0.667693      9.262513
    48     -1.342401      2.588496      9.175108
    49     -5.265988    -10.834996      8.521011
    50     -3.576430    -10.097255      8.839500
    51     -6.405741     -9.604869      9.337450
    52     -8.835346      6.180153     -0.933944
    53    -10.325505      7.056761     -1.745495
    54     -7.604088      7.369690     -0.182827
    55     11.613979     -4.912213      7.071890
    56     11.068738     -3.699437      8.312301
    57     11.315773     -6.624288      7.763972
    58     -0.226520     -8.808025      8.364092
    59      0.941870    -10.271002      7.990346
    60     -0.074844     -7.616900      6.876787
    61     11.155535     -9.521786      8.398264
    62     10.858892    -10.616330      6.966472
    63     12.754330    -10.031794      9.047595
    64      2.989588      7.522142     -9.788730
    65      3.654581      7.747658    -11.508124
    66      3.150302      5.685530     -9.146632
    67      9.580658     -5.955258    -10.311096
    68     10.077261     -4.846537     -8.969419
    69      8.694815     -7.316517     -9.579534
    70      4.533958      9.868883      2.490359
    71      3.855929     11.498420      1.714341
    72      3.626022      8.355107      2.011477
    73      3.179712     -0.793564      6.907446
    74      4.913409     -1.218781      6.816017
    75      2.850486      0.697796      5.808026
    76     -3.107052      7.670657    -10.751610
    77     -4.086140      6.908215     -9.378735
    78     -1.395037      7.617820     -9.956721
    79     -6.145641      1.962891     -3.283607
    80     -7.295290      3.352236     -2.945550
    81     -4.269766      2.585327     -3.163594
    82      6.707103     -5.920867     -0.632529
    83      7.042873     -5.138757      0.989629
    84      6.083117     -4.580347     -1.850647
    85      7.058046     11.710194     10.735477
    86      6.053919     12.232373     12.267014
    87      8.467645     13.006089     10.557996
    88      2.275897      2.804439     -8.614880
    89      1.187614      2.052097     -9.910123
    90      3.798990      1.806546     -8.543074
    91     -4.060177    -10.311754     -8.433969
    92     -2.428517     -9.548096     -8.716949
    93     -3.953407    -12.041235     -9.049713
    94      5.560504      7.411213     -5.121730
    95      4.101889      8.108824     -6.066558
    96      7.045286      8.722876     -4.943115
    97      4.917508     -9.419801     -8.314088
    98      3.592993     -8.209065     -8.870276
    99      4.128974    -10.780657     -7.288228
   100     -4.384342     -5.049161      3.894820
   101     -5.000720     -4.722297      5.654028
   102     -4.901101     -3.729907      2.775135
   103     -8.707293      2.848541     11.019407
   104     -7.997980      4.516094     10.690576
   105     -7.752424      2.359145     12.465148
   106      2.476025     -9.161823      0.177547
   107      3.773401     -7.753809      0.165568
   108      2.772472     -9.851550     -1.469368
   109     -0.541951      7.294566      4.195638
   110     -1.797776      6.780757      5.427479
   111      0.540320      8.466782      5.048171
   112     -3.542314     -2.917854    -10.712479
   113     -2.529387     -1.751094    -11.742080
   114     -4.848886     -1.887007     -9.861335
   115     -6.409246      7.315098     -6.889760
   116     -7.708544      6.219365     -5.982663
   117     -5.059330      7.711298     -5.571791
   118     -9.791070     -8.952302     -6.078788
   119     -8.147951     -8.265634     -5.562732
   120    -10.990698     -8.722195     -4.533062
   121      1.243098    -11.170309     -4.466498
   122      0.038940    -12.766300     -4.315080
   123      0.281055     -9.500583     -4.512052
   124    -10.417034     10.246377     -8.839508
   125    -10.134805     12.049835     -8.354026
   126     -8.971371      9.204658     -8.349859
   127     -2.254564      8.339076     -3.780905
   128     -1.483900      6.599447     -3.575987
   129     -2.541381      8.801874     -2.004971
   130      3.036257     10.565000      7.453702
   131      4.677112     10.883949      8.388506
   132      3.730013     10.602059      5.706102
   133     10.491724     -8.971000     -2.296329
   134     11.391503     -9.442245     -0.800637
   135      9.327494     -7.692652     -1.845994
   136     -5.053615      8.945468      1.051266
   137     -3.834281      8.360950      2.402203
   138     -5.607490     10.731084      1.427716
   139      6.808787      0.440614     -8.474864
   140      7.046634     -0.380092     -6.955513
   141      7.923780      1.942002     -8.484558
   142    -11.094078      3.014433      3.473912
   143    -10.172294      4.312221      2.497317
   144    -11.548729      1.857234      2.017545
   145      5.591051      3.342211     -1.289011
   146      4.817847      4.280740     -2.688230
   147      4.911791      3.799015      0.400034
   148     -7.889491     -7.802107    -11.692558
   149     -6.602374     -8.671307    -10.595949
   150     -9.509724     -8.242352    -10.704214
   151     -7.608858     -5.973632     -1.558525
   152     -7.084744     -4.181769     -0.902371
   153     -8.836441     -6.469152     -0.147703
   154      9.636432      0.452259      9.449349
   155     11.123412      1.269611      9.920240
   156      8.672411     -0.047287     10.944428
   157      7.819621      5.452759      4.918985
   158      9.079560      4.382245      3.971566
   159      8.341852      5.421333      6.668286
   160      1.165800     -4.976894      4.754615
   161      2.094809     -3.660672      5.650650
   162     -0.518386     -4.309692      4.435034
   163     -6.791451    -10.031800      3.299314
   164     -6.606511    -10.811815      4.955057
   165     -5.779676     -8.468810      3.317866
   166     -6.673987      0.722480      5.912295
   167     -8.447669      1.307449      5.837398
   168     -6.884422     -0.935084      6.793463
   169      6.468986     -6.623726      5.245173
   170      4.742674     -6.253196      4.732560
   171      6.579537     -6.103547      7.010829
   172      7.846150     -1.470574      4.861368
   173      8.700244     -0.653789      6.200789
   174      8.190827     -3.282078      5.034605
   175     11.585584     -2.505304     -4.958934
   176     13.007306     -3.493427     -4.003908
   177     11.080334     -1.262910     -3.576651
 
  MM charges 
  ---------- 
     1     -0.674440
     2      0.337220
     3      0.337220
     4     -0.674440
     5      0.337220
     6      0.337220
     7     -0.674440
     8      0.337220
     9      0.337220
    10     -0.674440
    11      0.337220
    12      0.337220
    13     -0.674440
    14      0.337220
    15      0.337220
    16     -0.674440
    17      0.337220
    18      0.337220
    19     -0.674440
    20      0.337220
    21      0.337220
    22     -0.674440
    23      0.337220
    24      0.337220
    25     -0.674440
    26      0.337220
    27      0.337220
    28     -0.674440
    29      0.337220
    30      0.337220
    31     -0.674440
    32      0.337220
    33      0.337220
    34     -0.674440
    35      0.337220
    36      0.337220
    37     -0.674440
    38      0.337220
    39      0.337220
    40     -0.674440
    41      0.337220
    42      0.337220
    43     -0.674440
    44      0.337220
    45      0.337220
    46     -0.674440
    47      0.337220
    48      0.337220
    49     -0.674440
    50      0.337220
    51      0.337220
    52     -0.674440
    53      0.337220
    54      0.337220
    55     -0.674440
    56      0.337220
    57      0.337220
    58     -0.674440
    59      0.337220
    60      0.337220
    61     -0.674440
    62      0.337220
    63      0.337220
    64     -0.674440
    65      0.337220
    66      0.337220
    67     -0.674440
    68      0.337220
    69      0.337220
    70     -0.674440
    71      0.337220
    72      0.337220
    73     -0.674440
    74      0.337220
    75      0.337220
    76     -0.674440
    77      0.337220
    78      0.337220
    79     -0.674440
    80      0.337220
    81      0.337220
    82     -0.674440
    83      0.337220
    84      0.337220
    85     -0.674440
    86      0.337220
    87      0.337220
    88     -0.674440
    89      0.337220
    90      0.337220
    91     -0.674440
    92      0.337220
    93      0.337220
    94     -0.674440
    95      0.337220
    96      0.337220
    97     -0.674440
    98      0.337220
    99      0.337220
   100     -0.674440
   101      0.337220
   102      0.337220
   103     -0.674440
   104      0.337220
   105      0.337220
   106     -0.674440
   107      0.337220
   108      0.337220
   109     -0.674440
   110      0.337220
   111      0.337220
   112     -0.674440
   113      0.337220
   114      0.337220
   115     -0.674440
   116      0.337220
   117      0.337220
   118     -0.674440
   119      0.337220
   120      0.337220
   121     -0.674440
   122      0.337220
   123      0.337220
   124     -0.674440
   125      0.337220
   126      0.337220
   127     -0.674440
   128      0.337220
   129      0.337220
   130     -0.674440
   131      0.337220
   132      0.337220
   133     -0.674440
   134      0.337220
   135      0.337220
   136     -0.674440
   137      0.337220
   138      0.337220
   139     -0.674440
   140      0.337220
   141      0.337220
   142     -0.674440
   143      0.337220
   144      0.337220
   145     -0.674440
   146      0.337220
   147      0.337220
   148     -0.674440
   149      0.337220
   150      0.337220
   151     -0.674440
   152      0.337220
   153      0.337220
   154     -0.674440
   155      0.337220
   156      0.337220
   157     -0.674440
   158      0.337220
   159      0.337220
   160     -0.674440
   161      0.337220
   162      0.337220
   163     -0.674440
   164      0.337220
   165      0.337220
   166     -0.674440
   167      0.337220
   168      0.337220
   169     -0.674440
   170      0.337220
   171      0.337220
   172     -0.674440
   173      0.337220
   174      0.337220
   175     -0.674440
   176      0.337220
   177      0.337220
 
  MM isotropic polarizabilities in au 
  ----------------------------------- 
     1      5.739350
     2      2.308390
     3      2.308390
     4      5.739350
     5      2.308390
     6      2.308390
     7      5.739350
     8      2.308390
     9      2.308390
    10      5.739350
    11      2.308390
    12      2.308390
    13      5.739350
    14      2.308390
    15      2.308390
    16      5.739350
    17      2.308390
    18      2.308390
    19      5.739350
    20      2.308390
    21      2.308390
    22      5.739350
    23      2.308390
    24      2.308390
    25      5.739350
    26      2.308390
    27      2.308390
    28      5.739350
    29      2.308390
    30      2.308390
    31      5.739350
    32      2.308390
    33      2.308390
    34      5.739350
    35      2.308390
    36      2.308390
    37      5.739350
    38      2.308390
    39      2.308390
    40      5.739350
    41      2.308390
    42      2.308390
    43      5.739350
    44      2.308390
    45      2.308390
    46      5.739350
    47      2.308390
    48      2.308390
    49      5.739350
    50      2.308390
    51      2.308390
    52      5.739350
    53      2.308390
    54      2.308390
    55      5.739350
    56      2.308390
    57      2.308390
    58      5.739350
    59      2.308390
    60      2.308390
    61      5.739350
    62      2.308390
    63      2.308390
    64      5.739350
    65      2.308390
    66      2.308390
    67      5.739350
    68      2.308390
    69      2.308390
    70      5.739350
    71      2.308390
    72      2.308390
    73      5.739350
    74      2.308390
    75      2.308390
    76      5.739350
    77      2.308390
    78      2.308390
    79      5.739350
    80      2.308390
    81      2.308390
    82      5.739350
    83      2.308390
    84      2.308390
    85      5.739350
    86      2.308390
    87      2.308390
    88      5.739350
    89      2.308390
    90      2.308390
    91      5.739350
    92      2.308390
    93      2.308390
    94      5.739350
    95      2.308390
    96      2.308390
    97      5.739350
    98      2.308390
    99      2.308390
   100      5.739350
   101      2.308390
   102      2.308390
   103      5.739350
   104      2.308390
   105      2.308390
   106      5.739350
   107      2.308390
   108      2.308390
   109      5.739350
   110      2.308390
   111      2.308390
   112      5.739350
   113      2.308390
   114      2.308390
   115      5.739350
   116      2.308390
   117      2.308390
   118      5.739350
   119      2.308390
   120      2.308390
   121      5.739350
   122      2.308390
   123      2.308390
   124      5.739350
   125      2.308390
   126      2.308390
   127      5.739350
   128      2.308390
   129      2.308390
   130      5.739350
   131      2.308390
   132      2.308390
   133      5.739350
   134      2.308390
   135      2.308390
   136      5.739350
   137      2.308390
   138      2.308390
   139      5.739350
   140      2.308390
   141      2.308390
   142      5.739350
   143      2.308390
   144      2.308390
   145      5.739350
   146      2.308390
   147      2.308390
   148      5.739350
   149      2.308390
   150      2.308390
   151      5.739350
   152      2.308390
   153      2.308390
   154      5.739350
   155      2.308390
   156      2.308390
   157      5.739350
   158      2.308390
   159      2.308390
   160      5.739350
   161      2.308390
   162      2.308390
   163      5.739350
   164      2.308390
   165      2.308390
   166      5.739350
   167      2.308390
   168      2.308390
   169      5.739350
   170      2.308390
   171      2.308390
   172      5.739350
   173      2.308390
   174      2.308390
   175      5.739350
   176      2.308390
   177      2.308390


     ************************************************************************
     ************************** Output from HERINT **************************
     ************************************************************************



                      Nuclear contribution to dipole moments
                      --------------------------------------

                 au               Debye          C m (/(10**-30)

      x     15.84204465        40.26645849       134.31444793
      y     46.13541268       117.26451483       391.15231788
      z    -23.04763083       -58.58123057      -195.40595171



 Threshold for neglecting two-electron integrals:  1.00D-12
 HERMIT - Number of two-electron integrals written:    30663189 ( 39.9% )
 HERMIT - Megabytes written:                            351.112

  Time used in TWOINT     is       5.72 seconds
  Total CPU  time used in HERMIT:   5.91 seconds
  Total wall time used in HERMIT:   6.74 seconds


                        .----------------------------------.
                        | End of Integral Section (HERMIT) |
                        `----------------------------------'



                   .--------------------------------------------.
                   | Starting in Wave Function Section (SIRIUS) |
                   `--------------------------------------------'

NCCEXCI for singlet:    1
 CCSD_INPUT: core-val requested
 Requested number of virtual orbs per sym
                     1
 Indices of requested virtual orbs
                     1
 CCSD_INPUT: core-val requested
 Requested number of core orbs per sym
                     1
 Indices of requested core orbs
                     1

 *** Output from Huckel module :

     Using EWMO model:          T
     Using EHT  model:          F
     Number of Huckel orbitals each symmetry:   36

 EWMO - Energy Weighted Maximum Overlap - is a Huckel type method,
        which normally is better than Extended Huckel Theory.
 Reference: Linderberg and Ohrn, Propagators in Quantum Chemistry (Wiley, 1973)

 Huckel EWMO eigenvalues for symmetry :  1
          -20.684916     -20.684705     -20.684663     -20.684406     -15.673607
           -1.743009      -1.614010      -1.600201      -1.583451      -1.446914
           -0.812415      -0.810284      -0.788008      -0.780426      -0.737684
           -0.731546      -0.700986      -0.682425      -0.667921      -0.645103
           -0.616986      -0.612905      -0.611498      -0.573709      -0.511599
           -0.254173      -0.240002      -0.234366      -0.217857      -0.179678
           -0.173843      -0.172526      -0.168254      -0.156018      -0.149150
           -0.146554

 **********************************************************************
 *SIRIUS* a direct, restricted step, second order MCSCF program       *
 **********************************************************************

 
     Date and time (Linux)  : Tue Dec  4 09:18:25 2018
     Host name              : n-62-29-8                               

 Title lines from ".mol" input file:
                                                                             
                                                                             

 Print level on unit LUPRI =   2 is   0
 Print level on unit LUW4  =   2 is  11

@    (Integral direct) CC calculation.

@    This is a combination run starting with
@              a restricted, closed shell Hartree-Fock calculation


 Initial molecular orbitals are obtained according to
 ".MOSTART EWMO  " input option

@    QM part is embedded in an environment :

@         Model: QMMM

     Wave function specification
     ============================

     For the specification of the Coupled Cluster: see later.

@    Wave function type        --- CC ---
@    Number of closed shell electrons          50
@    Number of electrons in active shells       0
@    Total charge of the molecule               0

@    Spin multiplicity and 2 M_S                1         0
@    Total number of symmetries                 1 (point group: C1 )
@    Reference state symmetry                   1 (irrep name : A  )

     Orbital specifications
     ======================
@    Abelian symmetry species          All |    1
@                                          |  A  
                                       --- |  ---
@    Occupied SCF orbitals              25 |   25
@    Secondary orbitals                132 |  132
@    Total number of orbitals          157 |  157
@    Number of basis functions         157 |  157

     Optimization information
     ========================
@    Number of configurations                 1
@    Number of orbital rotations           3300
     ------------------------------------------
@    Total number of variables             3301

     Maximum number of Fock   iterations      0
     Maximum number of DIIS   iterations     60
     Maximum number of QC-SCF iterations     60
     Threshold for SCF convergence     1.00D-07


 Changes of defaults for CC:
 ---------------------------


 -Implicit frozen core calculation
 -Excitation energies calculated
 -One-photon absorption strengths will be calculated
 -Oscillator strengths calculated
  
* Read MO coefficients from SIRIUS.RST with label "NEWORB  " and header info:  4Dec18  REORTHO 


 ***********************************************
 ***** DIIS acceleration of SCF iterations *****
 ***********************************************

 C1-DIIS algorithm; max error vectors =    8
 -----------------------------------------------------------------------------

 *** DIIS iteration number    1
 RDSUPM called. NFMAT, ISYMDM(1:NFMAT)                     1
                     1

Calculating AOSUPINT
     (Precalculated two-electron integrals are transformed to P-supermatrix elements.
      Threshold for discarding integrals :  1.00D-12 )
  CPU  time used in FORMSUP    is   4.32 seconds
  WALL time used in FORMSUP    is  19.80 seconds

 ITDIIS, energy, error norm, change in energy, scr.thr., difden:
@ DIIS iter.   1    -359.844134792        3.85664D+00   -3.60D+02  -20    F

 (DIIS_RED) Control Parameters C2DIIS =         F NEVC =    1


 (DIIS_RED) B matrix:

               Column   1
       1      14.87364488
    ==== End of matrix output ====

 DIIS C vector; C2DIIS = F, LAMBDA = -1.49D+01
    1.000000
* Read MO coefficients from SIRIUS.RST with label "NEWORB  " and header info:  4Dec18  DIIS   1
      Virial theorem: -V/T =      1.997553
@      MULPOP N      -0.35; H       0.17; H       0.17; H       0.15; O      -0.62; O      -0.60; O      -0.67; O      -0.87; H       0.33; H       0.34; 
@             H       0.32; H       0.30; H       0.33; H       0.33; H       0.33; H       0.33; 
   1  Level shift: doubly occupied orbital energies shifted by -2.00D-01

 DIIS Fock eigenvalues in symmetry 1
      -20.77095      -20.76461      -20.69329      -20.56233      -16.00757
       -1.59410       -1.58472       -1.53684       -1.50262       -1.46661
       -0.98557       -0.97806       -0.96554       -0.95754       -0.92302
       -0.90677       -0.84184       -0.82021       -0.80023       -0.79536
       -0.79022       -0.76832       -0.73446       -0.73185       -0.69673
        0.00000        0.08084        0.13033        0.14515        0.17541
        0.20920        0.23014        0.23967        0.25030        0.28782
        0.29112        0.34986        0.41418        0.43733        0.47360
        0.50378        0.52601        0.53967        0.54391        0.55175
        0.58086        0.61773        0.63687        0.81267        0.83182
        0.85049        0.91439        0.93266        0.96071        0.97322
        0.98111        1.01592        1.03415        1.05967        1.07057
        1.07488        1.13184        1.14250        1.17327        1.22345
        1.24449        1.33048        1.34702        1.35765        1.41240
        1.41595        1.42652        1.46576        1.48428        1.50553
        1.53287        1.54959        1.60594        1.64487        1.65861
        1.67240        1.68628        1.70063        1.78053        1.79806
        1.81427        1.83255        1.86304        1.94076        2.00303
        2.05976        2.12829        2.18293        2.20531        2.22915
        2.25532        2.27607        2.28142        2.37335        2.44212
        2.46558        2.56454        2.57949        2.58777        2.60277
        2.62535        2.67617        2.72432        2.73943        2.75150
        2.78751        2.79851        2.83483        2.94256        3.04910
        3.25628        3.30841        3.35818        3.38477        3.44723
        3.45567        3.47272        3.49644        3.53011        3.54230
        3.58217        3.59274        3.68114        3.70244        3.96800
        3.97681        3.98488        4.01572        4.12659        4.14471
        4.21818        4.23811        4.52520        4.93641        4.99195
        5.26180        5.33912        5.38704        5.40479        5.71375
        5.73889        5.74605        5.83058        6.08062        6.11408
        6.18794        6.19646       36.74388       51.51360       51.52201
       51.60570       51.74427
 Time used in FCKEIG, thr_jaco:   4.40D-02  4.80D-02  1.68D-04
 CPU and wall times used in FCKEIG, THR_FCKEIG:   4.40D-02  4.80D-02  3.86D-02
 -----------------------------------------------------------------------------

 *** DIIS iteration number    2
 RDSUPM called. NFMAT, ISYMDM(1:NFMAT)                     1
                     1

 ITDIIS, energy, error norm, change in energy, scr.thr., difden:
@ DIIS iter.   2    -360.655772925        9.41392D-01   -8.12D-01  -20    F

 (DIIS_RED) Control Parameters C2DIIS =         F NEVC =    2


 (DIIS_RED) B matrix:

               Column   1     Column   2
       1      14.87364488
       2       0.98723451     0.88621933
    ==== End of matrix output ====

 DIIS C vector; C2DIIS = F, LAMBDA = -8.85D-01
   -0.007328    1.007328
* Read MO coefficients from SIRIUS.RST with label "NEWORB  " and header info:  4Dec18  DIIS   2
      Virial theorem: -V/T =      2.003464
@      MULPOP N      -0.67; H       0.23; H       0.23; H       0.24; O      -0.61; O      -0.61; O      -0.56; O      -0.68; H       0.32; H       0.33; 
@             H       0.31; H       0.33; H       0.30; H       0.27; H       0.26; H       0.32; 
   2  Level shift: doubly occupied orbital energies shifted by -5.00D-02

 DIIS Fock eigenvalues in symmetry 1
      -20.70510      -20.65744      -20.64134      -20.59981      -15.50812
       -1.42731       -1.41901       -1.41676       -1.37483       -1.17766
       -0.79857       -0.79230       -0.77349       -0.74469       -0.69497
       -0.69235       -0.67889       -0.67153       -0.64387       -0.61564
       -0.61000       -0.60920       -0.59377       -0.55782       -0.49100
        0.00000        0.12754        0.16330        0.17911        0.21458
        0.23848        0.25026        0.26784        0.28227        0.31984
        0.35601        0.37403        0.47915        0.49608        0.52208
        0.54168        0.56389        0.57439        0.58495        0.59890
        0.63101        0.66634        0.68296        0.89140        0.90187
        0.92516        0.93475        0.95174        0.97589        0.99142
        1.01503        1.05258        1.06133        1.08219        1.10419
        1.11372        1.13268        1.15533        1.24556        1.30383
        1.33893        1.36934        1.36986        1.40530        1.45356
        1.47428        1.48389        1.52868        1.53837        1.55402
        1.59067        1.59804        1.62530        1.68843        1.71915
        1.73148        1.75752        1.77635        1.84896        1.86316
        1.89842        1.90122        1.92856        2.02528        2.08994
        2.16746        2.21828        2.24800        2.26026        2.27536
        2.29876        2.34020        2.34927        2.44232        2.52097
        2.55617        2.62307        2.63588        2.65686        2.67258
        2.71079        2.75932        2.80973        2.81326        2.82691
        2.86086        2.93505        2.98631        3.07137        3.17119
        3.39268        3.39790        3.41500        3.44459        3.46578
        3.47163        3.48355        3.50825        3.52098        3.56688
        3.61899        3.63372        3.64273        3.71423        3.92672
        4.00810        4.02114        4.04161        4.15898        4.17760
        4.19168        4.26036        4.68061        5.15509        5.21027
        5.26459        5.28061        5.33786        5.40115        5.70036
        5.73195        5.74030        5.76337        6.08051        6.10992
        6.14810        6.21650       37.08763       51.45640       51.48026
       51.49742       51.55288
 Time used in FCKEIG, thr_jaco:   3.20D-02  4.00D-02  4.10D-05
 CPU and wall times used in FCKEIG, THR_FCKEIG:   3.20D-02  4.00D-02  9.41D-03
 -----------------------------------------------------------------------------

 *** DIIS iteration number    3
 RDSUPM called. NFMAT, ISYMDM(1:NFMAT)                     1
                     1

 ITDIIS, energy, error norm, change in energy, scr.thr., difden:
@ DIIS iter.   3    -360.716505916        3.51746D-01   -6.07D-02  -20    F

 (DIIS_RED) Control Parameters C2DIIS =         F NEVC =    3


 (DIIS_RED) B matrix:

               Column   1     Column   2     Column   3
       1      14.87364488
       2       0.98723451     0.88621933
       3       0.64680519     0.04804233     0.12372505
    ==== End of matrix output ====

 DIIS C vector; C2DIIS = F, LAMBDA = -9.45D-02
   -0.041256    0.101602    0.939654
* Read MO coefficients from SIRIUS.RST with label "NEWORB  " and header info:  4Dec18  DIIS   3
      Virial theorem: -V/T =      2.001322
@      MULPOP N      -0.60; H       0.21; H       0.21; H       0.21; O      -0.67; O      -0.66; O      -0.60; O      -0.78; H       0.35; H       0.35; 
@             H       0.33; H       0.36; H       0.33; H       0.28; H       0.32; H       0.37; 
   3  Level shift: doubly occupied orbital energies shifted by -2.50D-02

 DIIS Fock eigenvalues in symmetry 1
      -20.60038      -20.59506      -20.54258      -20.53633      -15.61369
       -1.38866       -1.38288       -1.34931       -1.33971       -1.18831
       -0.75974       -0.75744       -0.71737       -0.70860       -0.68164
       -0.66517       -0.63551       -0.62832       -0.61243       -0.57570
       -0.56623       -0.55644       -0.53127       -0.51316       -0.48781
        0.00000        0.13030        0.16710        0.18173        0.21540
        0.24043        0.25429        0.27100        0.28222        0.31991
        0.35552        0.37776        0.47802        0.49620        0.53087
        0.54932        0.57139        0.58191        0.59139        0.60629
        0.63591        0.67257        0.68689        0.90149        0.90822
        0.91525        0.94663        0.97771        0.98353        0.99403
        1.01813        1.05867        1.07114        1.09113        1.11442
        1.12648        1.14623        1.16475        1.24629        1.30538
        1.33865        1.37394        1.37646        1.41078        1.46932
        1.48296        1.49245        1.53781        1.54772        1.56385
        1.59779        1.60678        1.63545        1.69972        1.72825
        1.73980        1.76417        1.77936        1.85474        1.87085
        1.90032        1.90387        1.93487        2.02828        2.09143
        2.15707        2.22172        2.25338        2.26884        2.29154
        2.31255        2.35104        2.35928        2.45241        2.53178
        2.55829        2.63180        2.64374        2.66438        2.68070
        2.71545        2.76348        2.81364        2.81833        2.83185
        2.86694        2.91158        2.96113        3.06043        3.15792
        3.39365        3.40903        3.41563        3.46719        3.48774
        3.49494        3.51312        3.52255        3.52483        3.58419
        3.63971        3.64871        3.69387        3.73230        3.97360
        4.02750        4.03666        4.05914        4.18141        4.19741
        4.23399        4.28002        4.63743        5.10440        5.16035
        5.29741        5.34765        5.36113        5.42392        5.74522
        5.76146        5.78098        5.78705        6.13369        6.15621
        6.16721        6.23894       36.96106       51.51170       51.51912
       51.58233       51.60225
 Time used in FCKEIG, thr_jaco:   2.90D-02  4.10D-02  1.53D-05
 CPU and wall times used in FCKEIG, THR_FCKEIG:   2.90D-02  4.10D-02  3.52D-03
 -----------------------------------------------------------------------------

 *** DIIS iteration number    4
 RDSUPM called. NFMAT, ISYMDM(1:NFMAT)                     1
                     1

 ITDIIS, energy, error norm, change in energy, scr.thr., difden:
@ DIIS iter.   4    -360.724675596        1.20240D-01   -8.17D-03  -20    F

 (DIIS_RED) Control Parameters C2DIIS =         F NEVC =    4


 (DIIS_RED) B matrix:

               Column   1     Column   2     Column   3     Column   4
       1      14.87364488
       2       0.98723451     0.88621933
       3       0.64680519     0.04804233     0.12372505
       4      -0.00522504     0.08516736    -0.01154018     0.01445766
    ==== End of matrix output ====

 DIIS C vector; C2DIIS = F, LAMBDA = -3.76D-03
    0.000173   -0.094690    0.153952    0.940565
* Read MO coefficients from SIRIUS.RST with label "NEWORB  " and header info:  4Dec18  DIIS   4
      Virial theorem: -V/T =      2.002181
@      MULPOP N      -0.68; H       0.22; H       0.23; H       0.23; O      -0.68; O      -0.68; O      -0.61; O      -0.76; H       0.36; H       0.36; 
@             H       0.34; H       0.36; H       0.33; H       0.28; H       0.31; H       0.37; 
   4  Level shift: doubly occupied orbital energies shifted by -1.25D-02

 DIIS Fock eigenvalues in symmetry 1
      -20.59712      -20.58832      -20.56621      -20.53855      -15.56753
       -1.38015       -1.37331       -1.35095       -1.33103       -1.16540
       -0.75050       -0.74767       -0.71290       -0.69907       -0.66162
       -0.64514       -0.62599       -0.62421       -0.59937       -0.56437
       -0.55261       -0.54312       -0.52963       -0.50050       -0.46594
        0.00000        0.13034        0.16615        0.18032        0.21539
        0.24059        0.25372        0.27026        0.28299        0.32080
        0.35846        0.37830        0.48104        0.49892        0.53045
        0.54906        0.57028        0.58020        0.59097        0.60522
        0.63545        0.67254        0.68642        0.90292        0.91042
        0.92131        0.94559        0.97499        0.98149        0.99626
        1.02005        1.05979        1.07034        1.08985        1.11300
        1.12529        1.14274        1.16307        1.24711        1.30796
        1.34175        1.37499        1.37687        1.41102        1.46596
        1.48115        1.49132        1.53597        1.54617        1.56170
        1.59705        1.60509        1.63301        1.69770        1.72696
        1.73826        1.76294        1.78200        1.85445        1.86989
        1.90249        1.90477        1.93338        2.03109        2.09386
        2.16308        2.22351        2.25313        2.26701        2.28677
        2.30845        2.34872        2.35740        2.44975        2.53181
        2.56074        2.62989        2.64164        2.66313        2.68011
        2.71774        2.76383        2.81453        2.81766        2.83213
        2.86665        2.92172        2.97169        3.06725        3.16486
        3.40256        3.40805        3.41837        3.46804        3.48023
        3.49262        3.50532        3.51935        3.52313        3.58200
        3.63713        3.64754        3.68124        3.73000        3.96196
        4.02472        4.03492        4.05665        4.17861        4.19574
        4.22381        4.27767        4.65057        5.12081        5.17716
        5.29506        5.32452        5.35685        5.41983        5.73943
        5.75727        5.76766        5.77936        6.12781        6.13670
        6.16322        6.23439       36.99412       51.50268       51.51354
       51.55615       51.57868
 Time used in FCKEIG, thr_jaco:   2.30D-02  3.10D-02  5.23D-06
 CPU and wall times used in FCKEIG, THR_FCKEIG:   2.30D-02  3.10D-02  1.20D-03
 -----------------------------------------------------------------------------

 *** DIIS iteration number    5
 RDSUPM called. NFMAT, ISYMDM(1:NFMAT)                     1
                     1

 ITDIIS, energy, error norm, change in energy, scr.thr., difden:
@ DIIS iter.   5    -360.725801538        2.28039D-02   -1.13D-03  -20    F

 (DIIS_RED) Control Parameters C2DIIS =         F NEVC =    5


 (DIIS_RED) B matrix:

               Column   1     Column   2     Column   3     Column   4     Column   5
       1      14.87364488
       2       0.98723451     0.88621933
       3       0.64680519     0.04804233     0.12372505
       4      -0.00522504     0.08516736    -0.01154018     0.01445766
       5       0.01166992     0.00640582     0.00459170     0.00083808     0.00052002
    ==== End of matrix output ====

 DIIS C vector; C2DIIS = F, LAMBDA = -2.56D-04
    0.001401    0.009299   -0.069373   -0.162729    1.221402
* Read MO coefficients from SIRIUS.RST with label "NEWORB  " and header info:  4Dec18  DIIS   5
      Virial theorem: -V/T =      2.001839
@      MULPOP N      -0.67; H       0.22; H       0.23; H       0.23; O      -0.69; O      -0.69; O      -0.62; O      -0.78; H       0.36; H       0.36; 
@             H       0.35; H       0.37; H       0.34; H       0.29; H       0.32; H       0.38; 

 DIIS Fock eigenvalues in symmetry 1
      -20.58257      -20.57492      -20.54895      -20.52537      -15.55223
       -1.36705       -1.36069       -1.33680       -1.31830       -1.15235
       -0.73809       -0.73569       -0.69964       -0.68685       -0.64904
       -0.63217       -0.61243       -0.61126       -0.58700       -0.55197
       -0.53898       -0.52929       -0.51480       -0.48687       -0.45237
        0.00000        0.13015        0.16586        0.18005        0.21538
        0.24046        0.25355        0.27004        0.28283        0.32070
        0.35865        0.37841        0.48096        0.49887        0.53054
        0.54896        0.57005        0.57980        0.59078        0.60501
        0.63534        0.67260        0.68622        0.90367        0.91085
        0.92168        0.94628        0.97620        0.98215        0.99646
        1.02056        1.06009        1.07033        1.08996        1.11311
        1.12573        1.14288        1.16289        1.24719        1.30823
        1.34185        1.37511        1.37697        1.41110        1.46614
        1.48054        1.49108        1.53570        1.54594        1.56152
        1.59691        1.60472        1.63332        1.69755        1.72657
        1.73771        1.76257        1.78176        1.85392        1.86933
        1.90232        1.90471        1.93290        2.03101        2.09376
        2.16320        2.22332        2.25286        2.26630        2.28659
        2.30820        2.34818        2.35695        2.44937        2.53201
        2.56057        2.62914        2.64116        2.66268        2.67962
        2.71740        2.76335        2.81409        2.81711        2.83161
        2.86624        2.92203        2.97205        3.06764        3.16504
        3.40322        3.40823        3.41900        3.46912        3.48116
        3.49319        3.50650        3.52005        3.52317        3.58207
        3.63761        3.64755        3.68269        3.73019        3.96358
        4.02514        4.03480        4.05669        4.17919        4.19585
        4.22528        4.27779        4.65192        5.12192        5.17820
        5.29565        5.32743        5.35743        5.42104        5.74035
        5.75780        5.76949        5.77999        6.12868        6.13872
        6.16330        6.23446       36.99685       51.50470       51.51443
       51.56038       51.57978
 Time used in FCKEIG, thr_jaco:   2.30D-02  4.10D-02  9.92D-07
 CPU and wall times used in FCKEIG, THR_FCKEIG:   2.30D-02  4.10D-02  2.28D-04
 -----------------------------------------------------------------------------

 *** DIIS iteration number    6
 RDSUPM called. NFMAT, ISYMDM(1:NFMAT)                     1
                     1

 ITDIIS, energy, error norm, change in energy, scr.thr., difden:
@ DIIS iter.   6    -360.725880785        6.62726D-03   -7.92D-05  -20    F

 (DIIS_RED) Control Parameters C2DIIS =         F NEVC =    6


 (DIIS_RED) B matrix:

               Column   1     Column   2     Column   3     Column   4     Column   5     Column   6
       1      14.87364488
       2       0.98723451     0.88621933
       3       0.64680519     0.04804233     0.12372505
       4      -0.00522504     0.08516736    -0.01154018     0.01445766
       5       0.01166992     0.00640582     0.00459170     0.00083808     0.00052002
       6      -0.00234605    -0.00032110     0.00044721     0.00014074     0.00006627     0.00004392
    ==== End of matrix output ====

 DIIS C vector; C2DIIS = F, LAMBDA = -2.92D-05
    0.000407    0.006565   -0.018450   -0.067260    0.114488    0.964250
* Read MO coefficients from SIRIUS.RST with label "NEWORB  " and header info:  4Dec18  DIIS   6
      Virial theorem: -V/T =      2.001957
@      MULPOP N      -0.67; H       0.22; H       0.23; H       0.23; O      -0.69; O      -0.69; O      -0.62; O      -0.78; H       0.36; H       0.36; 
@             H       0.35; H       0.37; H       0.34; H       0.29; H       0.32; H       0.38; 

 DIIS Fock eigenvalues in symmetry 1
      -20.58376      -20.57546      -20.55062      -20.52547      -15.55523
       -1.36741       -1.36083       -1.33721       -1.31827       -1.15332
       -0.73853       -0.73598       -0.70014       -0.68696       -0.64982
       -0.63297       -0.61295       -0.61175       -0.58738       -0.55210
       -0.53896       -0.52960       -0.51508       -0.48670       -0.45320
        0.00000        0.13002        0.16575        0.17994        0.21523
        0.24036        0.25347        0.26995        0.28268        0.32055
        0.35838        0.37823        0.48066        0.49860        0.53028
        0.54876        0.56989        0.57966        0.59071        0.60480
        0.63512        0.67233        0.68607        0.90327        0.91049
        0.92110        0.94611        0.97601        0.98182        0.99620
        1.02036        1.05993        1.07014        1.08966        1.11280
        1.12549        1.14261        1.16281        1.24684        1.30782
        1.34150        1.37491        1.37677        1.41078        1.46589
        1.48031        1.49079        1.53554        1.54572        1.56135
        1.59669        1.60449        1.63300        1.69736        1.72629
        1.73750        1.76245        1.78142        1.85364        1.86907
        1.90196        1.90436        1.93279        2.03068        2.09341
        2.16258        2.22286        2.25244        2.26602        2.28634
        2.30795        2.34791        2.35664        2.44924        2.53163
        2.56014        2.62891        2.64097        2.66253        2.67931
        2.71708        2.76303        2.81374        2.81689        2.83132
        2.86606        2.92113        2.97112        3.06686        3.16439
        3.40235        3.40797        3.41828        3.46846        3.48078
        3.49282        3.50600        3.51942        3.52290        3.58204
        3.63718        3.64733        3.68220        3.73015        3.96299
        4.02467        4.03457        4.05665        4.17871        4.19560
        4.22468        4.27776        4.65042        5.12041        5.17669
        5.29537        5.32657        5.35742        5.42038        5.73986
        5.75754        5.76881        5.77949        6.12799        6.13789
        6.16296        6.23439       36.99392       51.50353       51.51389
       51.55892       51.57949
 Time used in FCKEIG, thr_jaco:   2.40D-02  6.70D-02  2.88D-07
 CPU and wall times used in FCKEIG, THR_FCKEIG:   2.40D-02  6.70D-02  6.63D-05
 -----------------------------------------------------------------------------

 *** DIIS iteration number    7
 RDSUPM called. NFMAT, ISYMDM(1:NFMAT)                     1
                     1

 ITDIIS, energy, error norm, change in energy, scr.thr., difden:
@ DIIS iter.   7    -360.725885566        2.37070D-03   -4.78D-06  -20    F

 (DIIS_RED) Control Parameters C2DIIS =         F NEVC =    7


 (DIIS_RED) B matrix:

               Column   1     Column   2     Column   3     Column   4     Column   5     Column   6
       1      14.87364488
       2       0.98723451     0.88621933
       3       0.64680519     0.04804233     0.12372505
       4      -0.00522504     0.08516736    -0.01154018     0.01445766
       5       0.01166992     0.00640582     0.00459170     0.00083808     0.00052002
       6      -0.00234605    -0.00032110     0.00044721     0.00014074     0.00006627     0.00004392
       7       0.00083856     0.00004927     0.00007219     0.00000110     0.00002992    -0.00000035

               Column   7
       7       0.00000562
    ==== End of matrix output ====

 DIIS C vector; C2DIIS = F, LAMBDA = -1.19D-06
   -0.000212   -0.001468    0.009379    0.024996   -0.170012    0.094455    1.042862
* Read MO coefficients from SIRIUS.RST with label "NEWORB  " and header info:  4Dec18  DIIS   7
      Virial theorem: -V/T =      2.001928
@      MULPOP N      -0.67; H       0.22; H       0.23; H       0.23; O      -0.69; O      -0.69; O      -0.62; O      -0.78; H       0.36; H       0.36; 
@             H       0.35; H       0.37; H       0.34; H       0.29; H       0.32; H       0.38; 

 DIIS Fock eigenvalues in symmetry 1
      -20.58345      -20.57535      -20.54999      -20.52545      -15.55453
       -1.36730       -1.36076       -1.33692       -1.31821       -1.15309
       -0.73848       -0.73596       -0.69993       -0.68694       -0.64970
       -0.63282       -0.61279       -0.61168       -0.58737       -0.55212
       -0.53886       -0.52943       -0.51476       -0.48662       -0.45295
        0.00000        0.13006        0.16577        0.17998        0.21527
        0.24038        0.25348        0.26997        0.28270        0.32059
        0.35844        0.37832        0.48072        0.49866        0.53038
        0.54881        0.56993        0.57968        0.59074        0.60483
        0.63519        0.67244        0.68610        0.90342        0.91056
        0.92124        0.94620        0.97618        0.98196        0.99626
        1.02045        1.05999        1.07019        1.08973        1.11290
        1.12556        1.14271        1.16286        1.24693        1.30792
        1.34158        1.37498        1.37684        1.41088        1.46601
        1.48031        1.49084        1.53557        1.54576        1.56142
        1.59674        1.60452        1.63314        1.69746        1.72631
        1.73752        1.76247        1.78145        1.85366        1.86907
        1.90204        1.90446        1.93281        2.03074        2.09349
        2.16269        2.22293        2.25249        2.26603        2.28642
        2.30801        2.34792        2.35666        2.44926        2.53177
        2.56019        2.62890        2.64105        2.66255        2.67933
        2.71710        2.76304        2.81375        2.81691        2.83134
        2.86616        2.92131        2.97131        3.06705        3.16451
        3.40256        3.40803        3.41845        3.46869        3.48096
        3.49295        3.50623        3.51960        3.52297        3.58209
        3.63729        3.64739        3.68248        3.73021        3.96328
        4.02478        4.03462        4.05669        4.17884        4.19568
        4.22496        4.27781        4.65081        5.12074        5.17702
        5.29546        5.32698        5.35747        5.42056        5.74002
        5.75763        5.76910        5.77962        6.12818        6.13824
        6.16303        6.23442       36.99460       51.50383       51.51399
       51.55948       51.57958
 Time used in FCKEIG, thr_jaco:   2.40D-02  3.60D-02  1.03D-07
 CPU and wall times used in FCKEIG, THR_FCKEIG:   2.40D-02  3.60D-02  2.37D-05
 -----------------------------------------------------------------------------

 *** DIIS iteration number    8
 RDSUPM called. NFMAT, ISYMDM(1:NFMAT)                     1
                     1

 ITDIIS, energy, error norm, change in energy, scr.thr., difden:
@ DIIS iter.   8    -360.725886101        3.52164D-04   -5.34D-07  -20    F

 (DIIS_RED) Control Parameters C2DIIS =         F NEVC =    8


 (DIIS_RED) B matrix:

               Column   1     Column   2     Column   3     Column   4     Column   5     Column   6
       1      14.87364488
       2       0.98723451     0.88621933
       3       0.64680519     0.04804233     0.12372505
       4      -0.00522504     0.08516736    -0.01154018     0.01445766
       5       0.01166992     0.00640582     0.00459170     0.00083808     0.00052002
       6      -0.00234605    -0.00032110     0.00044721     0.00014074     0.00006627     0.00004392
       7       0.00083856     0.00004927     0.00007219     0.00000110     0.00002992    -0.00000035
       8      -0.00000858     0.00000501    -0.00000412     0.00000448     0.00000092     0.00000128

               Column   7     Column   8
       7       0.00000562
       8       0.00000022     0.00000012
    ==== End of matrix output ====

 DIIS C vector; C2DIIS = F, LAMBDA = -5.80D-08
    0.000022    0.000102   -0.001166   -0.003022    0.029009   -0.055711   -0.183077    1.213843
* Read MO coefficients from SIRIUS.RST with label "NEWORB  " and header info:  4Dec18  DIIS   8
      Virial theorem: -V/T =      2.001946
@      MULPOP N      -0.67; H       0.22; H       0.23; H       0.23; O      -0.69; O      -0.69; O      -0.62; O      -0.78; H       0.36; H       0.36; 
@             H       0.35; H       0.37; H       0.34; H       0.29; H       0.32; H       0.38; 

 DIIS Fock eigenvalues in symmetry 1
      -20.58350      -20.57535      -20.55001      -20.52542      -15.55457
       -1.36732       -1.36076       -1.33693       -1.31819       -1.15310
       -0.73849       -0.73596       -0.69993       -0.68692       -0.64972
       -0.63284       -0.61280       -0.61171       -0.58739       -0.55213
       -0.53886       -0.52944       -0.51476       -0.48660       -0.45296
        0.00000        0.13006        0.16576        0.17998        0.21527
        0.24038        0.25348        0.26997        0.28270        0.32059
        0.35842        0.37831        0.48071        0.49865        0.53037
        0.54880        0.56993        0.57967        0.59075        0.60482
        0.63519        0.67243        0.68611        0.90341        0.91054
        0.92123        0.94620        0.97618        0.98195        0.99625
        1.02045        1.05998        1.07019        1.08972        1.11290
        1.12555        1.14271        1.16287        1.24692        1.30791
        1.34157        1.37498        1.37683        1.41087        1.46600
        1.48031        1.49083        1.53557        1.54575        1.56141
        1.59673        1.60452        1.63313        1.69745        1.72629
        1.73751        1.76248        1.78144        1.85365        1.86906
        1.90203        1.90444        1.93281        2.03072        2.09348
        2.16268        2.22291        2.25248        2.26602        2.28642
        2.30801        2.34791        2.35664        2.44926        2.53175
        2.56017        2.62890        2.64104        2.66256        2.67931
        2.71709        2.76303        2.81374        2.81691        2.83133
        2.86614        2.92130        2.97129        3.06703        3.16449
        3.40254        3.40803        3.41842        3.46867        3.48095
        3.49295        3.50621        3.51959        3.52297        3.58210
        3.63727        3.64738        3.68247        3.73021        3.96327
        4.02475        4.03461        4.05670        4.17882        4.19567
        4.22495        4.27782        4.65078        5.12071        5.17700
        5.29546        5.32696        5.35748        5.42053        5.74001
        5.75763        5.76909        5.77960        6.12814        6.13822
        6.16302        6.23444       36.99457       51.50378       51.51399
       51.55946       51.57961
 Time used in FCKEIG, thr_jaco:   2.70D-02  6.30D-02  1.53D-08
 CPU and wall times used in FCKEIG, THR_FCKEIG:   2.70D-02  6.30D-02  3.52D-06
 -----------------------------------------------------------------------------

 *** DIIS iteration number    9
 RDSUPM called. NFMAT, ISYMDM(1:NFMAT)                     1
                     1

 ITDIIS, energy, error norm, change in energy, scr.thr., difden:
@ DIIS iter.   9    -360.725886119        8.20366D-05   -1.81D-08  -20    F

 (DIIS_RED) Control Parameters C2DIIS =         F NEVC =    8


 (DIIS_RED) B matrix:

               Column   1     Column   2     Column   3     Column   4     Column   5     Column   6
       1       0.00000001
       2       0.00000363     0.88621933
       3       0.00000051     0.04804233     0.12372505
       4       0.00000014     0.08516736    -0.01154018     0.01445766
       5       0.00000019     0.00640582     0.00459170     0.00083808     0.00052002
[...]
 | 1 1 1 1 |  31   1  12   1 |     1483        1 |      1098904 |    0.090629  |
 | 1 1 1 1 |  11   1  18   1 |     2255        1 |      2541386 |   -0.089957  |
 | 1 1 1 1 |   5   1  21   1 |     2645        1 |      3496691 |    0.077762  |
 | 1 1 1 1 |  12   1  21   1 |     2652        1 |      3515227 |   -0.121480  |
 | 1 1 1 1 |  15   1  21   1 |     2655        1 |      3523186 |   -0.076215  |
 | 1 1 1 1 |  22   1  21   1 |     2662        1 |      3541792 |   -0.072990  |
 | 1 1 1 1 |  24   1  21   1 |     2664        1 |      3547117 |   -0.115919  |
 | 1 1 1 1 |  26   1  21   1 |     2666        1 |      3552446 |   -0.110791  |
 | 1 1 1 1 |  29   1  21   1 |     2669        1 |      3560447 |    0.069608  |
 | 1 1 1 1 | 113   1  21   1 |     2753        1 |      3788129 |    0.093315  |
 +=============================================================================+


          Norm of Printed Amplitude Vector :             0.8637

          Printed all single excitations greater than 0.378098

          Printed all double excitations greater than 0.065434



+======================================================================+
| contributions of excitation levels to right eigenvectors as computed |
| from the (RE|RE) self overlap                                        |
+----------------------------------------------------------------------+
| sym | multi | state |    E / eV  | % singles | % doubles | % triples |
+======================================================================+
|    1|   1   |   1   |  407.02812 |  88.0875  |  11.9125  |   0.0000  |
+======================================================================+





+======================================================================+
| contributions of excitation levels to excited states as computed     |
| from the (LE|RE) overlap                                             |
+----------------------------------------------------------------------+
| sym | multi | state |    E / eV  | % singles | % doubles | % triples |
+======================================================================+
|    1|   1   |   1   |  407.02812 |  78.7139  |  21.2861  |   0.0000  |
+======================================================================+



 --------------------------
 Symmetry class Nr.:     1
 Multiplicity      :     3
 --------------------------

 Length of Excitation vectors in this class is:   7689528
 No Excitation Energies calculated in this symmetry class
     

   *******************************************************************
   *                                                                 *
   *--------   OUTPUT FROM PROPERTY AND SYMMETRY ANALYSIS   ---------*
   *                                                                 *
   *******************************************************************



                         +-------------------------------+
                         ! REQUESTED PROPERTY OPERATORS: !
                         +-------------------------------+

             Index   Oper. Label  Symmetry  Transp.  PDBS  Atom
             --------------------------------------------------
                1     HAM0            1        1      T      0
                2     XDIPLEN         1        1      F      0
                3     YDIPLEN         1        1      F      0
                4     ZDIPLEN         1        1      F      0
             --------------------------------------------------




                         +-------------------------------+
                         ! REQUESTED EXPECTATION VALUES: !
                         +-------------------------------+

                       Index   Oper. Label  Symmetry
                       -----------------------------
                       -----------------------------




                       +------------------------------------+
                       ! REQUESTED EFFECTIVE FOCK MATRICES: !
                       +------------------------------------+

                       Index   Oper. Label  Symmetry
                       -----------------------------
                       -----------------------------




                        +----------------------------------+
                        ! REQUESTED FIRST ORDER M-VECTORS: !
                        +----------------------------------+

               Index   State Symmetry  Frequency
               --------------------------------------------------
                  1             1    1     1.495801D+01
               --------------------------------------------------


      

    *******************************************************************
    *          SOLVING COUPLED CLUSTER RESPONSE EQUATIONS             *
    *******************************************************************



 
 +======================================================================+
 !                     RHS & ETA VECTORS TO COMPUTE:                    !
 +======================================================================+
 | TYPE | # VEC. |  NEEDED FOR:                                         |
 +----------------------------------------------------------------------+
 +======================================================================+



 +======================================================================+
 !                       LINEAR EQUATIONS TO SOLVE:                     !
 +======================================================================+
 | TYPE | # VEC. |  EQUATION:                                           |
 +----------------------------------------------------------------------+
 |  M1  |    1   |  first-order ground - excited state multipliers      |
 +======================================================================+



 +======================================================================+
 !                F MATRIX TRANSFORMATIONS TO COMPUTE:                  !
 +======================================================================+
 | TYPE | # VEC. |  TRANSFORMED:                                        |
 +----------------------------------------------------------------------+
 |  FR  |    1   |  right eigenvectors (RE)                             |
 +======================================================================+





 Testing R1 list: 

 List nr.  Label     Symmetry      Frequency      T1-norm        T2-norm


 Testing L1 list: 

 List nr.  Label     Symmetry      Frequency      T1-norm        T2-norm
  Solvent 1-order response equations converged in                     0 
  solvent iterations
 SONIAPRI                     0
 CCEQ_STR: CVSEPARATION =  T
 CCEQ_STR: IONIZATION =  T
 CCEQ_STR: REMOVE_CORE =  F
 could not find required file CCM1_1___1
 IOPTSV is    33 ... program continues nevertheless.
 Vector nr.  1 of type M1  and symmetry  1 was not found on file.
     M1  start vector nr.  1 of symmetry  1 generated from gradient
 CCEQ_STR: freeze VALENCE OR VIRT
 CCEQ_SOL: CVSEPARA=     T
 CCEQ_SOL: LIONISAT=     T
 CCEQ_SOL: REMOVE_CORE =  F



 ----- COUPLED CLUSTER RESPONSE SOLVER -----

    Iter  #Vectors  time (min)   residual
    --------------------------------------
 CCRED CVS/IONIS sigma_                     1 
 project out valence occupied or virtual
      1       1         1.20     0.32E+00
 CCRED CVS/IONIS sigma_                     2 
 project out valence occupied or virtual
      2       1         1.19     0.70E-01
 CCRED CVS/IONIS sigma_                     3 
 project out valence occupied or virtual
                    -1  vectors with norm le:  1.000000000000000E-035  REMOVED

 CCORT,**WARNING**  number vectors added is zero after check for vector norm , NBADD :    0

 CCORT, number vectors added is zero , NBADD :    0

 CCORT, number vectors added is zero , NBADD :    0

 CCORT, number vectors added is zero , NBADD :    0

 *** MICROITERATIONS STOPPED DUE TO LINEAR DEPENDENCE BETWEEN ALL NEW TRIAL VECTORS
                     0  trial vectors converged
  LINEAR DEPENDENCE BETWEEN                     1  NON CONVERGED TRIAL VECTORS
      3       1         1.19     0.72E-02

 ***  CCEQ_SOL -MICROITERATIONS STOPPED  
     LINEAR DEPENDENCE BETWEEN ALL NEW TRIAL VECTORS
    --------------------------------------
    converged in  3 iterations
    threshold:    0.10E-08


         Routine          Time (min)
         ---------------------------
         CC_TRDRV            3.58
         CCRED               0.02
         CCNEX               0.04
         ---------------------------
         Total time          3.64


  Total CPU  time used in CCEQ_SOLV:  3 minutes 38 seconds
  Total wall time used in CCEQ_SOLV:  7 minutes 21 seconds


 xxxxxxxxxxxxxxxxxxxxxxxxxxxxxxxxxxxxx

 
 Solution of CC response equations completed.
 

 *******************************************************************
 *                                                                 *
 *--------  OUTPUT FROM COUPLED CLUSTER LINEAR RESPONSE   ---------*
 *                                                                 *
 *--------      CALCULATION OF SECOND ORDER RESIDUES      ---------*
 *                                                                 *
 *******************************************************************



                  +---------------------------------------------+
                  ! CC_SOPR: Calculation of CCSD       Residues !
                  +---------------------------------------------+

 Doing the Mf*CsiA
 Doing the Mf*CsiA
 Doing the Mf*CsiA


 CCSD  Right transition moments in atomic units:
 -----------------------------------------------

  1      14.958008  <XDIPLEN |f> =      -0.00000000
  1      14.958008  <YDIPLEN |f> =      -0.00000001
  1      14.958008  <ZDIPLEN |f> =       0.00000001


 CCSD  Left  transition moments in atomic units:
 -----------------------------------------------

  1      14.958008  <f|XDIPLEN > =      -0.00000000
  1      14.958008  <f|YDIPLEN > =      -0.00000000
  1      14.958008  <f|ZDIPLEN > =       0.00000001


 CCSD  linear response residue property in atomic units:
 -------------------------------------------------------

 RES{<<XDIPLEN ,XDIPLEN >>(14.958008)} =     0.00000000 (   0.00000000)
 RES{<<XDIPLEN ,YDIPLEN >>(14.958008)} =     0.00000000 (   0.00000000)
 RES{<<XDIPLEN ,ZDIPLEN >>(14.958008)} =    -0.00000000 (  -0.00000000)
 RES{<<YDIPLEN ,XDIPLEN >>(14.958008)} =     0.00000000 (   0.00000000)
 RES{<<YDIPLEN ,YDIPLEN >>(14.958008)} =     0.00000000 (   0.00000000)
 RES{<<YDIPLEN ,ZDIPLEN >>(14.958008)} =    -0.00000000 (  -0.00000001)
 RES{<<ZDIPLEN ,XDIPLEN >>(14.958008)} =    -0.00000000 (  -0.00000000)
 RES{<<ZDIPLEN ,YDIPLEN >>(14.958008)} =    -0.00000000 (  -0.00000001)
 RES{<<ZDIPLEN ,ZDIPLEN >>(14.958008)} =     0.00000000 (   0.00000001)


 CCSD  Transition strength matrix for state nr.  1 of symmetry 1
 CCSD  excitation energy:14.95800848

 Gauge: length

               Column   1     Column   2     Column   3
       1     1.223400D-18   3.671281D-18  -9.721828D-18
       2     3.671281D-18   1.101134D-17  -2.917441D-17
       3    -9.721828D-18  -2.917441D-17   7.725511D-17
    ==== End of matrix output ====

 Principal values of diagonalized transition strength matrix:

             a.u.               
 1       0.00000000
 2       0.00000000
 3       0.00000000

 Principal axis of diagonalized transition strength matrix:


               Column   1     Column   2     Column   3
       1       1.00000000     0.00000000     0.00000000
       2       0.00000000     1.00000000     0.00000000
       3       0.00000000     0.00000000     1.00000000
    ==== End of matrix output ====


 CCSD   oscillator strength matrix for state nr.  1 of symmetry 1
 CCSD  excitation energy:14.95800848


               Column   1     Column   2     Column   3
       1     1.219975D-17   3.661003D-17  -9.694612D-17
       2     3.661003D-17   1.098052D-16  -2.909274D-16
       3    -9.694612D-17  -2.909274D-16   7.703884D-16
    ==== End of matrix output ====

 Principal values of diagonalized oscillator strength matrix:

             a.u.               
 1       0.00000000
 2       0.00000000
 3       0.00000000

 Principal axis of diagonalized oscillator strength matrix:


               Column   1     Column   2     Column   3
       1       1.00000000     0.00000000     0.00000000
       2       0.00000000     1.00000000     0.00000000
       3       0.00000000     0.00000000     1.00000000
    ==== End of matrix output ====

  Total time for      9 linear response residues:       2.62 seconds.
  

 *******************************************************************************
 *******************************************************************************
 *                                                                             *
 *                                                                             *
 *                   SUMMARY OF COUPLED CLUSTER CALCULATION                    *
 *                                                                             *
 *                                                                             *
 *******************************************************************************
 *******************************************************************************

                                                                                
                                                                                
            Total SCF   energy:                  -360.7258861195                
            Total MP2   energy:                  -361.8260345768                
            Total CCSD  energy:                  -361.8654235109                
                                                                                
                                                                                
            Total SCF   energy:                  -360.7258861195                
            Total RSTAR energy:                  -361.8654235109                
            Total CCSD  energy:                  -361.8655562772                
                                                                                
                                                                                
            Total SCF   energy:                  -360.7258861195                
            Total RSTAR energy:                  -361.8655562772                
            Total CCSD  energy:                  -361.8655581127                
                                                                                
                                                                                
            Total SCF   energy:                  -360.7258861195                
            Total RSTAR energy:                  -361.8655581127                
            Total CCSD  energy:                  -361.8655582206                
                                                                                
                                                                                
            Total SCF   energy:                  -360.7258861195                
            Total RSTAR energy:                  -361.8655582206                
            Total CCSD  energy:                  -361.8655582271                
                                                                                
                                                                                
            Total SCF   energy:                  -360.7258861195                
            Total RSTAR energy:                  -361.8655582271                
            Total CCSD  energy:                  -361.8655582274                
            CCSD Total  energy:                  -362.2059408495                
            CCSD E(QM/MM)     :                    -0.3357474651                
                                                                                
                                                                                
                                                                                
 +=============================================================================+
 |  sym. | Exci.  |        CCSD       Excitation energies            | ||T1||  |
 |(spin, |        +------------------------------------------------------------+
 | spat) |        |     Hartree    |       eV.      |     cm-1       |    %    |
 +=============================================================================+
 | ^1A   |    1   |    14.9580085  |     407.02812  |   3282903.367  |  88.09  |
 +=============================================================================+
                                                                                
                                                                                
     Total energies in Hartree:                                                 
             1 ^1A       -346.9121849025                                        
                                                                                
                                                                                
 +=============================================================================+
 |  sym. | Exci.  |        CCSD       Length   Gauge Oscillator Strength       |
 |(spin, |        +------------------------------------------------------------+
 | spat) |        | Dipole Strength(a.u.) | Oscillator strength  | Direction   |
 +=============================================================================+
 | ^1A   |    1   |        0.0000000      |      0.0000000       |    -        |
 +=============================================================================+

  1 a.u. =        27.21138 eV.  
  1 a.u. =    219474.62934 cm-1.
  

 *******************************************************************************
 *******************************************************************************
 *                                                                             *
 *                                                                             *
 *                      END OF COUPLED CLUSTER CALCULATION                     *
 *                                                                             *
 *                                                                             *
 *******************************************************************************
 *******************************************************************************


 CPU and wall time for CC :    5417.997   10804.885

 
     Date and time (Linux)  : Tue Dec  4 12:24:16 2018
     Host name              : n-62-29-8                               


                      .-------------------------------------.
                      | End of Coupled Cluster Section (CC) |
                      `-------------------------------------'

  Total CPU  time used in DALTON:   1 hour  32 minutes 11 seconds
  Total wall time used in DALTON:   3 hours  5 minutes 58 seconds

 
     Date and time (Linux)  : Tue Dec  4 12:24:16 2018
     Host name              : n-62-29-8                               
  

 +---------------------------------------------------------+ 
 | List of selected calculated molecular properties (a.u.) | 
 +---------------------------------------------------------+ 

  Properties are read from unit number                      4

 CCSD       properties :
 #  1 1 CCSD/MM  Ground state Energy =    -362.2059408495
 #  2 1 E_QM/MM  Ground state Energy =      -0.3357474651
 #  3 1 Sy: 1 Sp: 1 Exc:  1 E_tot:   -346.9121849025 w:     14.9580084820 E_grs:   -361.8701933844
 #  4 1 Exctot   Excited state Energy =    -346.9121849025
 #  5 1 |<O|XDIPLEN |i(14.958008)>| =     0.00000000
 #  7 1 |<O|YDIPLEN |i(14.958008)>| =     0.00000000
 #  9 1 |<O|ZDIPLEN |i(14.958008)>| =     0.00000001

 THE_END   
