

     ************************************************************************
     *************** Dalton - An Electronic Structure Program ***************
     ************************************************************************

    This is output from DALTON release Dalton2017.alpha (2016)
         ( Web site: http://daltonprogram.org )

   ----------------------------------------------------------------------------

    NOTE:
     
    Dalton is an experimental code for the evaluation of molecular
    properties using (MC)SCF, DFT, CI, and CC wave functions.
    The authors accept no responsibility for the performance of
    the code or for the correctness of the results.
     
    The code (in whole or part) is provided under a licence and
    is not to be reproduced for further distribution without
    the written permission of the authors or their representatives.
     
    See the home page "http://daltonprogram.org" for further information.
     
    If results obtained with this code are published,
    the appropriate citations would be both of:
     
       K. Aidas, C. Angeli, K. L. Bak, V. Bakken, R. Bast,
       L. Boman, O. Christiansen, R. Cimiraglia, S. Coriani,
       P. Dahle, E. K. Dalskov, U. Ekstroem,
       T. Enevoldsen, J. J. Eriksen, P. Ettenhuber, B. Fernandez,
       L. Ferrighi, H. Fliegl, L. Frediani, K. Hald, A. Halkier,
       C. Haettig, H. Heiberg, T. Helgaker, A. C. Hennum,
       H. Hettema, E. Hjertenaes, S. Hoest, I.-M. Hoeyvik,
       M. F. Iozzi, B. Jansik, H. J. Aa. Jensen, D. Jonsson,
       P. Joergensen, J. Kauczor, S. Kirpekar,
       T. Kjaergaard, W. Klopper, S. Knecht, R. Kobayashi, H. Koch,
       J. Kongsted, A. Krapp, K. Kristensen, A. Ligabue,
       O. B. Lutnaes, J. I. Melo, K. V. Mikkelsen, R. H. Myhre,
       C. Neiss, C. B. Nielsen, P. Norman, J. Olsen,
       J. M. H. Olsen, A. Osted, M. J. Packer, F. Pawlowski,
       T. B. Pedersen, P. F. Provasi, S. Reine, Z. Rinkevicius,
       T. A. Ruden, K. Ruud, V. Rybkin, P. Salek, C. C. M. Samson,
       A. Sanchez de Meras, T. Saue, S. P. A. Sauer,
       B. Schimmelpfennig, K. Sneskov, A. H. Steindal,
       K. O. Sylvester-Hvid, P. R. Taylor, A. M. Teale,
       E. I. Tellgren, D. P. Tew, A. J. Thorvaldsen, L. Thoegersen,
       O. Vahtras, M. A. Watson, D. J. D. Wilson, M. Ziolkowski
       and H. Agren,
       "The Dalton quantum chemistry program system",
       WIREs Comput. Mol. Sci. 2014, 4:269–284 (doi: 10.1002/wcms.1172)
     
    and
     
       Dalton, a Molecular Electronic Structure Program,
       Release Dalton2017.alpha (2016), see http://daltonprogram.org
   ----------------------------------------------------------------------------

    Authors in alphabetical order (major contribution(s) in parenthesis):

  Kestutis Aidas,           Vilnius University,           Lithuania   (QM/MM)
  Celestino Angeli,         University of Ferrara,        Italy       (NEVPT2)
  Keld L. Bak,              UNI-C,                        Denmark     (AOSOPPA, non-adiabatic coupling, magnetic properties)
  Vebjoern Bakken,          University of Oslo,           Norway      (DALTON; geometry optimizer, symmetry detection)
  Radovan Bast,             UiT The Arctic U. of Norway,  Norway      (DALTON installation and execution frameworks)
  Pablo Baudin,             University of Valencia,       Spain       (Cholesky excitation energies)
  Linus Boman,              NTNU,                         Norway      (Cholesky decomposition and subsystems)
  Ove Christiansen,         Aarhus University,            Denmark     (CC module)
  Renzo Cimiraglia,         University of Ferrara,        Italy       (NEVPT2)
  Sonia Coriani,            University of Trieste,        Italy       (CC module, MCD in RESPONS)
  Janusz Cukras,            University of Trieste,        Italy       (MChD in RESPONS)
  Paal Dahle,               University of Oslo,           Norway      (Parallelization)
  Erik K. Dalskov,          UNI-C,                        Denmark     (SOPPA)
  Thomas Enevoldsen,        Univ. of Southern Denmark,    Denmark     (SOPPA)
  Janus J. Eriksen,         Aarhus University,            Denmark     (Polarizable embedding model, TDA)
  Rasmus Faber,             University of Copenhagen,     Denmark     (Vib.avg. NMR with SOPPA, parallel AO-SOPPA)
  Berta Fernandez,          U. of Santiago de Compostela, Spain       (doublet spin, ESR in RESPONS)
  Lara Ferrighi,            Aarhus University,            Denmark     (PCM Cubic response)
  Heike Fliegl,             University of Oslo,           Norway      (CCSD(R12))
  Luca Frediani,            UiT The Arctic U. of Norway,  Norway      (PCM)
  Bin Gao,                  UiT The Arctic U. of Norway,  Norway      (Gen1Int library)
  Christof Haettig,         Ruhr-University Bochum,       Germany     (CC module)
  Kasper Hald,              Aarhus University,            Denmark     (CC module)
  Asger Halkier,            Aarhus University,            Denmark     (CC module)
  Frederik Beyer Hansen,    University of Copenhagen,     Denmark     (Parallel AO-SOPPA)
  Erik D. Hedegaard,        Univ. of Southern Denmark,    Denmark     (Polarizable embedding model, QM/MM)
  Hanne Heiberg,            University of Oslo,           Norway      (geometry analysis, selected one-electron integrals)
  Trygve Helgaker,          University of Oslo,           Norway      (DALTON; ABACUS, ERI, DFT modules, London, and much more)
  Alf Christian Hennum,     University of Oslo,           Norway      (Parity violation)
  Hinne Hettema,            University of Auckland,       New Zealand (quadratic response in RESPONS; SIRIUS supersymmetry)
  Eirik Hjertenaes,         NTNU,                         Norway      (Cholesky decomposition)
  Pi A. B. Haase,           University of Copenhagen,     Denmark     (Triplet AO-SOPPA)
  Maria Francesca Iozzi,    University of Oslo,           Norway      (RPA)
  Brano Jansik              Technical Univ. of Ostrava    Czech Rep.  (DFT cubic response)
  Hans Joergen Aa. Jensen,  Univ. of Southern Denmark,    Denmark     (DALTON; SIRIUS, RESPONS, ABACUS modules, London, and much more)
  Dan Jonsson,              UiT The Arctic U. of Norway,  Norway      (cubic response in RESPONS module)
  Poul Joergensen,          Aarhus University,            Denmark     (RESPONS, ABACUS, and CC modules)
  Maciej Kaminski,          University of Warsaw,         Poland      (CPPh in RESPONS)
  Joanna Kauczor,           Linkoeping University,        Sweden      (Complex polarization propagator (CPP) module)
  Sheela Kirpekar,          Univ. of Southern Denmark,    Denmark     (Mass-velocity & Darwin integrals)
  Wim Klopper,              KIT Karlsruhe,                Germany     (R12 code in CC, SIRIUS, and ABACUS modules)
  Stefan Knecht,            ETH Zurich,                   Switzerland (Parallel CI and MCSCF)
  Rika Kobayashi,           Australian National Univ.,    Australia   (DIIS in CC, London in MCSCF)
  Henrik Koch,              NTNU,                         Norway      (CC module, Cholesky decomposition)
  Jacob Kongsted,           Univ. of Southern Denmark,    Denmark     (Polarizable embedding model, QM/MM)
  Andrea Ligabue,           University of Modena,         Italy       (CTOCD, AOSOPPA)
  Nanna H. List             Univ. of Southern Denmark,    Denmark     (Polarizable embedding model)
  Ola B. Lutnaes,           University of Oslo,           Norway      (DFT Hessian)
  Juan I. Melo,             University of Buenos Aires,   Argentina   (LRESC, Relativistic Effects on NMR Shieldings)
  Kurt V. Mikkelsen,        University of Copenhagen,     Denmark     (MC-SCRF and QM/MM)
  Rolf H. Myhre,            NTNU,                         Norway      (Cholesky, subsystems and ECC2)
  Christian Neiss,          Univ. Erlangen-Nuernberg,     Germany     (CCSD(R12))
  Christian B. Nielsen,     University of Copenhagen,     Denmark     (QM/MM)
  Patrick Norman,           Linkoeping University,        Sweden      (Cubic response and complex frequency response in RESPONS)
  Jeppe Olsen,              Aarhus University,            Denmark     (SIRIUS CI/density modules)
  Jogvan Magnus H. Olsen,   Univ. of Southern Denmark,    Denmark     (Polarizable embedding model, QM/MM)
  Anders Osted,             Copenhagen University,        Denmark     (QM/MM)
  Martin J. Packer,         University of Sheffield,      UK          (SOPPA)
  Filip Pawlowski,          Kazimierz Wielki University,  Poland      (CC3)
  Morten N. Pedersen,       Univ. of Southern Denmark,    Denmark     (Polarizable embedding model)
  Thomas B. Pedersen,       University of Oslo,           Norway      (Cholesky decomposition)
  Patricio F. Provasi,      University of Northeastern,   Argentina   (Analysis of coupling constants in localized orbitals)
  Zilvinas Rinkevicius,     KTH Stockholm,                Sweden      (open-shell DFT, ESR)
  Elias Rudberg,            KTH Stockholm,                Sweden      (DFT grid and basis info)
  Torgeir A. Ruden,         University of Oslo,           Norway      (Numerical derivatives in ABACUS)
  Kenneth Ruud,             UiT The Arctic U. of Norway,  Norway      (DALTON; ABACUS magnetic properties and much more)
  Pawel Salek,              KTH Stockholm,                Sweden      (DALTON; DFT code)
  Claire C. M. Samson       University of Karlsruhe       Germany     (Boys localization, r12 integrals in ERI)
  Alfredo Sanchez de Meras, University of Valencia,       Spain       (CC module, Cholesky decomposition)
  Trond Saue,               Paul Sabatier University,     France      (direct Fock matrix construction)
  Stephan P. A. Sauer,      University of Copenhagen,     Denmark     (SOPPA(CCSD), SOPPA prop., AOSOPPA, vibrational g-factors)
  Bernd Schimmelpfennig,    Forschungszentrum Karlsruhe,  Germany     (AMFI module)
  Kristian Sneskov,         Aarhus University,            Denmark     (Polarizable embedding model, QM/MM)
  Arnfinn H. Steindal,      UiT The Arctic U. of Norway,  Norway      (parallel QM/MM, Polarizable embedding model)
  Casper Steinmann,         Univ. of Southern Denmark,    Denmark     (QFIT, Polarizable embedding model)
  K. O. Sylvester-Hvid,     University of Copenhagen,     Denmark     (MC-SCRF)
  Peter R. Taylor,          VLSCI/Univ. of Melbourne,     Australia   (Symmetry handling ABACUS, integral transformation)
  Andrew M. Teale,          University of Nottingham,     England     (DFT-AC, DFT-D)
  David P. Tew,             University of Bristol,        England     (CCSD(R12))
  Olav Vahtras,             KTH Stockholm,                Sweden      (triplet response, spin-orbit, ESR, TDDFT, open-shell DFT)
  David J. Wilson,          La Trobe University,          Australia   (DFT Hessian and DFT magnetizabilities)
  Hans Agren,               KTH Stockholm,                Sweden      (SIRIUS module, RESPONS, MC-SCRF solvation model)
 --------------------------------------------------------------------------------

     Date and time (Linux)  : Thu Nov 29 11:15:49 2018
     Host name              : n-62-29-8                               

 * Work memory size             :  1280000000 =  9.537 gigabytes.

 * Directories for basis set searches:
   1) /zhome/d7/7/119775/My_Codes/dalton-private/build2016/basis/diffs
   2) /zhome/37/3/129401/NH3NH4/CCSD/AIMD_SAMPLING/nh3_4h2o_nd
   3) /zhome/9a/4/124800/source/dalton/build-mlcc/basis


Compilation information
-----------------------

 Who compiled             | rfaber
 Host                     | hpclogin1
 System                   | Linux-2.6.32-696.1.1.el6.x86_64
 CMake generator          | Unix Makefiles
 Processor                | x86_64
 64-bit integers          | ON
 MPI                      | OFF
 Fortran compiler         | /opt/intel/2016update2/compilers_and_libraries_201
                          | 6.2.181/linux/bin/intel64/ifort
 Fortran compiler version | ifort (IFORT) 16.0.2 20160204
 C compiler               | /opt/intel/2016update2/compilers_and_libraries_201
                          | 6.2.181/linux/bin/intel64/icc
 C compiler version       | icc (ICC) 16.0.2 20160204
 C++ compiler             | /opt/intel/2016update2/compilers_and_libraries_201
                          | 6.2.181/linux/bin/intel64/icpc
 C++ compiler version     | icpc (ICC) 16.0.2 20160204
 Static linking           | OFF
 Last Git revision        | bb4d1599ca5680a9f3980451fc8bbefdba436d59
 Git branch               | mlcc
 Configuration time       | 2017-06-13 16:11:03.928841


   Content of the .dal input file
 ----------------------------------

**DALTON
.RUN WAVE FUNCTIONS
*QMMM
.QMMM
**INTEGRALS
.DIPLEN
**WAVE FUNCTIONS
.CC
*PRINT
!To check the origin of excit
.PRINTL
   0 11
*SCF INP
.THRESH
1.0D-7
*CC INP
.CCSD
.THRLEQ
 1.0D-9
.THRENR
 1.0D-10
.FROIMP
4
0
.PRINT
 1
.MAX IT
 1200
.MAXRED
 1200
.MXLRV
1199
*CCSLV
.CCMM
.MXSLIT
200
.MXINIT
4 5
*CCEXCI
.NCCEXC
 1
.IONISATION
1
1
.CVSEPARA
1
1
*CCLRSD
.DIPOLE
**END OF DALTON INPUT


   Content of the .mol file
 ----------------------------

ATOMBASIS


Atomtypes=5 Charge=0 Nosymm Angstrom
   7.00000    1    Basis=6-311G**
N          0.000000        0.000000        0.000000
   1.00000    3    Basis=6-311G**
H          0.424742        0.189965        0.897732
H         -0.344551       -0.978832        0.062780
H          0.808428       -0.017029       -0.667812
   8.00000    4    Basis=6-311G**
O         -0.715630       -2.279034       -1.801172
O          2.073848       -2.090060       -1.739349
O         -1.239551        1.925008       -1.650269
O          3.058102        0.199103        0.009663
   1.00000    8    Basis=6-311G**
H         -1.147812       -1.888743       -2.551819
H         -1.060310       -3.198611       -1.715489
H          1.091302       -2.228382       -1.893131
H          2.241396       -2.232929       -0.787936
H         -0.744689        1.706804       -2.527469
H         -0.793488        1.236074       -0.996442
H          2.970218        1.207326        0.049310
H          3.009100       -0.031817        0.999851
   0.00000    1    Basis=diffs
X          0.000000        0.000000        0.000000


       *******************************************************************
       *********** Output from DALTON general input processing ***********
       *******************************************************************

 --------------------------------------------------------------------------------
   Overall default print level:    0
   Print level for DALTON.STAT:    1

    HERMIT 1- and 2-electron integral sections will be executed
    "Old" integral transformation used (limited to max 255 basis functions)
    Wave function sections will be executed (SIRIUS module)
 --------------------------------------------------------------------------------


 Changes of defaults for *QMMM  :
 --------------------------------

 +------------------+
 |  WORD: | CHANGE: |
 +------------------+
 |   QMMM |       T |
 +------------------+
 


   ****************************************************************************
   *************** Output of molecule and basis set information ***************
   ****************************************************************************


    The two title cards from your ".mol" input:
    ------------------------------------------------------------------------
 1:                                                                         
 2:                                                                         
    ------------------------------------------------------------------------

  Coordinates are entered in Angstrom and converted to atomic units.
          - Conversion factor : 1 bohr = 0.52917721 A

  Atomic type no.    1
  --------------------
  Nuclear charge:   7.00000
  Number of symmetry independent centers:    1
  Number of basis sets to read;    2
  The basis set is "6-311G**" from the basis set library.
  Basis set file used for this atomic type with Z =   7 :
     "/zhome/9a/4/124800/source/dalton/build-mlcc/basis/6-311G**"

  Info about the basis set file: your basis has no documentation.
  Basis set: 6-311G**                                                                        

  Atomic type no.    2
  --------------------
  Nuclear charge:   1.00000
  Number of symmetry independent centers:    3
  Number of basis sets to read;    2
  The basis set is "6-311G**" from the basis set library.
  Basis set file used for this atomic type with Z =   1 :
     "/zhome/9a/4/124800/source/dalton/build-mlcc/basis/6-311G**"

  Info about the basis set file: your basis has no documentation.
  Basis set: 6-311G**                                                                        

  Atomic type no.    3
  --------------------
  Nuclear charge:   8.00000
  Number of symmetry independent centers:    4
  Number of basis sets to read;    2
  The basis set is "6-311G**" from the basis set library.
  Basis set file used for this atomic type with Z =   8 :
     "/zhome/9a/4/124800/source/dalton/build-mlcc/basis/6-311G**"

  Info about the basis set file: your basis has no documentation.
  Basis set: 6-311G**                                                                        

  Atomic type no.    4
  --------------------
  Nuclear charge:   1.00000
  Number of symmetry independent centers:    8
  Number of basis sets to read;    2
  The basis set is "6-311G**" from the basis set library.
  Basis set file used for this atomic type with Z =   1 :
     "/zhome/9a/4/124800/source/dalton/build-mlcc/basis/6-311G**"

  Info about the basis set file: your basis has no documentation.
  Basis set: 6-311G**                                                                        

  Atomic type no.    5
  --------------------
  Nuclear charge:   0.00000
  Number of symmetry independent centers:    1
  Number of basis sets to read;    2
  The basis set is "diffs" from the basis set library.
  Basis set file used for this atomic type with Z =   0 :
     "/zhome/9a/4/124800/source/dalton/build-mlcc/basis/diffs"

  Info about the basis set file: your basis has no documentation.
  Basis set: diffs                                                                           


                         SYMGRP: Point group information
                         -------------------------------

@    Point group: C1 


                                 Isotopic Masses
                                 ---------------

                           N          14.003074
                           H           1.007825
                           H           1.007825
                           H           1.007825
                           O          15.994915
                           O          15.994915
                           O          15.994915
                           O          15.994915
                           H           1.007825
                           H           1.007825
                           H           1.007825
                           H           1.007825
                           H           1.007825
                           H           1.007825
                           H           1.007825
                           H           1.007825

                       Total mass:    89.068809 amu
                       Natural abundance:  98.514 %

 Center-of-mass coordinates (a.u.):    1.216064   -0.895193   -1.953476


  Atoms and basis sets
  --------------------

  Number of atom types :    5
  Total number of atoms:   17

  label    atoms   charge   prim   cont     basis
  ----------------------------------------------------------------------
  N           1    7.0000    31    18      [11s5p1d|4s3p1d]                                   
  H           3    1.0000     8     6      [5s1p|3s1p]                                        
  O           4    8.0000    31    18      [11s5p1d|4s3p1d]                                   
  H           8    1.0000     8     6      [5s1p|3s1p]                                        
  X           1    0.0000     1     1      [1s|1s]                                            
  ----------------------------------------------------------------------
  total:     17   50.0000   244   157
  ----------------------------------------------------------------------
  Spherical harmonic basis used.

  Threshold for neglecting AO integrals:  1.00D-12


  Cartesian Coordinates (a.u.)
  ----------------------------

  Total number of coordinates:   51
  N       :     1  x   0.0000000000    2  y   0.0000000000    3  z   0.0000000000
  H       :     4  x   0.8026460538    5  y   0.3589818233    6  z   1.6964676136
  H       :     7  x  -0.6511070261    8  y  -1.8497244024    9  z   0.1186370061
  H       :    10  x   1.5277075118   11  y  -0.0321801462   12  z  -1.2619817830
  O       :    13  x  -1.3523447068   14  y  -4.3067500895   15  z  -3.4037217840
  O       :    16  x   3.9190047449   17  y  -3.9496409848   18  z  -3.2868932458
  O       :    19  x  -2.3424119080   20  y   3.6377379084   21  z  -3.1185564426
  O       :    22  x   5.7789752423   23  y   0.3762501407   24  z   0.0182604235
  H       :    25  x  -2.1690503230   26  y  -3.5692069905   27  z  -4.8222390306
  H       :    28  x  -2.0036955076   29  y  -6.0444987704   30  z  -3.2418043804
  H       :    31  x   2.0622618997   32  y  -4.2110316819   33  z  -3.5774991087
  H       :    34  x   4.2356245777   35  y  -4.2196242666   36  z  -1.4889832440
  H       :    37  x  -1.4072582583   38  y   3.2253921090   39  z  -4.7762241994
  H       :    40  x  -1.4994750035   41  y   2.3358413302   42  z  -1.8830024794
  H       :    43  x   5.6128985515   44  y   2.2815154836   45  z   0.0931823952
  H       :    46  x   5.6863748827   47  y  -0.0601254161   48  z   1.8894445558
  X       :    49  x   0.0000000000   50  y   0.0000000000   51  z   0.0000000000

  Max    interatomic separation is    6.2267 Angstrom (   11.7668 Bohr)
  between atoms   15 and   10, "H     " and "H     ".

  Min HX interatomic separation is    0.9500 Angstrom (    1.7953 Bohr)

  Min YX interatomic separation is    2.7966 Angstrom (    5.2847 Bohr)


  Bond distances (Angstrom):
  --------------------------

                  atom 1     atom 2       distance
                  ------     ------       --------
  bond distance:  H          N            1.011145
  bond distance:  H          N            1.039600
  bond distance:  H          N            1.048722
  bond distance:  H          O            0.950042
  bond distance:  H          O            0.985783
  bond distance:  H          O            1.004081
  bond distance:  H          O            0.976561
  bond distance:  H          O            1.030525
  bond distance:  H          O            1.049329
  bond distance:  H          O            1.012822
  bond distance:  H          O            1.017938


  Bond angles (degrees):
  ----------------------

                  atom 1     atom 2     atom 3         angle
                  ------     ------     ------         -----
  bond angle:     H          N          H            105.218
  bond angle:     H          N          H            104.158
  bond angle:     H          N          H            106.180
  bond angle:     H          O          H            107.028
  bond angle:     H          O          H            107.274
  bond angle:     H          O          H            100.792
  bond angle:     H          O          H            100.578




 Principal moments of inertia (u*A**2) and principal axes
 --------------------------------------------------------

   IA     256.490460          0.832333   -0.535681    0.142367
   IB     319.672450          0.444437    0.798483    0.406079
   IC     501.934523         -0.331206   -0.274719    0.902680


 Rotational constants
 --------------------

               A                   B                   C

           1970.3618           1580.9276           1006.8624 MHz
            0.065724            0.052734            0.033585 cm-1


@  Nuclear repulsion energy :  196.815655159997 Hartree

  Number of floating/multiple basis set orbitals :    1


                     .---------------------------------------.
                     | Starting in Integral Section (HERMIT) |
                     `---------------------------------------'



 ***************************************************************************************
 ****************** Output from **INTEGRALS input processing (HERMIT) ******************
 ***************************************************************************************



    *************************************************************************
    ****************** Output from HERMIT input processing ******************
    *************************************************************************


 Default print level:        1

 * Nuclear model: Point charge

 Calculation of one- and two-electron Hamiltonian integrals.

 The following one-electron property integrals are calculated as requested:
          - overlap integrals
          - dipole length integrals

 Center of mass  (bohr):      1.216064491020     -0.895192745694     -1.953476274998
 Operator center (bohr):      0.000000000000      0.000000000000      0.000000000000
 Gauge origin    (bohr):      0.000000000000      0.000000000000      0.000000000000
 Dipole origin   (bohr):      0.000000000000      0.000000000000      0.000000000000
 
  *********************************** 
  QMMM electrostatic potential: 
  Multipole order                                    0
  Isotropic polarization  
  *********************************** 
 
  ---------------- 
  QMMM information 
  ---------------- 
 
  MM coordinates in au 
  -------------------- 
     1      7.465131      7.447373     -9.368739
     2      8.107874      6.240856    -10.669953
     3      5.771290      8.051284     -9.858915
     4     -9.001467     -8.968529      5.824799
     5     -7.531333    -10.047549      6.277392
     6     -9.207103     -7.873028      7.325650
     7     -9.736181     -6.045240     10.014023
     8     -9.792837     -6.625505     11.764770
     9    -11.491655     -5.476844      9.814081
    10      9.986220      5.703178     10.360429
    11     11.782864      6.393029     10.492992
    12     10.261105      4.366239      9.100653
    13     -5.923621     -1.240830      2.628057
    14     -7.422224     -0.923488      3.693634
    15     -6.168221     -0.590851      0.883655
    16      7.969627      4.792410     -4.651104
    17      7.498388      6.237457     -3.613924
    18      7.654487      5.546768     -6.362855
    19     -2.046747     -9.008632     -8.579529
    20     -3.915894     -8.738776     -8.334951
    21     -1.808712    -10.172207    -10.063513
    22      6.049130     -8.315634    -10.569966
    23      6.345817     -8.558451     -8.728254
    24      4.665883     -7.108475    -10.811889
    25    -11.328509      2.735932     -3.634287
    26    -12.988645      3.746972     -4.047351
    27    -11.033948      2.089311     -5.465685
    28     -7.636328     -2.997913     -5.554939
    29     -6.961626     -1.842200     -4.107520
    30     -9.062182     -3.843408     -4.733668
    31     -4.473123     -8.523674     -3.147105
    32     -3.328171     -9.929640     -2.789495
    33     -5.004928     -7.895060     -1.470745
    34     -8.096169      2.658971     10.855670
    35     -6.939354      3.961966     11.521031
    36     -8.278357      2.861140      9.055564
    37     11.177161     -0.687705     -0.303475
    38     11.516033      0.608981     -1.427552
    39      9.414693     -0.884938     -0.298582
    40     11.303265      7.223079      1.944332
    41     10.543077      8.696299      2.642859
    42     12.354801      7.589768      0.371269
    43      4.561814      4.881809      5.955096
    44      5.731343      4.814365      4.472492
    45      5.118684      3.457927      6.993117
    46     -2.163094     -2.002237     -9.141355
    47     -0.926652     -3.178943     -9.887589
    48     -3.687814     -2.284142    -10.319515
    49     -8.932709      9.426441     11.486048
    50     -7.761460      8.706758     12.808503
    51    -10.324037     10.174482     12.516875
    52     -9.833507      5.239519      6.247395
    53    -10.751015      6.220408      4.853733
    54     -8.180492      5.983833      5.874336
    55      8.963275     -4.803943     10.466097
    56      8.369516     -3.118967     11.218404
    57      8.470790     -5.905311     11.924191
    58     -1.770724    -11.166276      9.759200
    59     -0.423293    -11.920334      8.628474
    60     -1.826269     -9.456588      9.326267
    61      7.406993     10.193865      8.678320
    62      8.541052      8.693369      8.983293
    63      7.936757     11.211482     10.086483
    64     -0.781235      6.725248    -11.132061
    65      0.641895      7.967620    -11.101395
    66     -0.315203      5.102232    -10.147826
    67      5.388679     -8.368646     -5.233829
    68      4.816653     -6.689525     -4.442506
    69      6.380929     -9.292001     -3.994577
    70      4.067732     10.175731      1.737938
    71      2.578913     10.400862      0.609675
    72      3.637024     10.868816      3.433304
    73      1.417228     -5.709726    -11.064277
    74      0.595542     -7.021357    -10.026673
    75      0.582926     -5.950305    -12.777997
    76     -6.077718      6.169122     -8.515920
    77     -5.411794      5.230683     -7.029806
    78     -4.440862      6.630287     -9.328546
    79     -6.498953      0.956583     -2.130551
    80     -8.068779      1.908801     -2.479024
    81     -4.954941      1.977476     -2.592929
    82      4.319929     -5.411136      2.384936
    83      5.070987     -3.923013      3.334751
    84      5.861772     -6.364227      1.702509
    85      3.044780      9.989253    -10.502486
    86      2.562240     10.258271     -8.747606
    87      3.862757     11.600564    -10.961583
    88      5.662963     -1.156802      4.848111
    89      7.158800     -0.530603      5.857038
    90      4.130342     -0.848738      6.095489
    91     -0.005622      2.653066     -7.670701
    92     -0.694083      1.078888     -8.389632
    93      1.575376      2.056515     -6.924348
    94    -11.695320    -11.126532     -4.292018
    95    -11.240571     -9.458491     -3.477130
    96    -10.630320    -12.421657     -3.521650
    97      6.447698      5.435931      1.328164
    98      5.796208      7.143063      1.488439
    99      8.302181      5.773091      1.456705
   100      1.385339     11.716642     -5.679642
   101      0.022127     12.679246     -6.458827
   102      2.534778     13.065326     -5.426483
   103     -5.700890     -2.942672     10.109865
   104     -7.416325     -3.529819      9.977714
   105     -5.389168     -1.566865      8.904229
   106    -10.440319      0.701081     -8.298392
   107     -9.812307      1.650749     -9.929553
   108     -9.109476     -0.545611     -7.675733
   109     -0.701170     -6.848772      3.519904
   110      1.025632     -6.397095      3.150812
   111     -1.142194     -8.387489      2.593284
   112      2.219546     -1.404815      7.967563
   113      0.405516     -1.185824      7.547415
   114      2.536712     -2.971647      8.985765
   115     -7.144554     -7.939219     -8.121690
   116     -6.731119     -6.354952     -7.153020
   117     -7.714240     -9.091561     -6.637689
   118     -9.142814      8.026066     -2.233259
   119     -9.466262      6.711425     -3.489859
   120     -7.331366      7.967159     -1.840926
   121      8.155274     -8.361721      0.634971
   122      9.529210     -7.482267     -0.102259
   123      8.692033     -9.732301      1.686932
   124     -0.518520    -11.610139     -1.004735
   125     -1.508308    -13.205024     -1.046967
   126      0.500350    -11.556312     -2.605832
   127      7.284441     10.077807     -2.784498
   128      6.631690     10.331051     -1.085736
   129      9.061910     10.772108     -2.840767
   130     -3.957138      8.082362     -0.711115
   131     -3.287426      6.619062     -1.625686
   132     -4.139352      7.751430      1.144103
   133     -0.351315      4.743269      7.289547
   134     -0.368323      5.062733      9.066919
   135      1.186451      5.329810      6.447693
   136      9.806428     11.319378      3.870864
   137     11.298058     11.940492      4.802397
   138      8.428152     10.969083      5.074914
   139     -5.137852      6.959691      4.165332
   140     -3.892350      5.923256      5.135450
   141     -5.200649      8.467094      5.231620
   142      4.658498      0.621605     -5.838972
   143      4.697156     -0.867233     -4.660225
   144      5.207052      2.170915     -4.850642
   145    -10.800847      0.245438      4.309930
   146    -10.511740      2.047197      4.448990
   147    -11.105165     -0.020392      2.528038
   148     10.776377     11.270650     -9.068979
   149     11.016209     12.134801     -7.390156
   150      9.298220     10.000508     -8.830118
   151     -7.520435     -6.288759      1.315656
   152     -6.633978     -4.745270      1.859139
   153     -7.739118     -7.187246      3.022785
   154      8.372186     -0.233039    -10.216048
   155      9.833196     -0.365350     -9.193922
   156      7.057239      0.219121     -8.881320
   157      9.100562      1.236000      8.171898
   158     10.612156      0.260349      7.671353
   159      8.800853      1.112053     10.047725
   160     -1.855872     -6.257709      8.477491
   161     -3.495243     -5.391209      8.732653
   162     -1.374337     -6.079999      6.640768
   163     -6.133495     10.784306      7.516813
   164     -7.349580     10.430003      8.813552
   165     -4.607765     11.490347      8.324616
   166     -2.574073      0.203612      6.582967
   167     -2.102118      1.983033      6.672455
   168     -3.058255     -0.035417      4.858586
   169      2.644872     11.426603      6.536410
   170      3.120597     13.249620      6.846861
   171      3.993468     10.578371      7.527129
   172      4.775757     -7.138601      7.284184
   173      4.795242     -6.576831      5.525451
   174      6.483078     -6.919623      7.976247
   175    -11.647272     -5.538721     -2.022287
   176    -10.164238     -6.021843     -0.810318
   177    -12.035518     -3.841870     -1.434871
 
  MM charges 
  ---------- 
     1     -0.674440
     2      0.337220
     3      0.337220
     4     -0.674440
     5      0.337220
     6      0.337220
     7     -0.674440
     8      0.337220
     9      0.337220
    10     -0.674440
    11      0.337220
    12      0.337220
    13     -0.674440
    14      0.337220
    15      0.337220
    16     -0.674440
    17      0.337220
    18      0.337220
    19     -0.674440
    20      0.337220
    21      0.337220
    22     -0.674440
    23      0.337220
    24      0.337220
    25     -0.674440
    26      0.337220
    27      0.337220
    28     -0.674440
    29      0.337220
    30      0.337220
    31     -0.674440
    32      0.337220
    33      0.337220
    34     -0.674440
    35      0.337220
    36      0.337220
    37     -0.674440
    38      0.337220
    39      0.337220
    40     -0.674440
    41      0.337220
    42      0.337220
    43     -0.674440
    44      0.337220
    45      0.337220
    46     -0.674440
    47      0.337220
    48      0.337220
    49     -0.674440
    50      0.337220
    51      0.337220
    52     -0.674440
    53      0.337220
    54      0.337220
    55     -0.674440
    56      0.337220
    57      0.337220
    58     -0.674440
    59      0.337220
    60      0.337220
    61     -0.674440
    62      0.337220
    63      0.337220
    64     -0.674440
    65      0.337220
    66      0.337220
    67     -0.674440
    68      0.337220
    69      0.337220
    70     -0.674440
    71      0.337220
    72      0.337220
    73     -0.674440
    74      0.337220
    75      0.337220
    76     -0.674440
    77      0.337220
    78      0.337220
    79     -0.674440
    80      0.337220
    81      0.337220
    82     -0.674440
    83      0.337220
    84      0.337220
    85     -0.674440
    86      0.337220
    87      0.337220
    88     -0.674440
    89      0.337220
    90      0.337220
    91     -0.674440
    92      0.337220
    93      0.337220
    94     -0.674440
    95      0.337220
    96      0.337220
    97     -0.674440
    98      0.337220
    99      0.337220
   100     -0.674440
   101      0.337220
   102      0.337220
   103     -0.674440
   104      0.337220
   105      0.337220
   106     -0.674440
   107      0.337220
   108      0.337220
   109     -0.674440
   110      0.337220
   111      0.337220
   112     -0.674440
   113      0.337220
   114      0.337220
   115     -0.674440
   116      0.337220
   117      0.337220
   118     -0.674440
   119      0.337220
   120      0.337220
   121     -0.674440
   122      0.337220
   123      0.337220
   124     -0.674440
   125      0.337220
   126      0.337220
   127     -0.674440
   128      0.337220
   129      0.337220
   130     -0.674440
   131      0.337220
   132      0.337220
   133     -0.674440
   134      0.337220
   135      0.337220
   136     -0.674440
   137      0.337220
   138      0.337220
   139     -0.674440
   140      0.337220
   141      0.337220
   142     -0.674440
   143      0.337220
   144      0.337220
   145     -0.674440
   146      0.337220
   147      0.337220
   148     -0.674440
   149      0.337220
   150      0.337220
   151     -0.674440
   152      0.337220
   153      0.337220
   154     -0.674440
   155      0.337220
   156      0.337220
   157     -0.674440
   158      0.337220
   159      0.337220
   160     -0.674440
   161      0.337220
   162      0.337220
   163     -0.674440
   164      0.337220
   165      0.337220
   166     -0.674440
   167      0.337220
   168      0.337220
   169     -0.674440
   170      0.337220
   171      0.337220
   172     -0.674440
   173      0.337220
   174      0.337220
   175     -0.674440
   176      0.337220
   177      0.337220
 
  MM isotropic polarizabilities in au 
  ----------------------------------- 
     1      5.739350
     2      2.308390
     3      2.308390
     4      5.739350
     5      2.308390
     6      2.308390
     7      5.739350
     8      2.308390
     9      2.308390
    10      5.739350
    11      2.308390
    12      2.308390
    13      5.739350
    14      2.308390
    15      2.308390
    16      5.739350
    17      2.308390
    18      2.308390
    19      5.739350
    20      2.308390
    21      2.308390
    22      5.739350
    23      2.308390
    24      2.308390
    25      5.739350
    26      2.308390
    27      2.308390
    28      5.739350
    29      2.308390
    30      2.308390
    31      5.739350
    32      2.308390
    33      2.308390
    34      5.739350
    35      2.308390
    36      2.308390
    37      5.739350
    38      2.308390
    39      2.308390
    40      5.739350
    41      2.308390
    42      2.308390
    43      5.739350
    44      2.308390
    45      2.308390
    46      5.739350
    47      2.308390
    48      2.308390
    49      5.739350
    50      2.308390
    51      2.308390
    52      5.739350
    53      2.308390
    54      2.308390
    55      5.739350
    56      2.308390
    57      2.308390
    58      5.739350
    59      2.308390
    60      2.308390
    61      5.739350
    62      2.308390
    63      2.308390
    64      5.739350
    65      2.308390
    66      2.308390
    67      5.739350
    68      2.308390
    69      2.308390
    70      5.739350
    71      2.308390
    72      2.308390
    73      5.739350
    74      2.308390
    75      2.308390
    76      5.739350
    77      2.308390
    78      2.308390
    79      5.739350
    80      2.308390
    81      2.308390
    82      5.739350
    83      2.308390
    84      2.308390
    85      5.739350
    86      2.308390
    87      2.308390
    88      5.739350
    89      2.308390
    90      2.308390
    91      5.739350
    92      2.308390
    93      2.308390
    94      5.739350
    95      2.308390
    96      2.308390
    97      5.739350
    98      2.308390
    99      2.308390
   100      5.739350
   101      2.308390
   102      2.308390
   103      5.739350
   104      2.308390
   105      2.308390
   106      5.739350
   107      2.308390
   108      2.308390
   109      5.739350
   110      2.308390
   111      2.308390
   112      5.739350
   113      2.308390
   114      2.308390
   115      5.739350
   116      2.308390
   117      2.308390
   118      5.739350
   119      2.308390
   120      2.308390
   121      5.739350
   122      2.308390
   123      2.308390
   124      5.739350
   125      2.308390
   126      2.308390
   127      5.739350
   128      2.308390
   129      2.308390
   130      5.739350
   131      2.308390
   132      2.308390
   133      5.739350
   134      2.308390
   135      2.308390
   136      5.739350
   137      2.308390
   138      2.308390
   139      5.739350
   140      2.308390
   141      2.308390
   142      5.739350
   143      2.308390
   144      2.308390
   145      5.739350
   146      2.308390
   147      2.308390
   148      5.739350
   149      2.308390
   150      2.308390
   151      5.739350
   152      2.308390
   153      2.308390
   154      5.739350
   155      2.308390
   156      2.308390
   157      5.739350
   158      2.308390
   159      2.308390
   160      5.739350
   161      2.308390
   162      2.308390
   163      5.739350
   164      2.308390
   165      2.308390
   166      5.739350
   167      2.308390
   168      2.308390
   169      5.739350
   170      2.308390
   171      2.308390
   172      5.739350
   173      2.308390
   174      2.308390
   175      5.739350
   176      2.308390
   177      2.308390


     ************************************************************************
     ************************** Output from HERINT **************************
     ************************************************************************



                      Nuclear contribution to dipole moments
                      --------------------------------------

                 au               Debye          C m (/(10**-30)

      x     60.22271434       153.07086181       510.58943520
      y    -45.72388513      -116.21851620      -387.66324203
      z    -95.58129105      -242.94339360      -810.37193271



 Threshold for neglecting two-electron integrals:  1.00D-12
 HERMIT - Number of two-electron integrals written:    36716832 ( 47.7% )
 HERMIT - Megabytes written:                            420.426

  Time used in TWOINT     is       7.25 seconds
  Total CPU  time used in HERMIT:   7.44 seconds
  Total wall time used in HERMIT:  33.21 seconds


                        .----------------------------------.
                        | End of Integral Section (HERMIT) |
                        `----------------------------------'



                   .--------------------------------------------.
                   | Starting in Wave Function Section (SIRIUS) |
                   `--------------------------------------------'

NCCEXCI for singlet:    1
 CCSD_INPUT: core-val requested
 Requested number of virtual orbs per sym
                     1
 Indices of requested virtual orbs
                     1
 CCSD_INPUT: core-val requested
 Requested number of core orbs per sym
                     1
 Indices of requested core orbs
                     1

 *** Output from Huckel module :

     Using EWMO model:          T
     Using EHT  model:          F
     Number of Huckel orbitals each symmetry:   36

 EWMO - Energy Weighted Maximum Overlap - is a Huckel type method,
        which normally is better than Extended Huckel Theory.
 Reference: Linderberg and Ohrn, Propagators in Quantum Chemistry (Wiley, 1973)

 Huckel EWMO eigenvalues for symmetry :  1
          -20.685492     -20.684274     -20.683850     -20.683780     -15.673562
           -1.756735      -1.630430      -1.582998      -1.527685      -1.443734
           -0.818529      -0.798678      -0.784626      -0.766664      -0.753785
           -0.738634      -0.705411      -0.693862      -0.666504      -0.637620
           -0.614670      -0.604422      -0.596527      -0.582159      -0.515672
           -0.266090      -0.244443      -0.239450      -0.212352      -0.189985
           -0.187304      -0.170941      -0.166759      -0.164897      -0.153482
           -0.149792

 **********************************************************************
 *SIRIUS* a direct, restricted step, second order MCSCF program       *
 **********************************************************************

 
     Date and time (Linux)  : Thu Nov 29 11:16:30 2018
     Host name              : n-62-29-8                               

 Title lines from ".mol" input file:
                                                                             
                                                                             

 Print level on unit LUPRI =   2 is   0
 Print level on unit LUW4  =   2 is  11

@    (Integral direct) CC calculation.

@    This is a combination run starting with
@              a restricted, closed shell Hartree-Fock calculation


 Initial molecular orbitals are obtained according to
 ".MOSTART EWMO  " input option

@    QM part is embedded in an environment :

@         Model: QMMM

     Wave function specification
     ============================

     For the specification of the Coupled Cluster: see later.

@    Wave function type        --- CC ---
@    Number of closed shell electrons          50
@    Number of electrons in active shells       0
@    Total charge of the molecule               0

@    Spin multiplicity and 2 M_S                1         0
@    Total number of symmetries                 1 (point group: C1 )
@    Reference state symmetry                   1 (irrep name : A  )

     Orbital specifications
     ======================
@    Abelian symmetry species          All |    1
@                                          |  A  
                                       --- |  ---
@    Occupied SCF orbitals              25 |   25
@    Secondary orbitals                132 |  132
@    Total number of orbitals          157 |  157
@    Number of basis functions         157 |  157

     Optimization information
     ========================
@    Number of configurations                 1
@    Number of orbital rotations           3300
     ------------------------------------------
@    Total number of variables             3301

     Maximum number of Fock   iterations      0
     Maximum number of DIIS   iterations     60
     Maximum number of QC-SCF iterations     60
     Threshold for SCF convergence     1.00D-07


 Changes of defaults for CC:
 ---------------------------


 -Implicit frozen core calculation
 -Excitation energies calculated
 -One-photon absorption strengths will be calculated
 -Oscillator strengths calculated
  
* Read MO coefficients from SIRIUS.RST with label "NEWORB  " and header info: 29Nov18  REORTHO 


 ***********************************************
 ***** DIIS acceleration of SCF iterations *****
 ***********************************************

 C1-DIIS algorithm; max error vectors =    8
 -----------------------------------------------------------------------------

 *** DIIS iteration number    1
 RDSUPM called. NFMAT, ISYMDM(1:NFMAT)                     1
                     1

Calculating AOSUPINT
     (Precalculated two-electron integrals are transformed to P-supermatrix elements.
      Threshold for discarding integrals :  1.00D-12 )
  CPU  time used in FORMSUP    is   5.55 seconds
  WALL time used in FORMSUP    is  3 minutes 59 seconds

 ITDIIS, energy, error norm, change in energy, scr.thr., difden:
@ DIIS iter.   1    -359.905260697        3.79823D+00   -3.60D+02  -20    F

 (DIIS_RED) Control Parameters C2DIIS =         F NEVC =    1


 (DIIS_RED) B matrix:

               Column   1
       1      14.42655941
    ==== End of matrix output ====

 DIIS C vector; C2DIIS = F, LAMBDA = -1.44D+01
    1.000000
* Read MO coefficients from SIRIUS.RST with label "NEWORB  " and header info: 29Nov18  DIIS   1
      Virial theorem: -V/T =      1.997758
@      MULPOP N      -0.35; H       0.16; H       0.15; H       0.16; O      -0.52; O      -0.75; O      -0.84; O      -0.62; H       0.32; H       0.31; 
@             H       0.34; H       0.32; H       0.32; H       0.33; H       0.32; H       0.33; 
   1  Level shift: doubly occupied orbital energies shifted by -2.00D-01

 DIIS Fock eigenvalues in symmetry 1
      -20.77559      -20.67288      -20.63066      -20.52286      -15.97223
       -1.57718       -1.51030       -1.49935       -1.43872       -1.42344
       -0.96034       -0.93127       -0.92247       -0.90947       -0.86855
       -0.83842       -0.81294       -0.77380       -0.75645       -0.74732
       -0.73571       -0.71889       -0.70696       -0.68370       -0.65165
        0.00000        0.11317        0.16022        0.19396        0.20801
        0.22702        0.24115        0.26588        0.27808        0.30325
        0.34466        0.35945        0.43750        0.46011        0.51402
        0.53633        0.54471        0.56239        0.57182        0.61200
        0.61342        0.63194        0.65899        0.81896        0.84227
        0.87275        0.97058        0.97673        0.99324        1.01005
        1.06087        1.06445        1.06859        1.10435        1.11521
        1.12940        1.16620        1.18848        1.20035        1.27004
        1.32564        1.35439        1.37634        1.42243        1.43983
        1.45100        1.49342        1.50508        1.51188        1.53822
        1.54996        1.60257        1.62813        1.67196        1.67724
        1.70838        1.74262        1.76746        1.78440        1.84895
        1.87231        1.88375        1.90085        1.92641        1.97256
        2.05829        2.07692        2.17063        2.19910        2.26726
        2.29421        2.32373        2.32828        2.43400        2.46137
        2.47994        2.59447        2.60303        2.62709        2.66302
        2.69810        2.73909        2.76278        2.77219        2.82313
        2.84540        2.85960        2.86875        2.91817        3.01181
        3.29262        3.34126        3.40498        3.46115        3.47064
        3.47905        3.48481        3.50343        3.53233        3.53552
        3.64395        3.64621        3.67934        3.68690        3.96817
        3.98202        3.99919        4.02861        4.19418        4.22076
        4.22973        4.23900        4.48112        4.97166        5.01252
        5.36028        5.41855        5.42575        5.44412        5.72819
        5.78452        5.81949        5.84851        6.01452        6.11305
        6.11761        6.20255       36.77705       51.52134       51.56957
       51.67245       51.74643
 Time used in FCKEIG, thr_jaco:   4.60D-02  7.80D-02  1.65D-04
 CPU and wall times used in FCKEIG, THR_FCKEIG:   4.60D-02  7.80D-02  3.80D-02
 -----------------------------------------------------------------------------

 *** DIIS iteration number    2
 RDSUPM called. NFMAT, ISYMDM(1:NFMAT)                     1
                     1

 ITDIIS, energy, error norm, change in energy, scr.thr., difden:
@ DIIS iter.   2    -360.692131617        9.47567D-01   -7.87D-01  -20    F

 (DIIS_RED) Control Parameters C2DIIS =         F NEVC =    2


 (DIIS_RED) B matrix:

               Column   1     Column   2
       1      14.42655941
       2       0.78032039     0.89788329
    ==== End of matrix output ====

 DIIS C vector; C2DIIS = F, LAMBDA = -8.97D-01
    0.008541    0.991459
* Read MO coefficients from SIRIUS.RST with label "NEWORB  " and header info: 29Nov18  DIIS   2
      Virial theorem: -V/T =      2.004986
@      MULPOP N      -0.65; H       0.21; H       0.24; H       0.22; O      -0.53; O      -0.62; O      -0.69; O      -0.57; H       0.29; H       0.30; 
@             H       0.31; H       0.26; H       0.29; H       0.32; H       0.29; H       0.31; 
   2  Level shift: doubly occupied orbital energies shifted by -5.00D-02

 DIIS Fock eigenvalues in symmetry 1
      -20.67458      -20.65356      -20.61009      -20.59161      -15.47658
       -1.39607       -1.37969       -1.36218       -1.34891       -1.13931
       -0.76336       -0.75443       -0.71196       -0.69862       -0.66303
       -0.64856       -0.63958       -0.62630       -0.60956       -0.60226
       -0.58548       -0.57299       -0.55533       -0.54545       -0.45130
        0.00000        0.15931        0.20061        0.21263        0.24221
        0.25681        0.27613        0.30327        0.30741        0.33403
        0.36557        0.37199        0.49549        0.52105        0.55364
        0.56515        0.58852        0.59815        0.62117        0.63471
        0.65531        0.66638        0.73308        0.88811        0.91498
        0.94176        0.97487        0.99568        1.02214        1.03995
        1.07596        1.09316        1.11059        1.12580        1.13548
        1.14557        1.15846        1.18240        1.27920        1.32551
        1.36646        1.41407        1.42616        1.46331        1.46739
        1.51962        1.54015        1.55926        1.56747        1.57972
        1.59626        1.63036        1.64086        1.70842        1.72449
        1.75980        1.80266        1.83549        1.86365        1.91347
        1.94200        1.96335        1.96442        1.99062        2.04691
        2.17298        2.19972        2.22149        2.26030        2.27875
        2.32961        2.38509        2.40618        2.49004        2.52471
        2.57692        2.65720        2.66840        2.67323        2.75002
        2.78001        2.79928        2.82894        2.84364        2.89230
        2.90964        2.97882        3.01709        3.06026        3.14870
        3.41922        3.42414        3.44262        3.46273        3.47731
        3.48985        3.50400        3.51375        3.52971        3.54826
        3.61110        3.65921        3.66551        3.71976        3.92968
        3.99493        3.99773        4.03966        4.16807        4.20644
        4.23467        4.26943        4.65714        5.19303        5.22806
        5.28525        5.35114        5.41270        5.41653        5.66569
        5.68334        5.76609        5.89320        5.98954        6.01153
        6.15380        6.18584       37.11704       51.44971       51.48538
       51.48882       51.57283
 Time used in FCKEIG, thr_jaco:   3.60D-02  5.90D-02  4.12D-05
 CPU and wall times used in FCKEIG, THR_FCKEIG:   3.60D-02  5.90D-02  9.48D-03
 -----------------------------------------------------------------------------

 *** DIIS iteration number    3
 RDSUPM called. NFMAT, ISYMDM(1:NFMAT)                     1
                     1

 ITDIIS, energy, error norm, change in energy, scr.thr., difden:
@ DIIS iter.   3    -360.752173404        3.68725D-01   -6.00D-02  -20    F

 (DIIS_RED) Control Parameters C2DIIS =         F NEVC =    3


 (DIIS_RED) B matrix:

               Column   1     Column   2     Column   3
       1      14.42655941
       2       0.78032039     0.89788329
       3       0.68717102     0.02394538     0.13595848
    ==== End of matrix output ====

 DIIS C vector; C2DIIS = F, LAMBDA = -9.81D-02
   -0.043705    0.122704    0.921001
* Read MO coefficients from SIRIUS.RST with label "NEWORB  " and header info: 29Nov18  DIIS   3
      Virial theorem: -V/T =      2.002024
@      MULPOP N      -0.57; H       0.18; H       0.22; H       0.20; O      -0.56; O      -0.69; O      -0.79; O      -0.65; H       0.30; H       0.32; 
@             H       0.35; H       0.30; H       0.35; H       0.37; H       0.33; H       0.35; 
   3  Level shift: doubly occupied orbital energies shifted by -2.50D-02

 DIIS Fock eigenvalues in symmetry 1
      -20.56914      -20.54689      -20.53186      -20.50590      -15.57270
       -1.35892       -1.33642       -1.30377       -1.28973       -1.14748
       -0.72416       -0.71322       -0.65646       -0.65258       -0.64127
       -0.62648       -0.60518       -0.56992       -0.56804       -0.56343
       -0.52659       -0.51932       -0.49428       -0.49256       -0.44503
        0.00000        0.16376        0.20372        0.21833        0.24450
        0.26102        0.27791        0.30735        0.30938        0.33737
        0.37058        0.37875        0.50034        0.52144        0.56533
        0.57739        0.59640        0.60713        0.62565        0.64830
        0.66364        0.67550        0.73256        0.89531        0.91972
        0.94197        0.99973        1.01323        1.02196        1.04634
        1.09126        1.10653        1.11795        1.14175        1.15013
        1.15643        1.18091        1.19731        1.27616        1.33452
        1.37706        1.41841        1.43366        1.47533        1.47932
        1.52866        1.55332        1.56954        1.57949        1.59242
        1.60766        1.64927        1.65365        1.72116        1.73581
        1.77038        1.81350        1.83792        1.86928        1.92169
        1.94800        1.96944        1.97235        1.99625        2.05173
        2.16349        2.18948        2.23273        2.27263        2.29787
        2.34942        2.40069        2.41488        2.50492        2.54185
        2.57736        2.67018        2.67691        2.68314        2.75571
        2.78661        2.81058        2.83851        2.85125        2.90064
        2.91814        2.96869        2.99476        3.04179        3.13170
        3.42710        3.45221        3.48390        3.48517        3.49524
        3.51034        3.51904        3.52566        3.55044        3.55709
        3.66565        3.68740        3.69853        3.72974        3.98305
        4.02223        4.02570        4.05460        4.21863        4.24401
        4.26417        4.28053        4.60919        5.14385        5.18266
        5.37077        5.40043        5.42229        5.44791        5.71423
        5.76346        5.80255        5.90000        6.04678        6.07015
        6.19056        6.20507       36.99967       51.53784       51.54084
       51.59129       51.60134
 Time used in FCKEIG, thr_jaco:   2.90D-02  7.30D-02  1.60D-05
 CPU and wall times used in FCKEIG, THR_FCKEIG:   3.00D-02  7.30D-02  3.69D-03
 -----------------------------------------------------------------------------

 *** DIIS iteration number    4
 RDSUPM called. NFMAT, ISYMDM(1:NFMAT)                     1
                     1

 ITDIIS, energy, error norm, change in energy, scr.thr., difden:
@ DIIS iter.   4    -360.760763296        1.17049D-01   -8.59D-03  -20    F

 (DIIS_RED) Control Parameters C2DIIS =         F NEVC =    4


 (DIIS_RED) B matrix:

               Column   1     Column   2     Column   3     Column   4
       1      14.42655941
       2       0.78032039     0.89788329
       3       0.68717102     0.02394538     0.13595848
       4      -0.00870765     0.08616632    -0.01193517     0.01370039
    ==== End of matrix output ====

 DIIS C vector; C2DIIS = F, LAMBDA = -3.76D-03
   -0.000436   -0.091153    0.130326    0.961263
* Read MO coefficients from SIRIUS.RST with label "NEWORB  " and header info: 29Nov18  DIIS   4
      Virial theorem: -V/T =      2.003259
@      MULPOP N      -0.64; H       0.20; H       0.24; H       0.21; O      -0.58; O      -0.69; O      -0.78; O      -0.65; H       0.31; H       0.33; 
@             H       0.35; H       0.30; H       0.35; H       0.37; H       0.33; H       0.35; 
   4  Level shift: doubly occupied orbital energies shifted by -1.25D-02

 DIIS Fock eigenvalues in symmetry 1
      -20.55438      -20.55205      -20.53301      -20.53206      -15.53393
       -1.34732       -1.32939       -1.29666       -1.28967       -1.12673
       -0.71174       -0.70495       -0.64856       -0.64492       -0.62298
       -0.60955       -0.59272       -0.56419       -0.55688       -0.55353
       -0.51588       -0.50454       -0.48907       -0.48279       -0.42431
        0.00000        0.16358        0.20274        0.21751        0.24485
        0.25992        0.27804        0.30764        0.31022        0.33835
        0.37100        0.37943        0.50265        0.52411        0.56561
        0.57755        0.59624        0.60634        0.62545        0.64587
        0.66170        0.67407        0.73506        0.89764        0.92263
        0.94467        0.99882        1.01125        1.02392        1.04753
        1.09074        1.10564        1.11893        1.14031        1.14879
        1.15560        1.17620        1.19563        1.27916        1.33450
        1.37661        1.42065        1.43416        1.47561        1.47784
        1.52762        1.55216        1.56862        1.57684        1.59041
        1.60626        1.64609        1.65245        1.71960        1.73490
        1.76921        1.81296        1.83990        1.87107        1.92179
        1.94866        1.97001        1.97128        1.99755        2.05321
        2.16965        2.19538        2.22998        2.27069        2.29242
        2.34590        2.39685        2.41384        2.50343        2.54118
        2.58119        2.66898        2.67574        2.68197        2.75777
        2.78729        2.81022        2.83834        2.85026        2.90000
        2.91739        2.97503        3.00368        3.04970        3.13854
        3.43412        3.45018        3.47336        3.49261        3.49322
        3.50450        3.51544        3.52148        3.54773        3.55761
        3.65458        3.68357        3.69488        3.73047        3.97191
        4.01820        4.02317        4.05337        4.20909        4.23954
        4.26018        4.28129        4.62225        5.15772        5.19594
        5.35021        5.39253        5.42308        5.44146        5.70629
        5.74450        5.79573        5.90139        6.03939        6.05074
        6.18975        6.19822       37.02554       51.52453       51.53476
       51.55489       51.59096
 Time used in FCKEIG, thr_jaco:   2.80D-02  6.60D-02  5.09D-06
 CPU and wall times used in FCKEIG, THR_FCKEIG:   2.80D-02  6.60D-02  1.17D-03
 -----------------------------------------------------------------------------

 *** DIIS iteration number    5
 RDSUPM called. NFMAT, ISYMDM(1:NFMAT)                     1
                     1

 ITDIIS, energy, error norm, change in energy, scr.thr., difden:
@ DIIS iter.   5    -360.761898394        2.37790D-02   -1.14D-03  -20    F

 (DIIS_RED) Control Parameters C2DIIS =         F NEVC =    5


 (DIIS_RED) B matrix:

               Column   1     Column   2     Column   3     Column   4     Column   5
       1      14.42655941
       2       0.78032039     0.89788329
       3       0.68717102     0.02394538     0.13595848
       4      -0.00870765     0.08616632    -0.01193517     0.01370039
       5       0.01136522     0.00605989     0.00472502     0.00087980     0.00056544
    ==== End of matrix output ====

 DIIS C vector; C2DIIS = F, LAMBDA = -3.15D-04
    0.001549    0.007161   -0.062072   -0.152551    1.205913
* Read MO coefficients from SIRIUS.RST with label "NEWORB  " and header info: 29Nov18  DIIS   5
      Virial theorem: -V/T =      2.002850
@      MULPOP N      -0.63; H       0.19; H       0.24; H       0.21; O      -0.59; O      -0.70; O      -0.80; O      -0.67; H       0.32; H       0.33; 
@             H       0.36; H       0.31; H       0.36; H       0.37; H       0.33; H       0.36; 

 DIIS Fock eigenvalues in symmetry 1
      -20.54292      -20.53936      -20.51871      -20.51369      -15.51693
       -1.33535       -1.31684       -1.28347       -1.27505       -1.11304
       -0.70023       -0.69285       -0.63510       -0.63201       -0.61015
       -0.59614       -0.58028       -0.55037       -0.54461       -0.54107
       -0.50227       -0.49197       -0.47363       -0.46872       -0.41021
        0.00000        0.16336        0.20234        0.21740        0.24483
        0.25966        0.27779        0.30754        0.31027        0.33855
        0.37099        0.37978        0.50293        0.52409        0.56566
        0.57760        0.59622        0.60619        0.62492        0.64593
        0.66139        0.67371        0.73534        0.89834        0.92345
        0.94533        0.99970        1.01242        1.02450        1.04823
        1.09155        1.10576        1.11880        1.14042        1.14859
        1.15579        1.17688        1.19558        1.27944        1.33495
        1.37664        1.42109        1.43412        1.47583        1.47799
        1.52671        1.55176        1.56868        1.57652        1.59030
        1.60585        1.64683        1.65225        1.71961        1.73471
        1.76898        1.81239        1.84011        1.87097        1.92132
        1.94865        1.96961        1.97096        1.99753        2.05316
        2.17015        2.19593        2.22971        2.26985        2.29232
        2.34543        2.39668        2.41282        2.50275        2.54174
        2.58157        2.66852        2.67533        2.68150        2.75766
        2.78705        2.80969        2.83786        2.84928        2.89948
        2.91694        2.97562        3.00463        3.05066        3.13933
        3.43532        3.45022        3.47546        3.49255        3.49465
        3.50570        3.51604        3.52252        3.54783        3.55682
        3.65662        3.68410        3.69485        3.72976        3.97407
        4.01875        4.02288        4.05277        4.21125        4.23958
        4.26081        4.28055        4.62447        5.15973        5.19786
        5.35384        5.39288        5.42247        5.44272        5.70636
        5.74768        5.79665        5.90052        6.04013        6.05373
        6.18899        6.19780       37.02994       51.52634       51.53436
       51.56051       51.59063
 Time used in FCKEIG, thr_jaco:   2.50D-02  4.50D-02  1.03D-06
 CPU and wall times used in FCKEIG, THR_FCKEIG:   2.50D-02  4.50D-02  2.38D-04
 -----------------------------------------------------------------------------

 *** DIIS iteration number    6
 RDSUPM called. NFMAT, ISYMDM(1:NFMAT)                     1
                     1

 ITDIIS, energy, error norm, change in energy, scr.thr., difden:
@ DIIS iter.   6    -360.761984514        7.97620D-03   -8.61D-05  -20    F

 (DIIS_RED) Control Parameters C2DIIS =         F NEVC =    6


 (DIIS_RED) B matrix:

               Column   1     Column   2     Column   3     Column   4     Column   5     Column   6
       1      14.42655941
       2       0.78032039     0.89788329
       3       0.68717102     0.02394538     0.13595848
       4      -0.00870765     0.08616632    -0.01193517     0.01370039
       5       0.01136522     0.00605989     0.00472502     0.00087980     0.00056544
       6      -0.00133849    -0.00029933     0.00059961     0.00019636     0.00006974     0.00006362
    ==== End of matrix output ====

 DIIS C vector; C2DIIS = F, LAMBDA = -3.66D-05
    0.000513    0.008203   -0.022490   -0.093339    0.186108    0.921004
* Read MO coefficients from SIRIUS.RST with label "NEWORB  " and header info: 29Nov18  DIIS   6
      Virial theorem: -V/T =      2.002964
@      MULPOP N      -0.63; H       0.19; H       0.24; H       0.21; O      -0.59; O      -0.70; O      -0.80; O      -0.67; H       0.32; H       0.33; 
@             H       0.36; H       0.31; H       0.37; H       0.37; H       0.34; H       0.36; 

 DIIS Fock eigenvalues in symmetry 1
      -20.54273      -20.53867      -20.51933      -20.51588      -15.52038
       -1.33528       -1.31655       -1.28361       -1.27561       -1.11413
       -0.70035       -0.69276       -0.63564       -0.63232       -0.61084
       -0.59700       -0.58046       -0.55100       -0.54485       -0.54135
       -0.50185       -0.49181       -0.47400       -0.46873       -0.41115
        0.00000        0.16324        0.20221        0.21732        0.24472
        0.25955        0.27766        0.30740        0.31014        0.33842
        0.37090        0.37966        0.50259        0.52381        0.56552
        0.57753        0.59609        0.60606        0.62473        0.64575
        0.66124        0.67359        0.73502        0.89804        0.92290
        0.94487        0.99963        1.01218        1.02408        1.04789
        1.09140        1.10564        1.11870        1.14042        1.14849
        1.15558        1.17658        1.19557        1.27898        1.33469
        1.37660        1.42067        1.43395        1.47560        1.47781
        1.52649        1.55171        1.56844        1.57631        1.59010
        1.60573        1.64647        1.65218        1.71938        1.73456
        1.76880        1.81226        1.83973        1.87071        1.92115
        1.94837        1.96936        1.97072        1.99725        2.05286
        2.16945        2.19520        2.22943        2.26959        2.29195
        2.34543        2.39645        2.41262        2.50268        2.54134
        2.58110        2.66844        2.67506        2.68130        2.75734
        2.78677        2.80956        2.83768        2.84899        2.89926
        2.91673        2.97488        3.00359        3.04965        3.13849
        3.43437        3.45027        3.47481        3.49239        3.49372
        3.50516        3.51576        3.52205        3.54789        3.55679
        3.65596        3.68389        3.69509        3.72972        3.97337
        4.01854        4.02300        4.05284        4.21049        4.23984
        4.26059        4.28055        4.62267        5.15798        5.19616
        5.35272        5.39329        5.42258        5.44237        5.70673
        5.74656        5.79633        5.90055        6.03976        6.05260
        6.18909        6.19805       37.02656       51.52571       51.53477
       51.55842       51.59102
 Time used in FCKEIG, thr_jaco:   2.80D-02  7.40D-02  3.47D-07
 CPU and wall times used in FCKEIG, THR_FCKEIG:   2.80D-02  7.40D-02  7.98D-05
 -----------------------------------------------------------------------------

 *** DIIS iteration number    7
 RDSUPM called. NFMAT, ISYMDM(1:NFMAT)                     1
                     1

 ITDIIS, energy, error norm, change in energy, scr.thr., difden:
@ DIIS iter.   7    -360.761991077        2.49180D-03   -6.56D-06  -20    F

 (DIIS_RED) Control Parameters C2DIIS =         F NEVC =    7


 (DIIS_RED) B matrix:

               Column   1     Column   2     Column   3     Column   4     Column   5     Column   6
       1      14.42655941
       2       0.78032039     0.89788329
       3       0.68717102     0.02394538     0.13595848
       4      -0.00870765     0.08616632    -0.01193517     0.01370039
       5       0.01136522     0.00605989     0.00472502     0.00087980     0.00056544
       6      -0.00133849    -0.00029933     0.00059961     0.00019636     0.00006974     0.00006362
       7       0.00053698    -0.00006294     0.00009611    -0.00000259     0.00003700    -0.00000016

               Column   7
       7       0.00000621
    ==== End of matrix output ====

 DIIS C vector; C2DIIS = F, LAMBDA = -1.33D-06
   -0.000228   -0.001356    0.008666    0.026579   -0.168492    0.033497    1.101335
* Read MO coefficients from SIRIUS.RST with label "NEWORB  " and header info: 29Nov18  DIIS   7
      Virial theorem: -V/T =      2.002944
@      MULPOP N      -0.63; H       0.19; H       0.24; H       0.21; O      -0.59; O      -0.70; O      -0.80; O      -0.67; H       0.32; H       0.33; 
@             H       0.36; H       0.31; H       0.37; H       0.37; H       0.34; H       0.36; 

 DIIS Fock eigenvalues in symmetry 1
      -20.54293      -20.53885      -20.51922      -20.51518      -15.51979
       -1.33533       -1.31656       -1.28355       -1.27529       -1.11394
       -0.70043       -0.69281       -0.63547       -0.63225       -0.61079
       -0.59688       -0.58050       -0.55085       -0.54491       -0.54141
       -0.50181       -0.49182       -0.47365       -0.46861       -0.41094
        0.00000        0.16326        0.20220        0.21736        0.24473
        0.25954        0.27766        0.30742        0.31015        0.33845
        0.37092        0.37973        0.50268        0.52386        0.56558
        0.57757        0.59611        0.60608        0.62471        0.64582
        0.66122        0.67360        0.73507        0.89809        0.92300
        0.94496        0.99971        1.01233        1.02417        1.04798
        1.09149        1.10566        1.11870        1.14044        1.14848
        1.15562        1.17671        1.19557        1.27907        1.33475
        1.37662        1.42075        1.43396        1.47568        1.47788
        1.52643        1.55169        1.56847        1.57629        1.59015
        1.60571        1.64662        1.65218        1.71946        1.73457
        1.76881        1.81223        1.83980        1.87072        1.92115
        1.94843        1.96935        1.97071        1.99729        2.05290
        2.16954        2.19528        2.22943        2.26955        2.29202
        2.34540        2.39643        2.41255        2.50264        2.54150
        2.58113        2.66843        2.67506        2.68135        2.75734
        2.78676        2.80953        2.83767        2.84894        2.89929
        2.91675        2.97497        3.00374        3.04983        3.13860
        3.43454        3.45025        3.47510        3.49240        3.49392
        3.50532        3.51582        3.52218        3.54788        3.55673
        3.65627        3.68395        3.69507        3.72967        3.97367
        4.01858        4.02295        4.05278        4.21080        4.23982
        4.26066        4.28050        4.62300        5.15827        5.19643
        5.35316        5.39322        5.42248        5.44246        5.70665
        5.74698        5.79639        5.90045        6.03983        6.05302
        6.18900        6.19796       37.02713       51.52583       51.53459
       51.55909       51.59085
 Time used in FCKEIG, thr_jaco:   2.50D-02  3.40D-02  1.08D-07
 CPU and wall times used in FCKEIG, THR_FCKEIG:   2.50D-02  3.40D-02  2.49D-05
 -----------------------------------------------------------------------------

 *** DIIS iteration number    8
 RDSUPM called. NFMAT, ISYMDM(1:NFMAT)                     1
                     1

 ITDIIS, energy, error norm, change in energy, scr.thr., difden:
@ DIIS iter.   8    -360.761991732        3.68687D-04   -6.55D-07  -20    F

 (DIIS_RED) Control Parameters C2DIIS =         F NEVC =    8


 (DIIS_RED) B matrix:

               Column   1     Column   2     Column   3     Column   4     Column   5     Column   6
       1      14.42655941
       2       0.78032039     0.89788329
       3       0.68717102     0.02394538     0.13595848
       4      -0.00870765     0.08616632    -0.01193517     0.01370039
       5       0.01136522     0.00605989     0.00472502     0.00087980     0.00056544
       6      -0.00133849    -0.00029933     0.00059961     0.00019636     0.00006974     0.00006362
       7       0.00053698    -0.00006294     0.00009611    -0.00000259     0.00003700    -0.00000016
       8       0.00008702     0.00000961    -0.00000610     0.00000472     0.00000108     0.00000134

               Column   7     Column   8
       7       0.00000621
       8       0.00000032     0.00000014
    ==== End of matrix output ====

 DIIS C vector; C2DIIS = F, LAMBDA = -8.09D-08
   -0.000001   -0.000035   -0.000331   -0.001012    0.015988   -0.035026   -0.137694    1.158111
* Read MO coefficients from SIRIUS.RST with label "NEWORB  " and header info: 29Nov18  DIIS   8
      Virial theorem: -V/T =      2.002957
@      MULPOP N      -0.63; H       0.19; H       0.24; H       0.21; O      -0.59; O      -0.71; O      -0.80; O      -0.67; H       0.32; H       0.33; 
@             H       0.36; H       0.31; H       0.37; H       0.37; H       0.34; H       0.36; 

 DIIS Fock eigenvalues in symmetry 1
      -20.54288      -20.53876      -20.51922      -20.51522      -15.51978
       -1.33531       -1.31653       -1.28354       -1.27530       -1.11394
       -0.70042       -0.69279       -0.63547       -0.63224       -0.61078
       -0.59688       -0.58049       -0.55087       -0.54491       -0.54142
       -0.50178       -0.49181       -0.47365       -0.46860       -0.41095
        0.00000        0.16326        0.20220        0.21736        0.24474
        0.25954        0.27766        0.30742        0.31015        0.33845
        0.37092        0.37973        0.50267        0.52385        0.56558
        0.57757        0.59611        0.60609        0.62471        0.64581
        0.66122        0.67359        0.73507        0.89809        0.92300
        0.94496        0.99971        1.01233        1.02417        1.04798
        1.09149        1.10567        1.11870        1.14045        1.14849
        1.15562        1.17671        1.19557        1.27906        1.33475
        1.37663        1.42074        1.43396        1.47568        1.47788
        1.52643        1.55169        1.56846        1.57629        1.59014
        1.60572        1.64661        1.65219        1.71946        1.73457
        1.76881        1.81223        1.83980        1.87072        1.92114
        1.94842        1.96935        1.97071        1.99728        2.05289
        2.16953        2.19528        2.22942        2.26955        2.29202
        2.34541        2.39643        2.41255        2.50264        2.54148
        2.58113        2.66844        2.67506        2.68134        2.75734
        2.78676        2.80953        2.83766        2.84894        2.89928
        2.91675        2.97497        3.00374        3.04982        3.13860
        3.43455        3.45027        3.47508        3.49241        3.49392
        3.50531        3.51582        3.52218        3.54790        3.55674
        3.65625        3.68395        3.69509        3.72969        3.97365
        4.01857        4.02297        4.05279        4.21079        4.23985
        4.26066        4.28051        4.62300        5.15827        5.19643
        5.35314        5.39327        5.42250        5.44246        5.70670
        5.74695        5.79639        5.90047        6.03983        6.05299
        6.18902        6.19800       37.02714       51.52583       51.53465
       51.55905       51.59092
 Time used in FCKEIG, thr_jaco:   2.90D-02  3.70D-02  1.60D-08
 CPU and wall times used in FCKEIG, THR_FCKEIG:   2.90D-02  3.70D-02  3.69D-06
 -----------------------------------------------------------------------------

 *** DIIS iteration number    9
 RDSUPM called. NFMAT, ISYMDM(1:NFMAT)                     1
                     1

 ITDIIS, energy, error norm, change in energy, scr.thr., difden:
@ DIIS iter.   9    -360.761991751        1.14095D-04   -1.82D-08  -20    F

 (DIIS_RED) Control Parameters C2DIIS =         F NEVC =    8


 (DIIS_RED) B matrix:

               Column   1     Column   2     Column   3     Column   4     Column   5     Column   6
       1       0.00000001
       2      -0.00000099     0.89788329
       3      -0.00000157     0.02394538     0.13595848
       4       0.00000055     0.08616632    -0.01193517     0.01370039
       5       0.00000012     0.00605989     0.00472502     0.00087980     0.00056544
[...]
 | 1 1 1 1 |  12   1  21   1 |     2652        1 |      3515227 |    0.116186  |
 | 1 1 1 1 |  24   1  21   1 |     2664        1 |      3547117 |   -0.115933  |
 | 1 1 1 1 |  25   1  21   1 |     2665        1 |      3549781 |    0.116029  |
 | 1 1 1 1 |  30   1  21   1 |     2670        1 |      3563116 |   -0.082061  |
 | 1 1 1 1 | 113   1  21   1 |     2753        1 |      3788129 |   -0.099128  |
 +=============================================================================+


          Norm of Printed Amplitude Vector :             0.8578

          Printed all single excitations greater than 0.377858

          Printed all double excitations greater than 0.065490



+======================================================================+
| contributions of excitation levels to right eigenvectors as computed |
| from the (RE|RE) self overlap                                        |
+----------------------------------------------------------------------+
| sym | multi | state |    E / eV  | % singles | % doubles | % triples |
+======================================================================+
|    1|   1   |   1   |  406.10151 |  88.0819  |  11.9181  |   0.0000  |
+======================================================================+





+======================================================================+
| contributions of excitation levels to excited states as computed     |
| from the (LE|RE) overlap                                             |
+----------------------------------------------------------------------+
| sym | multi | state |    E / eV  | % singles | % doubles | % triples |
+======================================================================+
|    1|   1   |   1   |  406.10151 |  78.6909  |  21.3091  |   0.0000  |
+======================================================================+



 --------------------------
 Symmetry class Nr.:     1
 Multiplicity      :     3
 --------------------------

 Length of Excitation vectors in this class is:   7689528
 No Excitation Energies calculated in this symmetry class
     

   *******************************************************************
   *                                                                 *
   *--------   OUTPUT FROM PROPERTY AND SYMMETRY ANALYSIS   ---------*
   *                                                                 *
   *******************************************************************



                         +-------------------------------+
                         ! REQUESTED PROPERTY OPERATORS: !
                         +-------------------------------+

             Index   Oper. Label  Symmetry  Transp.  PDBS  Atom
             --------------------------------------------------
                1     HAM0            1        1      T      0
                2     XDIPLEN         1        1      F      0
                3     YDIPLEN         1        1      F      0
                4     ZDIPLEN         1        1      F      0
             --------------------------------------------------




                         +-------------------------------+
                         ! REQUESTED EXPECTATION VALUES: !
                         +-------------------------------+

                       Index   Oper. Label  Symmetry
                       -----------------------------
                       -----------------------------




                       +------------------------------------+
                       ! REQUESTED EFFECTIVE FOCK MATRICES: !
                       +------------------------------------+

                       Index   Oper. Label  Symmetry
                       -----------------------------
                       -----------------------------




                        +----------------------------------+
                        ! REQUESTED FIRST ORDER M-VECTORS: !
                        +----------------------------------+

               Index   State Symmetry  Frequency
               --------------------------------------------------
                  1             1    1     1.492396D+01
               --------------------------------------------------


      

    *******************************************************************
    *          SOLVING COUPLED CLUSTER RESPONSE EQUATIONS             *
    *******************************************************************



 
 +======================================================================+
 !                     RHS & ETA VECTORS TO COMPUTE:                    !
 +======================================================================+
 | TYPE | # VEC. |  NEEDED FOR:                                         |
 +----------------------------------------------------------------------+
 +======================================================================+



 +======================================================================+
 !                       LINEAR EQUATIONS TO SOLVE:                     !
 +======================================================================+
 | TYPE | # VEC. |  EQUATION:                                           |
 +----------------------------------------------------------------------+
 |  M1  |    1   |  first-order ground - excited state multipliers      |
 +======================================================================+



 +======================================================================+
 !                F MATRIX TRANSFORMATIONS TO COMPUTE:                  !
 +======================================================================+
 | TYPE | # VEC. |  TRANSFORMED:                                        |
 +----------------------------------------------------------------------+
 |  FR  |    1   |  right eigenvectors (RE)                             |
 +======================================================================+





 Testing R1 list: 

 List nr.  Label     Symmetry      Frequency      T1-norm        T2-norm


 Testing L1 list: 

 List nr.  Label     Symmetry      Frequency      T1-norm        T2-norm
  Solvent 1-order response equations converged in                     0 
  solvent iterations
 SONIAPRI                     0
 CCEQ_STR: CVSEPARATION =  T
 CCEQ_STR: IONIZATION =  T
 CCEQ_STR: REMOVE_CORE =  F
 could not find required file CCM1_1___1
 IOPTSV is    33 ... program continues nevertheless.
 Vector nr.  1 of type M1  and symmetry  1 was not found on file.
     M1  start vector nr.  1 of symmetry  1 generated from gradient
 CCEQ_STR: freeze VALENCE OR VIRT
 CCEQ_SOL: CVSEPARA=     T
 CCEQ_SOL: LIONISAT=     T
 CCEQ_SOL: REMOVE_CORE =  F



 ----- COUPLED CLUSTER RESPONSE SOLVER -----

    Iter  #Vectors  time (min)   residual
    --------------------------------------
 CCRED CVS/IONIS sigma_                     1 
 project out valence occupied or virtual
      1       1         1.25     0.36E+00
 CCRED CVS/IONIS sigma_                     2 
 project out valence occupied or virtual
      2       1         1.23     0.76E-01
 CCRED CVS/IONIS sigma_                     3 
 project out valence occupied or virtual
                    -1  vectors with norm le:  1.000000000000000E-035  REMOVED

 CCORT,**WARNING**  number vectors added is zero after check for vector norm , NBADD :    0

 CCORT, number vectors added is zero , NBADD :    0

 CCORT, number vectors added is zero , NBADD :    0

 CCORT, number vectors added is zero , NBADD :    0

 *** MICROITERATIONS STOPPED DUE TO LINEAR DEPENDENCE BETWEEN ALL NEW TRIAL VECTORS
                     0  trial vectors converged
  LINEAR DEPENDENCE BETWEEN                     1  NON CONVERGED TRIAL VECTORS
      3       1         1.22     0.82E-02

 ***  CCEQ_SOL -MICROITERATIONS STOPPED  
     LINEAR DEPENDENCE BETWEEN ALL NEW TRIAL VECTORS
    --------------------------------------
    converged in  3 iterations
    threshold:    0.10E-08


         Routine          Time (min)
         ---------------------------
         CC_TRDRV            3.70
         CCRED               0.02
         CCNEX               0.04
         ---------------------------
         Total time          3.76


  Total CPU  time used in CCEQ_SOLV:  3 minutes 46 seconds
  Total wall time used in CCEQ_SOLV:  4 minutes 37 seconds


 xxxxxxxxxxxxxxxxxxxxxxxxxxxxxxxxxxxxx

 
 Solution of CC response equations completed.
 

 *******************************************************************
 *                                                                 *
 *--------  OUTPUT FROM COUPLED CLUSTER LINEAR RESPONSE   ---------*
 *                                                                 *
 *--------      CALCULATION OF SECOND ORDER RESIDUES      ---------*
 *                                                                 *
 *******************************************************************



                  +---------------------------------------------+
                  ! CC_SOPR: Calculation of CCSD       Residues !
                  +---------------------------------------------+

 Doing the Mf*CsiA
 Doing the Mf*CsiA
 Doing the Mf*CsiA


 CCSD  Right transition moments in atomic units:
 -----------------------------------------------

  1      14.923956  <XDIPLEN |f> =       0.00000000
  1      14.923956  <YDIPLEN |f> =       0.00000000
  1      14.923956  <ZDIPLEN |f> =       0.00000001


 CCSD  Left  transition moments in atomic units:
 -----------------------------------------------

  1      14.923956  <f|XDIPLEN > =       0.00000000
  1      14.923956  <f|YDIPLEN > =       0.00000000
  1      14.923956  <f|ZDIPLEN > =       0.00000000


 CCSD  linear response residue property in atomic units:
 -------------------------------------------------------

 RES{<<XDIPLEN ,XDIPLEN >>(14.923956)} =     0.00000000 (   0.00000000)
 RES{<<XDIPLEN ,YDIPLEN >>(14.923956)} =     0.00000000 (   0.00000000)
 RES{<<XDIPLEN ,ZDIPLEN >>(14.923956)} =     0.00000000 (   0.00000000)
 RES{<<YDIPLEN ,XDIPLEN >>(14.923956)} =     0.00000000 (   0.00000000)
 RES{<<YDIPLEN ,YDIPLEN >>(14.923956)} =     0.00000000 (   0.00000000)
 RES{<<YDIPLEN ,ZDIPLEN >>(14.923956)} =     0.00000000 (   0.00000000)
 RES{<<ZDIPLEN ,XDIPLEN >>(14.923956)} =     0.00000000 (   0.00000000)
 RES{<<ZDIPLEN ,YDIPLEN >>(14.923956)} =     0.00000000 (   0.00000000)
 RES{<<ZDIPLEN ,ZDIPLEN >>(14.923956)} =     0.00000000 (   0.00000000)


 CCSD  Transition strength matrix for state nr.  1 of symmetry 1
 CCSD  excitation energy:14.92395630

 Gauge: length

               Column   1     Column   2     Column   3
       1     3.220914D-19   1.276963D-18   2.625305D-18
       2     1.276963D-18   4.947912D-18   1.025558D-17
       3     2.625305D-18   1.025558D-17   2.119512D-17
    ==== End of matrix output ====

 Principal values of diagonalized transition strength matrix:

             a.u.               
 1       0.00000000
 2       0.00000000
 3       0.00000000

 Principal axis of diagonalized transition strength matrix:


               Column   1     Column   2     Column   3
       1       1.00000000     0.00000000     0.00000000
       2       0.00000000     1.00000000     0.00000000
       3       0.00000000     0.00000000     1.00000000
    ==== End of matrix output ====


 CCSD   oscillator strength matrix for state nr.  1 of symmetry 1
 CCSD  excitation energy:14.92395630


               Column   1     Column   2     Column   3
       1     3.204585D-18   1.270489D-17   2.611996D-17
       2     1.270489D-17   4.922828D-17   1.020359D-16
       3     2.611996D-17   1.020359D-16   2.108767D-16
    ==== End of matrix output ====

 Principal values of diagonalized oscillator strength matrix:

             a.u.               
 1       0.00000000
 2       0.00000000
 3       0.00000000

 Principal axis of diagonalized oscillator strength matrix:


               Column   1     Column   2     Column   3
       1       1.00000000     0.00000000     0.00000000
       2       0.00000000     1.00000000     0.00000000
       3       0.00000000     0.00000000     1.00000000
    ==== End of matrix output ====

  Total time for      9 linear response residues:       2.82 seconds.
  

 *******************************************************************************
 *******************************************************************************
 *                                                                             *
 *                                                                             *
 *                   SUMMARY OF COUPLED CLUSTER CALCULATION                    *
 *                                                                             *
 *                                                                             *
 *******************************************************************************
 *******************************************************************************

                                                                                
                                                                                
            Total SCF   energy:                  -360.7619917521                
            Total MP2   energy:                  -361.8728758758                
            Total CCSD  energy:                  -361.9112273328                
                                                                                
                                                                                
            Total SCF   energy:                  -360.7619917521                
            Total RSTAR energy:                  -361.9112273328                
            Total CCSD  energy:                  -361.9113740748                
                                                                                
                                                                                
            Total SCF   energy:                  -360.7619917521                
            Total RSTAR energy:                  -361.9113740748                
            Total CCSD  energy:                  -361.9113763412                
                                                                                
                                                                                
            Total SCF   energy:                  -360.7619917521                
            Total RSTAR energy:                  -361.9113763412                
            Total CCSD  energy:                  -361.9113765044                
                                                                                
                                                                                
            Total SCF   energy:                  -360.7619917521                
            Total RSTAR energy:                  -361.9113765044                
            Total CCSD  energy:                  -361.9113765149                
                                                                                
                                                                                
            Total SCF   energy:                  -360.7619917521                
            Total RSTAR energy:                  -361.9113765149                
            Total CCSD  energy:                  -361.9113765156                
                                                                                
                                                                                
            Total SCF   energy:                  -360.7619917521                
            Total RSTAR energy:                  -361.9113765156                
            Total CCSD  energy:                  -361.9113765156                
            CCSD Total  energy:                  -362.3140030822                
            CCSD E(QM/MM)     :                    -0.3976508247                
                                                                                
                                                                                
                                                                                
 +=============================================================================+
 |  sym. | Exci.  |        CCSD       Excitation energies            | ||T1||  |
 |(spin, |        +------------------------------------------------------------+
 | spat) |        |     Hartree    |       eV.      |     cm-1       |    %    |
 +=============================================================================+
 | ^1A   |    1   |    14.9239563  |     406.10151  |   3275429.778  |  88.08  |
 +=============================================================================+
                                                                                
                                                                                
     Total energies in Hartree:                                                 
             1 ^1A       -346.9923959526                                        
                                                                                
                                                                                
 +=============================================================================+
 |  sym. | Exci.  |        CCSD       Length   Gauge Oscillator Strength       |
 |(spin, |        +------------------------------------------------------------+
 | spat) |        | Dipole Strength(a.u.) | Oscillator strength  | Direction   |
 +=============================================================================+
 | ^1A   |    1   |        0.0000000      |      0.0000000       |    -        |
 +=============================================================================+

  1 a.u. =        27.21138 eV.  
  1 a.u. =    219474.62934 cm-1.
  

 *******************************************************************************
 *******************************************************************************
 *                                                                             *
 *                                                                             *
 *                      END OF COUPLED CLUSTER CALCULATION                     *
 *                                                                             *
 *                                                                             *
 *******************************************************************************
 *******************************************************************************


 CPU and wall time for CC :    5969.159    9680.776

 
     Date and time (Linux)  : Thu Nov 29 14:06:48 2018
     Host name              : n-62-29-8                               


                      .-------------------------------------.
                      | End of Coupled Cluster Section (CC) |
                      `-------------------------------------'

  Total CPU  time used in DALTON:   1 hour  41 minutes 30 seconds
  Total wall time used in DALTON:   2 hours 50 minutes 57 seconds

 
     Date and time (Linux)  : Thu Nov 29 14:06:48 2018
     Host name              : n-62-29-8                               
  

 +---------------------------------------------------------+ 
 | List of selected calculated molecular properties (a.u.) | 
 +---------------------------------------------------------+ 

  Properties are read from unit number                      4

 CCSD       properties :
 #  1 1 CCSD/MM  Ground state Energy =    -362.3140030822
 #  2 1 E_QM/MM  Ground state Energy =      -0.3976508247
 #  3 1 Sy: 1 Sp: 1 Exc:  1 E_tot:   -346.9923959526 w:     14.9239563048 E_grs:   -361.9163522574
 #  4 1 Exctot   Excited state Energy =    -346.9923959526
 #  5 1 |<O|XDIPLEN |i(14.923956)>| =     0.00000000
 #  7 1 |<O|YDIPLEN |i(14.923956)>| =     0.00000000
 #  9 1 |<O|ZDIPLEN |i(14.923956)>| =     0.00000000

 THE_END   
