

     ************************************************************************
     *************** Dalton - An Electronic Structure Program ***************
     ************************************************************************

    This is output from DALTON release Dalton2017.alpha (2016)
         ( Web site: http://daltonprogram.org )

   ----------------------------------------------------------------------------

    NOTE:
     
    Dalton is an experimental code for the evaluation of molecular
    properties using (MC)SCF, DFT, CI, and CC wave functions.
    The authors accept no responsibility for the performance of
    the code or for the correctness of the results.
     
    The code (in whole or part) is provided under a licence and
    is not to be reproduced for further distribution without
    the written permission of the authors or their representatives.
     
    See the home page "http://daltonprogram.org" for further information.
     
    If results obtained with this code are published,
    the appropriate citations would be both of:
     
       K. Aidas, C. Angeli, K. L. Bak, V. Bakken, R. Bast,
       L. Boman, O. Christiansen, R. Cimiraglia, S. Coriani,
       P. Dahle, E. K. Dalskov, U. Ekstroem,
       T. Enevoldsen, J. J. Eriksen, P. Ettenhuber, B. Fernandez,
       L. Ferrighi, H. Fliegl, L. Frediani, K. Hald, A. Halkier,
       C. Haettig, H. Heiberg, T. Helgaker, A. C. Hennum,
       H. Hettema, E. Hjertenaes, S. Hoest, I.-M. Hoeyvik,
       M. F. Iozzi, B. Jansik, H. J. Aa. Jensen, D. Jonsson,
       P. Joergensen, J. Kauczor, S. Kirpekar,
       T. Kjaergaard, W. Klopper, S. Knecht, R. Kobayashi, H. Koch,
       J. Kongsted, A. Krapp, K. Kristensen, A. Ligabue,
       O. B. Lutnaes, J. I. Melo, K. V. Mikkelsen, R. H. Myhre,
       C. Neiss, C. B. Nielsen, P. Norman, J. Olsen,
       J. M. H. Olsen, A. Osted, M. J. Packer, F. Pawlowski,
       T. B. Pedersen, P. F. Provasi, S. Reine, Z. Rinkevicius,
       T. A. Ruden, K. Ruud, V. Rybkin, P. Salek, C. C. M. Samson,
       A. Sanchez de Meras, T. Saue, S. P. A. Sauer,
       B. Schimmelpfennig, K. Sneskov, A. H. Steindal,
       K. O. Sylvester-Hvid, P. R. Taylor, A. M. Teale,
       E. I. Tellgren, D. P. Tew, A. J. Thorvaldsen, L. Thoegersen,
       O. Vahtras, M. A. Watson, D. J. D. Wilson, M. Ziolkowski
       and H. Agren,
       "The Dalton quantum chemistry program system",
       WIREs Comput. Mol. Sci. 2014, 4:269–284 (doi: 10.1002/wcms.1172)
     
    and
     
       Dalton, a Molecular Electronic Structure Program,
       Release Dalton2017.alpha (2016), see http://daltonprogram.org
   ----------------------------------------------------------------------------

    Authors in alphabetical order (major contribution(s) in parenthesis):

  Kestutis Aidas,           Vilnius University,           Lithuania   (QM/MM)
  Celestino Angeli,         University of Ferrara,        Italy       (NEVPT2)
  Keld L. Bak,              UNI-C,                        Denmark     (AOSOPPA, non-adiabatic coupling, magnetic properties)
  Vebjoern Bakken,          University of Oslo,           Norway      (DALTON; geometry optimizer, symmetry detection)
  Radovan Bast,             UiT The Arctic U. of Norway,  Norway      (DALTON installation and execution frameworks)
  Pablo Baudin,             University of Valencia,       Spain       (Cholesky excitation energies)
  Linus Boman,              NTNU,                         Norway      (Cholesky decomposition and subsystems)
  Ove Christiansen,         Aarhus University,            Denmark     (CC module)
  Renzo Cimiraglia,         University of Ferrara,        Italy       (NEVPT2)
  Sonia Coriani,            University of Trieste,        Italy       (CC module, MCD in RESPONS)
  Janusz Cukras,            University of Trieste,        Italy       (MChD in RESPONS)
  Paal Dahle,               University of Oslo,           Norway      (Parallelization)
  Erik K. Dalskov,          UNI-C,                        Denmark     (SOPPA)
  Thomas Enevoldsen,        Univ. of Southern Denmark,    Denmark     (SOPPA)
  Janus J. Eriksen,         Aarhus University,            Denmark     (Polarizable embedding model, TDA)
  Rasmus Faber,             University of Copenhagen,     Denmark     (Vib.avg. NMR with SOPPA, parallel AO-SOPPA)
  Berta Fernandez,          U. of Santiago de Compostela, Spain       (doublet spin, ESR in RESPONS)
  Lara Ferrighi,            Aarhus University,            Denmark     (PCM Cubic response)
  Heike Fliegl,             University of Oslo,           Norway      (CCSD(R12))
  Luca Frediani,            UiT The Arctic U. of Norway,  Norway      (PCM)
  Bin Gao,                  UiT The Arctic U. of Norway,  Norway      (Gen1Int library)
  Christof Haettig,         Ruhr-University Bochum,       Germany     (CC module)
  Kasper Hald,              Aarhus University,            Denmark     (CC module)
  Asger Halkier,            Aarhus University,            Denmark     (CC module)
  Frederik Beyer Hansen,    University of Copenhagen,     Denmark     (Parallel AO-SOPPA)
  Erik D. Hedegaard,        Univ. of Southern Denmark,    Denmark     (Polarizable embedding model, QM/MM)
  Hanne Heiberg,            University of Oslo,           Norway      (geometry analysis, selected one-electron integrals)
  Trygve Helgaker,          University of Oslo,           Norway      (DALTON; ABACUS, ERI, DFT modules, London, and much more)
  Alf Christian Hennum,     University of Oslo,           Norway      (Parity violation)
  Hinne Hettema,            University of Auckland,       New Zealand (quadratic response in RESPONS; SIRIUS supersymmetry)
  Eirik Hjertenaes,         NTNU,                         Norway      (Cholesky decomposition)
  Pi A. B. Haase,           University of Copenhagen,     Denmark     (Triplet AO-SOPPA)
  Maria Francesca Iozzi,    University of Oslo,           Norway      (RPA)
  Brano Jansik              Technical Univ. of Ostrava    Czech Rep.  (DFT cubic response)
  Hans Joergen Aa. Jensen,  Univ. of Southern Denmark,    Denmark     (DALTON; SIRIUS, RESPONS, ABACUS modules, London, and much more)
  Dan Jonsson,              UiT The Arctic U. of Norway,  Norway      (cubic response in RESPONS module)
  Poul Joergensen,          Aarhus University,            Denmark     (RESPONS, ABACUS, and CC modules)
  Maciej Kaminski,          University of Warsaw,         Poland      (CPPh in RESPONS)
  Joanna Kauczor,           Linkoeping University,        Sweden      (Complex polarization propagator (CPP) module)
  Sheela Kirpekar,          Univ. of Southern Denmark,    Denmark     (Mass-velocity & Darwin integrals)
  Wim Klopper,              KIT Karlsruhe,                Germany     (R12 code in CC, SIRIUS, and ABACUS modules)
  Stefan Knecht,            ETH Zurich,                   Switzerland (Parallel CI and MCSCF)
  Rika Kobayashi,           Australian National Univ.,    Australia   (DIIS in CC, London in MCSCF)
  Henrik Koch,              NTNU,                         Norway      (CC module, Cholesky decomposition)
  Jacob Kongsted,           Univ. of Southern Denmark,    Denmark     (Polarizable embedding model, QM/MM)
  Andrea Ligabue,           University of Modena,         Italy       (CTOCD, AOSOPPA)
  Nanna H. List             Univ. of Southern Denmark,    Denmark     (Polarizable embedding model)
  Ola B. Lutnaes,           University of Oslo,           Norway      (DFT Hessian)
  Juan I. Melo,             University of Buenos Aires,   Argentina   (LRESC, Relativistic Effects on NMR Shieldings)
  Kurt V. Mikkelsen,        University of Copenhagen,     Denmark     (MC-SCRF and QM/MM)
  Rolf H. Myhre,            NTNU,                         Norway      (Cholesky, subsystems and ECC2)
  Christian Neiss,          Univ. Erlangen-Nuernberg,     Germany     (CCSD(R12))
  Christian B. Nielsen,     University of Copenhagen,     Denmark     (QM/MM)
  Patrick Norman,           Linkoeping University,        Sweden      (Cubic response and complex frequency response in RESPONS)
  Jeppe Olsen,              Aarhus University,            Denmark     (SIRIUS CI/density modules)
  Jogvan Magnus H. Olsen,   Univ. of Southern Denmark,    Denmark     (Polarizable embedding model, QM/MM)
  Anders Osted,             Copenhagen University,        Denmark     (QM/MM)
  Martin J. Packer,         University of Sheffield,      UK          (SOPPA)
  Filip Pawlowski,          Kazimierz Wielki University,  Poland      (CC3)
  Morten N. Pedersen,       Univ. of Southern Denmark,    Denmark     (Polarizable embedding model)
  Thomas B. Pedersen,       University of Oslo,           Norway      (Cholesky decomposition)
  Patricio F. Provasi,      University of Northeastern,   Argentina   (Analysis of coupling constants in localized orbitals)
  Zilvinas Rinkevicius,     KTH Stockholm,                Sweden      (open-shell DFT, ESR)
  Elias Rudberg,            KTH Stockholm,                Sweden      (DFT grid and basis info)
  Torgeir A. Ruden,         University of Oslo,           Norway      (Numerical derivatives in ABACUS)
  Kenneth Ruud,             UiT The Arctic U. of Norway,  Norway      (DALTON; ABACUS magnetic properties and much more)
  Pawel Salek,              KTH Stockholm,                Sweden      (DALTON; DFT code)
  Claire C. M. Samson       University of Karlsruhe       Germany     (Boys localization, r12 integrals in ERI)
  Alfredo Sanchez de Meras, University of Valencia,       Spain       (CC module, Cholesky decomposition)
  Trond Saue,               Paul Sabatier University,     France      (direct Fock matrix construction)
  Stephan P. A. Sauer,      University of Copenhagen,     Denmark     (SOPPA(CCSD), SOPPA prop., AOSOPPA, vibrational g-factors)
  Bernd Schimmelpfennig,    Forschungszentrum Karlsruhe,  Germany     (AMFI module)
  Kristian Sneskov,         Aarhus University,            Denmark     (Polarizable embedding model, QM/MM)
  Arnfinn H. Steindal,      UiT The Arctic U. of Norway,  Norway      (parallel QM/MM, Polarizable embedding model)
  Casper Steinmann,         Univ. of Southern Denmark,    Denmark     (QFIT, Polarizable embedding model)
  K. O. Sylvester-Hvid,     University of Copenhagen,     Denmark     (MC-SCRF)
  Peter R. Taylor,          VLSCI/Univ. of Melbourne,     Australia   (Symmetry handling ABACUS, integral transformation)
  Andrew M. Teale,          University of Nottingham,     England     (DFT-AC, DFT-D)
  David P. Tew,             University of Bristol,        England     (CCSD(R12))
  Olav Vahtras,             KTH Stockholm,                Sweden      (triplet response, spin-orbit, ESR, TDDFT, open-shell DFT)
  David J. Wilson,          La Trobe University,          Australia   (DFT Hessian and DFT magnetizabilities)
  Hans Agren,               KTH Stockholm,                Sweden      (SIRIUS module, RESPONS, MC-SCRF solvation model)
 --------------------------------------------------------------------------------

     Date and time (Linux)  : Sun Jan 13 11:45:30 2019
     Host name              : n-62-24-5                               

 * Work memory size             :  1280000000 =  9.537 gigabytes.

 * Directories for basis set searches:
   1) /zhome/37/3/129401/NH3NH4/CCSD/AIMD_SAMPLING/nh3_4h2o_nd
   2) /zhome/9a/4/124800/source/dalton/build-mlcc/basis


Compilation information
-----------------------

 Who compiled             | rfaber
 Host                     | hpclogin1
 System                   | Linux-2.6.32-696.1.1.el6.x86_64
 CMake generator          | Unix Makefiles
 Processor                | x86_64
 64-bit integers          | ON
 MPI                      | OFF
 Fortran compiler         | /opt/intel/2016update2/compilers_and_libraries_201
                          | 6.2.181/linux/bin/intel64/ifort
 Fortran compiler version | ifort (IFORT) 16.0.2 20160204
 C compiler               | /opt/intel/2016update2/compilers_and_libraries_201
                          | 6.2.181/linux/bin/intel64/icc
 C compiler version       | icc (ICC) 16.0.2 20160204
 C++ compiler             | /opt/intel/2016update2/compilers_and_libraries_201
                          | 6.2.181/linux/bin/intel64/icpc
 C++ compiler version     | icpc (ICC) 16.0.2 20160204
 Static linking           | OFF
 Last Git revision        | bb4d1599ca5680a9f3980451fc8bbefdba436d59
 Git branch               | mlcc
 Configuration time       | 2017-06-13 16:11:03.928841


   Content of the .dal input file
 ----------------------------------

**DALTON
.RUN WAVE FUNCTIONS
*QMMM
.QMMM
**INTEGRALS
.DIPLEN
**WAVE FUNCTIONS
.CC
*PRINT
!To check the origin of excit
.PRINTL
   0 11
*SCF INP
.THRESH
1.0D-7
*CC INP
.CCSD
.THRLEQ
 1.0D-9
.THRENR
 1.0D-10
.FROIMP
4
0
.PRINT
 1
.MAX IT
 1200
.MAXRED
 1200
.MXLRV
1199
*CCSLV
.CCMM
.MXSLIT
200
.MXINIT
4 5
*CCEXCI
.NCCEXC
 15
.CVSEPARA
1
1
*CCLRSD
.DIPOLE
**END OF DALTON INPUT


   Content of the .mol file
 ----------------------------

ATOMBASIS


Atomtypes=4 Charge=0 Nosymm Angstrom
   7.00000    1    Basis=6-311G**
N          0.000000        0.000000        0.000000
   1.00000    3    Basis=6-311G**
H         -0.307461       -0.221830       -0.960839
H         -0.645006       -0.598583        0.578347
H         -0.099470        1.014585        0.129373
   8.00000    4    Basis=6-311G**
O          0.340641       -1.736890       -2.430321
O         -2.865130       -0.895883       -0.874940
O          2.675389        0.066775       -0.048223
O         -1.032850        3.063557        0.365942
   1.00000    8    Basis=6-311G**
H         -0.604074       -2.024669       -2.607954
H          0.535672       -2.296690       -1.664799
H         -3.107031       -1.168600       -1.764153
H         -3.272726       -0.020932       -0.773319
H          3.120304        0.119473        0.798913
H          1.678009       -0.188777        0.081928
H         -1.064829        2.438730        1.098148
H         -1.677027        2.631028       -0.206465


       *******************************************************************
       *********** Output from DALTON general input processing ***********
       *******************************************************************

 --------------------------------------------------------------------------------
   Overall default print level:    0
   Print level for DALTON.STAT:    1

    HERMIT 1- and 2-electron integral sections will be executed
    "Old" integral transformation used (limited to max 255 basis functions)
    Wave function sections will be executed (SIRIUS module)
 --------------------------------------------------------------------------------


 Changes of defaults for *QMMM  :
 --------------------------------

 +------------------+
 |  WORD: | CHANGE: |
 +------------------+
 |   QMMM |       T |
 +------------------+
 


   ****************************************************************************
   *************** Output of molecule and basis set information ***************
   ****************************************************************************


    The two title cards from your ".mol" input:
    ------------------------------------------------------------------------
 1:                                                                         
 2:                                                                         
    ------------------------------------------------------------------------

  Coordinates are entered in Angstrom and converted to atomic units.
          - Conversion factor : 1 bohr = 0.52917721 A

  Atomic type no.    1
  --------------------
  Nuclear charge:   7.00000
  Number of symmetry independent centers:    1
  Number of basis sets to read;    2
  The basis set is "6-311G**" from the basis set library.
  Basis set file used for this atomic type with Z =   7 :
     "/zhome/9a/4/124800/source/dalton/build-mlcc/basis/6-311G**"

  Info about the basis set file: your basis has no documentation.
  Basis set: 6-311G**                                                                        

  Atomic type no.    2
  --------------------
  Nuclear charge:   1.00000
  Number of symmetry independent centers:    3
  Number of basis sets to read;    2
  The basis set is "6-311G**" from the basis set library.
  Basis set file used for this atomic type with Z =   1 :
     "/zhome/9a/4/124800/source/dalton/build-mlcc/basis/6-311G**"

  Info about the basis set file: your basis has no documentation.
  Basis set: 6-311G**                                                                        

  Atomic type no.    3
  --------------------
  Nuclear charge:   8.00000
  Number of symmetry independent centers:    4
  Number of basis sets to read;    2
  The basis set is "6-311G**" from the basis set library.
  Basis set file used for this atomic type with Z =   8 :
     "/zhome/9a/4/124800/source/dalton/build-mlcc/basis/6-311G**"

  Info about the basis set file: your basis has no documentation.
  Basis set: 6-311G**                                                                        

  Atomic type no.    4
  --------------------
  Nuclear charge:   1.00000
  Number of symmetry independent centers:    8
  Number of basis sets to read;    2
  The basis set is "6-311G**" from the basis set library.
  Basis set file used for this atomic type with Z =   1 :
     "/zhome/9a/4/124800/source/dalton/build-mlcc/basis/6-311G**"

  Info about the basis set file: your basis has no documentation.
  Basis set: 6-311G**                                                                        


                         SYMGRP: Point group information
                         -------------------------------

@    Point group: C1 


                                 Isotopic Masses
                                 ---------------

                           N          14.003074
                           H           1.007825
                           H           1.007825
                           H           1.007825
                           O          15.994915
                           O          15.994915
                           O          15.994915
                           O          15.994915
                           H           1.007825
                           H           1.007825
                           H           1.007825
                           H           1.007825
                           H           1.007825
                           H           1.007825
                           H           1.007825
                           H           1.007825

                       Total mass:    89.068809 amu
                       Natural abundance:  98.514 %

 Center-of-mass coordinates (a.u.):   -0.415693    0.162087   -1.126970


  Atoms and basis sets
  --------------------

  Number of atom types :    4
  Total number of atoms:   16

  label    atoms   charge   prim   cont     basis
  ----------------------------------------------------------------------
  N           1    7.0000    31    18      [11s5p1d|4s3p1d]                                   
  H           3    1.0000     8     6      [5s1p|3s1p]                                        
  O           4    8.0000    31    18      [11s5p1d|4s3p1d]                                   
  H           8    1.0000     8     6      [5s1p|3s1p]                                        
  ----------------------------------------------------------------------
  total:     16   50.0000   243   156
  ----------------------------------------------------------------------
  Spherical harmonic basis used.

  Threshold for neglecting AO integrals:  1.00D-12


  Cartesian Coordinates (a.u.)
  ----------------------------

  Total number of coordinates:   48
  N       :     1  x   0.0000000000    2  y   0.0000000000    3  z   0.0000000000
  H       :     4  x  -0.5810170841    5  y  -0.4191979463    6  z  -1.8157225602
  H       :     7  x  -1.2188846890    8  y  -1.1311579331    9  z   1.0929174352
  H       :    10  x  -0.1879710577   11  y   1.9172877805   12  z   0.2444795380
  O       :    13  x   0.6437181969   14  y  -3.2822464092   15  z  -4.5926410858
  O       :    16  x  -5.4143110125   17  y  -1.6929735100   18  z  -1.6533969758
  O       :    19  x   5.0557524878   20  y   0.1261864620   21  z  -0.0911282629
  O       :    22  x  -1.9518036282   23  y   5.7892836983   24  z   0.6915301576
  H       :    25  x  -1.1415344192   26  y  -3.8260699038   27  z  -4.9283188066
  H       :    28  x   1.0122733728   29  y  -4.3401150940   30  z  -3.1460141632
  H       :    31  x  -5.8714376519   32  y  -2.2083339497   33  z  -3.3337660126
  H       :    34  x  -6.1845558221   35  y  -0.0395557472   36  z  -1.4613611173
  H       :    37  x   5.8965199867   38  y   0.2257712493   39  z   1.5097267677
  H       :    40  x   3.1709774453   41  y  -0.3567368287   42  z   0.1548214820
  H       :    43  x  -2.0122351800   44  y   4.6085317928   45  z   2.0751989647
  H       :    46  x  -3.1691217342   47  y   4.9719223472   48  z  -0.3901623044


   Interatomic separations (in Angstrom):
   --------------------------------------

            N           H           H           H           O           O     
            ------      ------      ------      ------      ------      ------
 N     :    0.000000
 H     :    1.032934    0.000000
 H     :    1.053005    1.620177    0.000000
 H     :    1.027626    1.661489    1.761107    0.000000
 O     :    3.006540    2.207900    3.364421    3.783695    0.000000
 O     :    3.126835    2.646393    2.670090    3.508192    3.661075    0.000000
 O     :    2.676657    3.132659    3.443881    2.937640    3.791919    5.683971
 O     :    3.253625    3.616670    3.688741    2.263946    5.722749    4.535880
 H     :    3.356429    2.459918    3.491119    4.121244    1.003422    3.064289
 H     :    2.886743    2.347654    3.051110    3.819293    0.968213    3.761860
 H     :    3.759189    3.062561    3.445837    4.170990    3.557130    0.961036
 H     :    3.362915    2.977973    3.010912    3.457846    4.329733    0.970567
 H     :    3.223171    3.868176    3.839507    3.408292    4.647640    6.297472
 H     :    1.690581    2.242888    2.410554    2.147036    3.239846    4.696350
 H     :    2.878749    3.448422    3.109938    1.974495    5.644576    4.272447
 H     :    3.126876    3.253243    3.480141    2.283498    5.300493    3.781210

            O           O           H           H           H           H     
            ------      ------      ------      ------      ------      ------
 O     :    0.000000
 O     :    4.785736    0.000000
 H     :    4.656312    5.909141    0.000000
 H     :    3.574587    5.942762    1.504180    0.000000
 H     :    6.156862    5.172106    2.776625    3.814675    0.000000
 H     :    5.992790    3.978572    3.808222    4.525230    1.525237    0.000000
 H     :    0.958314    5.109186    5.484075    4.311385    6.856248    6.585018
 H     :    1.037792    4.243477    3.976665    2.966359    5.221559    5.026867
 H     :    4.574884    0.963098    5.819744    5.711364    5.037478    3.798307
 H     :    5.054103    0.964207    5.347326    5.595103    4.348388    3.146501

            H           H           H           H     
            ------      ------      ------      ------
 H     :    0.000000
 H     :    1.639909    0.000000
 H     :    4.794146    3.931877    0.000000
 H     :    5.507547    4.392122    1.453884    0.000000


  Max    interatomic separation is    6.8562 Angstrom (   12.9564 Bohr)
  between atoms   13 and   11, "H     " and "H     ".

  Min HX interatomic separation is    0.9583 Angstrom (    1.8110 Bohr)

  Min YX interatomic separation is    2.6767 Angstrom (    5.0581 Bohr)


  Bond distances (Angstrom):
  --------------------------

                  atom 1     atom 2       distance
                  ------     ------       --------
  bond distance:  H          N            1.032934
  bond distance:  H          N            1.053005
  bond distance:  H          N            1.027626
  bond distance:  H          O            1.003422
  bond distance:  H          O            0.968213
  bond distance:  H          O            0.961036
  bond distance:  H          O            0.970567
  bond distance:  H          O            0.958314
  bond distance:  H          O            1.037792
  bond distance:  H          O            0.963098
  bond distance:  H          O            0.964207


  Bond angles (degrees):
  ----------------------

                  atom 1     atom 2     atom 3         angle
                  ------     ------     ------         -----
  bond angle:     H          N          H            101.917
  bond angle:     H          N          H            107.477
  bond angle:     H          N          H            115.645
  bond angle:     H          O          H             99.427
  bond angle:     H          O          H            104.299
  bond angle:     H          O          H            110.418
  bond angle:     H          O          H             97.939




 Principal moments of inertia (u*A**2) and principal axes
 --------------------------------------------------------

   IA     321.009297         -0.702669    0.647919    0.294035
   IB     334.182210          0.706139    0.584317    0.399926
   IC     601.704182         -0.087310   -0.488645    0.868103


 Rotational constants
 --------------------

               A                   B                   C

           1574.3438           1512.2858            839.9127 MHz
            0.052514            0.050444            0.028016 cm-1


@  Nuclear repulsion energy :  188.605603619599 Hartree


                     .---------------------------------------.
                     | Starting in Integral Section (HERMIT) |
                     `---------------------------------------'



 ***************************************************************************************
 ****************** Output from **INTEGRALS input processing (HERMIT) ******************
 ***************************************************************************************



    *************************************************************************
    ****************** Output from HERMIT input processing ******************
    *************************************************************************


 Default print level:        1

 * Nuclear model: Point charge

 Calculation of one- and two-electron Hamiltonian integrals.

 The following one-electron property integrals are calculated as requested:
          - overlap integrals
          - dipole length integrals

 Center of mass  (bohr):     -0.415693342389      0.162086952422     -1.126970355116
 Operator center (bohr):      0.000000000000      0.000000000000      0.000000000000
 Gauge origin    (bohr):      0.000000000000      0.000000000000      0.000000000000
 Dipole origin   (bohr):      0.000000000000      0.000000000000      0.000000000000
 
  *********************************** 
  QMMM electrostatic potential: 
  Multipole order                                    0
  Isotropic polarization  
  *********************************** 
 
  ---------------- 
  QMMM information 
  ---------------- 
 
  MM coordinates in au 
  -------------------- 
     1     -6.523051      1.282011     11.700421
     2     -7.720047      1.638651     10.298182
     3     -7.125949      1.978933     13.266565
     4     -0.121426    -10.747496      3.810478
     5      0.449075    -11.640299      5.373773
     6     -0.382802     -8.845001      4.224783
     7     -0.310346     -0.128229    -11.728260
     8      0.739112     -0.654609    -13.152507
     9      0.782868      0.232603    -10.242937
    10     -5.260015      6.366569      7.951973
    11     -6.513502      5.127286      7.507285
    12     -5.824293      8.104869      8.166287
    13     -1.735160     -5.800231      5.253953
    14     -0.551350     -4.488145      5.796761
    15     -2.863449     -6.045007      6.893802
    16    -10.235201      0.774688      1.612976
    17     -9.617754      1.908559      0.254669
    18    -11.421465     -0.415144      0.708630
    19     -7.191736      3.562946     -6.623025
    20     -5.465619      3.452898     -6.002980
    21     -8.123179      2.032176     -6.216953
    22      5.134709    -11.403586    -10.901329
    23      4.792861     -9.988493     -9.722174
    24      5.378077    -10.718245    -12.619748
    25     -9.487693    -10.069370    -10.451627
    26    -10.150940     -8.536044    -11.217036
    27    -11.021334    -10.873465     -9.626048
    28      2.696632      1.156545     -7.234622
    29      3.744611      2.262609     -6.122030
    30      2.648506     -0.475431     -6.419024
    31      9.204295     -8.243651      0.558110
    32     10.635443     -7.235835      0.026313
    33      8.859040     -9.300336     -0.991110
    34      5.293750      3.725021     -3.309783
    35      6.717903      4.815616     -3.097371
    36      5.425729      2.580351     -1.800378
    37     -4.768953    -11.366296      1.177186
    38     -3.385569    -10.719978      2.349326
    39     -3.742965    -12.135060     -0.236210
    40     -9.741750      2.993319      6.861537
    41    -11.266984      3.708136      7.545941
    42    -10.235983      2.036087      5.346438
    43     11.440273     -2.433699     -2.808154
    44      9.662181     -2.964684     -3.095755
    45     12.361802     -3.986298     -2.234571
    46     -1.957552    -11.503921     11.238320
    47     -0.639251    -12.346826     10.178605
    48     -3.261017    -12.676846     11.807546
    49     -7.298379      7.988273      2.982732
    50     -6.464570      9.549667      2.102530
    51     -5.824034      7.146763      3.714606
    52     -0.849460     -7.518434     -8.830034
    53     -2.248270     -6.264794     -9.181563
    54     -1.191641     -8.627717    -10.288247
    55      5.731456     -9.520009      7.484846
    56      7.332375    -10.481090      7.292531
    57      5.546898     -8.350851      6.030331
    58    -10.107548     -6.495397      5.552735
    59     -8.804822     -5.517834      4.586210
    60    -10.080619     -7.981963      4.469686
    61      6.437112      4.413512    -11.338370
    62      5.176931      5.639247    -10.639804
    63      6.219767      2.704402    -10.686626
    64     -7.366638     10.803625      8.325527
    65     -8.825185     10.517613      7.176394
    66     -8.064117     11.383863      9.966612
    67      9.353220      9.675447      6.295734
    68     10.574718     10.402375      5.112306
    69     10.274891      8.589797      7.579478
    70      6.687113     -1.863979      6.806444
    71      7.051679     -2.836256      8.361821
    72      7.933278     -0.386634      6.995035
    73      1.662813      7.331431     -4.427498
    74      1.767072      7.464222     -6.289126
    75      3.141802      6.185367     -4.102586
    76      6.492797     -3.144565     -4.353292
    77      5.161895     -4.338628     -4.431172
    78      6.052933     -2.085611     -2.815579
    79     -6.519572     -4.361762      2.623972
    80     -4.844710     -4.459729      3.417621
    81     -6.252607     -3.325555      1.166772
    82     10.816834      6.345190     10.100545
    83      9.497983      5.497746     11.134283
    84     12.172843      6.549165     11.234892
    85      8.369888      2.258310      3.519639
    86      7.494667      3.972815      3.361675
    87     10.015630      2.513357      2.728105
    88      7.929176     -0.548892     -8.770056
    89      9.699437     -0.339576     -8.642562
    90      7.469173     -1.490824     -7.142806
    91      3.386971    -10.990710     -3.351384
    92      3.057560    -10.354405     -5.101195
    93      2.589248    -12.624385     -3.037172
    94     -9.947830      7.625500     -8.570445
    95     -9.618727      6.076329     -7.441318
    96    -11.656619      8.407894     -8.079845
    97     -8.738506      5.498470     -1.117813
    98     -7.843144      5.659628     -2.700661
    99     -8.133060      6.496047      0.468697
   100      9.468822     10.806646     -8.423989
   101      8.053193     11.357845     -9.536174
   102      9.013977     11.214852     -6.704714
   103      1.295747     -6.356502     -0.604170
   104      2.321999     -6.003890      0.855008
   105      1.672852     -8.103138     -1.105822
   106      4.270995     -7.052184     -8.386143
   107      5.169378     -5.688181     -9.380595
   108      2.420405     -6.859027     -8.616023
   109     -9.235946     -6.457266     -1.919911
   110     -8.071387     -6.508306     -0.593306
   111     -8.518396     -7.695216     -3.215316
   112     -0.786432      2.721183      4.716465
   113     -1.959147      3.150788      6.100627
   114      0.705233      3.550007      5.534991
   115      2.426193      7.836509     -9.819629
   116      3.092537      9.483419    -10.415316
   117      0.894893      7.332209    -10.657105
   118     -2.708824      9.845862     -3.390284
   119     -3.832074      9.234347     -4.703063
   120     -1.079238      9.167317     -3.476801
   121      8.159887    -11.724267     -3.027625
   122      8.502613    -13.278886     -2.133884
   123      6.259705    -11.614982     -3.098325
   124     -2.220268      3.516896     -5.017572
   125     -1.035778      5.007077     -4.791739
   126     -1.273636      2.068220     -5.721616
   127      6.607495      7.245342      2.818377
   128      5.149016      8.163551      2.175491
   129      7.344109      8.001482      4.432791
   130      6.799161     -4.148975     11.484346
   131      8.331205     -5.209788     11.259978
   132      7.449121     -2.862835     12.721546
   133    -10.650245    -10.945995      3.118018
   134     -9.286297    -11.374218      1.928413
   135    -12.103418    -10.136587      2.349731
   136      2.456032      5.023720      7.938896
   137      4.182822      4.905446      8.748478
   138      1.037486      4.968944      9.166039
   139    -10.209321     -0.594589     -7.041807
   140    -10.984349     -1.095280     -5.340663
   141     -8.797450     -1.821125     -7.241895
   142      1.370598     -1.779873      6.795553
   143      0.630178     -0.531419      5.672536
   144      2.980818     -0.989871      7.220674
   145      9.560826      6.864544     -1.642376
   146      8.762031      7.063261      0.015449
   147     11.392293      6.562546     -1.279673
   148     -4.918953      8.592241     -9.830316
   149     -4.390393      6.959574    -10.463128
   150     -6.776437      8.224685     -9.374725
   151      2.582698      9.528405      0.840486
   152      1.433242      8.189971      0.469701
   153      1.543428     10.980208      1.852383
   154     -4.858170     -3.928357     -6.274061
   155     -5.215663     -3.694112     -8.077358
   156     -5.709798     -5.529093     -5.948401
   157    -11.352023     -5.574951     10.326140
   158    -10.036615     -4.267126     10.810730
   159    -10.859954     -5.901866      8.569759
   160      5.198890     -6.114063      3.115888
   161      5.582009     -4.395168      3.828062
   162      6.665000     -6.565700      2.185990
   163      1.915113     10.277576      7.794298
   164      2.198415      8.515448      7.401496
   165      3.489740     11.254653      7.782639
   166     -1.777972      5.127335     11.424167
   167     -1.678353      3.163602     11.587965
   168     -3.227652      5.375566     10.203737
   169     -5.060964     -7.405039      9.063913
   170     -6.373415     -7.773812      7.859203
   171     -4.355838     -9.036653      9.838394
   172     -6.045806     -3.552033    -11.379933
   173     -5.752787     -4.874363    -12.635899
   174     -5.398107     -1.881098    -11.974817
   175     -6.606840     -9.019313     -5.580543
   176     -4.908271     -9.912124     -5.418582
   177     -7.633488     -9.622582     -7.034256
 
  MM charges 
  ---------- 
     1     -0.674440
     2      0.337220
     3      0.337220
     4     -0.674440
     5      0.337220
     6      0.337220
     7     -0.674440
     8      0.337220
     9      0.337220
    10     -0.674440
    11      0.337220
    12      0.337220
    13     -0.674440
    14      0.337220
    15      0.337220
    16     -0.674440
    17      0.337220
    18      0.337220
    19     -0.674440
    20      0.337220
    21      0.337220
    22     -0.674440
    23      0.337220
    24      0.337220
    25     -0.674440
    26      0.337220
    27      0.337220
    28     -0.674440
    29      0.337220
    30      0.337220
    31     -0.674440
    32      0.337220
    33      0.337220
    34     -0.674440
    35      0.337220
    36      0.337220
    37     -0.674440
    38      0.337220
    39      0.337220
    40     -0.674440
    41      0.337220
    42      0.337220
    43     -0.674440
    44      0.337220
    45      0.337220
    46     -0.674440
    47      0.337220
    48      0.337220
    49     -0.674440
    50      0.337220
    51      0.337220
    52     -0.674440
    53      0.337220
    54      0.337220
    55     -0.674440
    56      0.337220
    57      0.337220
    58     -0.674440
    59      0.337220
    60      0.337220
    61     -0.674440
    62      0.337220
    63      0.337220
    64     -0.674440
    65      0.337220
    66      0.337220
    67     -0.674440
    68      0.337220
    69      0.337220
    70     -0.674440
    71      0.337220
    72      0.337220
    73     -0.674440
    74      0.337220
    75      0.337220
    76     -0.674440
    77      0.337220
    78      0.337220
    79     -0.674440
    80      0.337220
    81      0.337220
    82     -0.674440
    83      0.337220
    84      0.337220
    85     -0.674440
    86      0.337220
    87      0.337220
    88     -0.674440
    89      0.337220
    90      0.337220
    91     -0.674440
    92      0.337220
    93      0.337220
    94     -0.674440
    95      0.337220
    96      0.337220
    97     -0.674440
    98      0.337220
    99      0.337220
   100     -0.674440
   101      0.337220
   102      0.337220
   103     -0.674440
   104      0.337220
   105      0.337220
   106     -0.674440
   107      0.337220
   108      0.337220
   109     -0.674440
   110      0.337220
   111      0.337220
   112     -0.674440
   113      0.337220
   114      0.337220
   115     -0.674440
   116      0.337220
   117      0.337220
   118     -0.674440
   119      0.337220
   120      0.337220
   121     -0.674440
   122      0.337220
   123      0.337220
   124     -0.674440
   125      0.337220
   126      0.337220
   127     -0.674440
   128      0.337220
   129      0.337220
   130     -0.674440
   131      0.337220
   132      0.337220
   133     -0.674440
   134      0.337220
   135      0.337220
   136     -0.674440
   137      0.337220
   138      0.337220
   139     -0.674440
   140      0.337220
   141      0.337220
   142     -0.674440
   143      0.337220
   144      0.337220
   145     -0.674440
   146      0.337220
   147      0.337220
   148     -0.674440
   149      0.337220
   150      0.337220
   151     -0.674440
   152      0.337220
   153      0.337220
   154     -0.674440
   155      0.337220
   156      0.337220
   157     -0.674440
   158      0.337220
   159      0.337220
   160     -0.674440
   161      0.337220
   162      0.337220
   163     -0.674440
   164      0.337220
   165      0.337220
   166     -0.674440
   167      0.337220
   168      0.337220
   169     -0.674440
   170      0.337220
   171      0.337220
   172     -0.674440
   173      0.337220
   174      0.337220
   175     -0.674440
   176      0.337220
   177      0.337220
 
  MM isotropic polarizabilities in au 
  ----------------------------------- 
     1      5.739350
     2      2.308390
     3      2.308390
     4      5.739350
     5      2.308390
     6      2.308390
     7      5.739350
     8      2.308390
     9      2.308390
    10      5.739350
    11      2.308390
    12      2.308390
    13      5.739350
    14      2.308390
    15      2.308390
    16      5.739350
    17      2.308390
    18      2.308390
    19      5.739350
    20      2.308390
    21      2.308390
    22      5.739350
    23      2.308390
    24      2.308390
    25      5.739350
    26      2.308390
    27      2.308390
    28      5.739350
    29      2.308390
    30      2.308390
    31      5.739350
    32      2.308390
    33      2.308390
    34      5.739350
    35      2.308390
    36      2.308390
    37      5.739350
    38      2.308390
    39      2.308390
    40      5.739350
    41      2.308390
    42      2.308390
    43      5.739350
    44      2.308390
    45      2.308390
    46      5.739350
    47      2.308390
    48      2.308390
    49      5.739350
    50      2.308390
    51      2.308390
    52      5.739350
    53      2.308390
    54      2.308390
    55      5.739350
    56      2.308390
    57      2.308390
    58      5.739350
    59      2.308390
    60      2.308390
    61      5.739350
    62      2.308390
    63      2.308390
    64      5.739350
    65      2.308390
    66      2.308390
    67      5.739350
    68      2.308390
    69      2.308390
    70      5.739350
    71      2.308390
    72      2.308390
    73      5.739350
    74      2.308390
    75      2.308390
    76      5.739350
    77      2.308390
    78      2.308390
    79      5.739350
    80      2.308390
    81      2.308390
    82      5.739350
    83      2.308390
    84      2.308390
    85      5.739350
    86      2.308390
    87      2.308390
    88      5.739350
    89      2.308390
    90      2.308390
    91      5.739350
    92      2.308390
    93      2.308390
    94      5.739350
    95      2.308390
    96      2.308390
    97      5.739350
    98      2.308390
    99      2.308390
   100      5.739350
   101      2.308390
   102      2.308390
   103      5.739350
   104      2.308390
   105      2.308390
   106      5.739350
   107      2.308390
   108      2.308390
   109      5.739350
   110      2.308390
   111      2.308390
   112      5.739350
   113      2.308390
   114      2.308390
   115      5.739350
   116      2.308390
   117      2.308390
   118      5.739350
   119      2.308390
   120      2.308390
   121      5.739350
   122      2.308390
   123      2.308390
   124      5.739350
   125      2.308390
   126      2.308390
   127      5.739350
   128      2.308390
   129      2.308390
   130      5.739350
   131      2.308390
   132      2.308390
   133      5.739350
   134      2.308390
   135      2.308390
   136      5.739350
   137      2.308390
   138      2.308390
   139      5.739350
   140      2.308390
   141      2.308390
   142      5.739350
   143      2.308390
   144      2.308390
   145      5.739350
   146      2.308390
   147      2.308390
   148      5.739350
   149      2.308390
   150      2.308390
   151      5.739350
   152      2.308390
   153      2.308390
   154      5.739350
   155      2.308390
   156      2.308390
   157      5.739350
   158      2.308390
   159      2.308390
   160      5.739350
   161      2.308390
   162      2.308390
   163      5.739350
   164      2.308390
   165      2.308390
   166      5.739350
   167      2.308390
   168      2.308390
   169      5.739350
   170      2.308390
   171      2.308390
   172      5.739350
   173      2.308390
   174      2.308390
   175      5.739350
   176      2.308390
   177      2.308390


     ************************************************************************
     ************************** Output from HERINT **************************
     ************************************************************************



                      Nuclear contribution to dipole moments
                      --------------------------------------

                 au               Debye          C m (/(10**-30)

      x    -23.62013848       -60.03639977      -200.25987369
      y      6.92434770        17.59993519        58.70706456
      z    -55.16329011      -140.21108896      -467.69385027


  Time used in HUCKEL     is       0.76 seconds
  Time used in OVERLAP    is       0.19 seconds
  Time used in POPOVLP    is       0.31 seconds
  Time used in DIPLEN     is       0.87 seconds
  Time used in QUADRUP    is       0.62 seconds
  Time used in KINENE     is       0.23 seconds

 Threshold for neglecting two-electron integrals:  1.00D-12
 HERMIT - Number of two-electron integrals written:    31939975 ( 42.6% )
 HERMIT - Megabytes written:                            365.732

  Time used in TWOINT     is      14.49 seconds
  Total CPU  time used in HERMIT:  17.53 seconds
  Total wall time used in HERMIT:   6.48 seconds


                        .----------------------------------.
                        | End of Integral Section (HERMIT) |
                        `----------------------------------'



                   .--------------------------------------------.
                   | Starting in Wave Function Section (SIRIUS) |
                   `--------------------------------------------'

NCCEXCI for singlet:   15
 CCSD_INPUT: core-val requested
 Requested number of core orbs per sym
                     1
 Indices of requested core orbs
                     1

 *** Output from Huckel module :

     Using EWMO model:          T
     Using EHT  model:          F
     Number of Huckel orbitals each symmetry:   36

 EWMO - Energy Weighted Maximum Overlap - is a Huckel type method,
        which normally is better than Extended Huckel Theory.
 Reference: Linderberg and Ohrn, Propagators in Quantum Chemistry (Wiley, 1973)

 Huckel EWMO eigenvalues for symmetry :  1
          -20.684928     -20.684856     -20.684561     -20.684376     -15.673483
           -1.747946      -1.624289      -1.610965      -1.578562      -1.432500
           -0.818989      -0.790520      -0.784348      -0.763617      -0.741533
           -0.720368      -0.698438      -0.692147      -0.677819      -0.676817
           -0.616355      -0.612155      -0.601621      -0.576718      -0.504034
           -0.256424      -0.233026      -0.226696      -0.220888      -0.183043
           -0.176800      -0.171167      -0.168410      -0.159596      -0.154641
           -0.143163

 **********************************************************************
 *SIRIUS* a direct, restricted step, second order MCSCF program       *
 **********************************************************************

 
     Date and time (Linux)  : Sun Jan 13 11:45:37 2019
     Host name              : n-62-24-5                               

 Title lines from ".mol" input file:
                                                                             
                                                                             

 Print level on unit LUPRI =   2 is   0
 Print level on unit LUW4  =   2 is  11

@    (Integral direct) CC calculation.

@    This is a combination run starting with
@              a restricted, closed shell Hartree-Fock calculation


 Initial molecular orbitals are obtained according to
 ".MOSTART EWMO  " input option

@    QM part is embedded in an environment :

@         Model: QMMM

     Wave function specification
     ============================

     For the specification of the Coupled Cluster: see later.

@    Wave function type        --- CC ---
@    Number of closed shell electrons          50
@    Number of electrons in active shells       0
@    Total charge of the molecule               0

@    Spin multiplicity and 2 M_S                1         0
@    Total number of symmetries                 1 (point group: C1 )
@    Reference state symmetry                   1 (irrep name : A  )

     Orbital specifications
     ======================
@    Abelian symmetry species          All |    1
@                                          |  A  
                                       --- |  ---
@    Occupied SCF orbitals              25 |   25
@    Secondary orbitals                131 |  131
@    Total number of orbitals          156 |  156
@    Number of basis functions         156 |  156

     Optimization information
     ========================
@    Number of configurations                 1
@    Number of orbital rotations           3275
     ------------------------------------------
@    Total number of variables             3276

     Maximum number of Fock   iterations      0
     Maximum number of DIIS   iterations     60
     Maximum number of QC-SCF iterations     60
     Threshold for SCF convergence     1.00D-07


 Changes of defaults for CC:
 ---------------------------


 -Implicit frozen core calculation
 -Excitation energies calculated
 -One-photon absorption strengths will be calculated
 -Oscillator strengths calculated
  
* Read MO coefficients from SIRIUS.RST with label "NEWORB  " and header info: 13Jan19  REORTHO 


 ***********************************************
 ***** DIIS acceleration of SCF iterations *****
 ***********************************************

 C1-DIIS algorithm; max error vectors =    8
 -----------------------------------------------------------------------------

 *** DIIS iteration number    1
 RDSUPM called. NFMAT, ISYMDM(1:NFMAT)                     1
                     1

Calculating AOSUPINT
     (Precalculated two-electron integrals are transformed to P-supermatrix elements.
      Threshold for discarding integrals :  1.00D-12 )
  CPU  time used in FORMSUP    is   6.18 seconds
  WALL time used in FORMSUP    is   8.83 seconds

 ITDIIS, energy, error norm, change in energy, scr.thr., difden:
@ DIIS iter.   1    -359.833821398        3.88989D+00   -3.60D+02  -20    F

 (DIIS_RED) Control Parameters C2DIIS =         F NEVC =    1


 (DIIS_RED) B matrix:

               Column   1
       1      15.13127780
    ==== End of matrix output ====

 DIIS C vector; C2DIIS = F, LAMBDA = -1.51D+01
    1.000000
* Read MO coefficients from SIRIUS.RST with label "NEWORB  " and header info: 13Jan19  DIIS   1
      Virial theorem: -V/T =      1.997350
@      MULPOP N      -0.32; H       0.16; H       0.15; H       0.16; O      -0.64; O      -0.63; O      -0.86; O      -0.66; H       0.33; H       0.34; 
@             H       0.32; H       0.33; H       0.32; H       0.32; H       0.34; H       0.34; 
   1  Level shift: doubly occupied orbital energies shifted by -2.00D-01

 DIIS Fock eigenvalues in symmetry 1
      -20.74107      -20.69828      -20.69181      -20.52244      -15.97472
       -1.57859       -1.55746       -1.52917       -1.45728       -1.41855
       -0.95813       -0.94066       -0.91969       -0.91013       -0.89767
       -0.87631       -0.81863       -0.79118       -0.77917       -0.77025
       -0.74792       -0.73413       -0.72291       -0.68817       -0.66013
        0.08754        0.15757        0.16187        0.20116        0.21904
        0.23974        0.24295        0.27666        0.28816        0.30957
        0.37276        0.43455        0.48079        0.50351        0.52469
        0.53864        0.55685        0.58038        0.61366        0.61640
        0.62818        0.66713        0.80261        0.86427        0.88191
        0.95989        0.97762        0.98553        1.00763        1.02964
        1.03335        1.07439        1.08482        1.11350        1.12887
        1.13862        1.15528        1.21308        1.27856        1.30028
        1.32708        1.33130        1.36834        1.39644        1.43211
        1.43903        1.45758        1.47447        1.48436        1.51911
        1.57842        1.61687        1.62398        1.65087        1.66591
        1.72731        1.78796        1.80292        1.85103        1.88023
        1.90905        1.91085        1.95918        1.97400        2.09909
        2.12549        2.17518        2.18242        2.18755        2.31315
        2.32400        2.36234        2.36406        2.39299        2.47355
        2.53863        2.54547        2.62218        2.64646        2.67863
        2.72908        2.73804        2.77176        2.79566        2.81461
        2.83726        2.89685        2.95622        3.08940        3.26737
        3.33884        3.42791        3.47235        3.48143        3.48655
        3.49776        3.50225        3.51829        3.60808        3.64529
        3.66536        3.68165        3.69244        3.95685        3.98890
        4.00493        4.04913        4.20133        4.24459        4.25411
        4.27113        4.47070        4.91971        5.05464        5.33062
        5.43729        5.44522        5.48131        5.73588        5.77462
        5.79212        5.80154        6.07226        6.10475        6.11126
        6.28215       36.76587       51.54682       51.58050       51.59345
       51.77079
 Time used in FCKEIG, thr_jaco:   4.37D-01  4.40D-02  1.70D-04
 CPU and wall times used in FCKEIG, THR_FCKEIG:   4.39D-01  4.40D-02  3.89D-02
 -----------------------------------------------------------------------------

 *** DIIS iteration number    2
 RDSUPM called. NFMAT, ISYMDM(1:NFMAT)                     1
                     1

 ITDIIS, energy, error norm, change in energy, scr.thr., difden:
@ DIIS iter.   2    -360.655293875        9.51930D-01   -8.21D-01  -20    F

 (DIIS_RED) Control Parameters C2DIIS =         F NEVC =    2


 (DIIS_RED) B matrix:

               Column   1     Column   2
       1      15.13127780
       2       0.81232537     0.90617060
    ==== End of matrix output ====

 DIIS C vector; C2DIIS = F, LAMBDA = -9.06D-01
    0.006511    0.993489
* Read MO coefficients from SIRIUS.RST with label "NEWORB  " and header info: 13Jan19  DIIS   2
      Virial theorem: -V/T =      2.003930
@      MULPOP N      -0.64; H       0.22; H       0.23; H       0.22; O      -0.56; O      -0.53; O      -0.71; O      -0.48; H       0.28; H       0.31; 
@             H       0.29; H       0.25; H       0.27; H       0.33; H       0.27; H       0.24; 
   2  Level shift: doubly occupied orbital energies shifted by -5.00D-02

 DIIS Fock eigenvalues in symmetry 1
      -20.66795      -20.63116      -20.62925      -20.61525      -15.47089
       -1.40429       -1.39843       -1.38295       -1.37465       -1.13093
       -0.76752       -0.75477       -0.74372       -0.72446       -0.66404
       -0.65254       -0.64629       -0.63919       -0.63469       -0.62205
       -0.58241       -0.58035       -0.56792       -0.54838       -0.44285
        0.13454        0.19142        0.20042        0.22987        0.24815
        0.26625        0.28315        0.30463        0.31674        0.36991
        0.39287        0.49576        0.53793        0.55079        0.57319
        0.58062        0.58957        0.62960        0.63650        0.66520
        0.67132        0.72639        0.89749        0.93656        0.94083
        0.96525        0.97005        1.00741        1.03400        1.05352
        1.07032        1.10657        1.11806        1.13169        1.13551
        1.14855        1.16435        1.27565        1.32463        1.34644
        1.38393        1.39818        1.43329        1.43968        1.46037
        1.49645        1.52013        1.53624        1.55207        1.58167
        1.61650        1.64418        1.68354        1.70568        1.73419
        1.78991        1.85401        1.87660        1.92481        1.94475
        1.97335        1.98415        2.04042        2.05228        2.20224
        2.21358        2.22876        2.25171        2.28417        2.33675
        2.39138        2.42483        2.43833        2.50340        2.53339
        2.61496        2.62162        2.68227        2.70396        2.75403
        2.80481        2.82685        2.85210        2.86095        2.88161
        2.96436        3.05061        3.07867        3.22584        3.41458
        3.44457        3.46327        3.47944        3.50058        3.51084
        3.51706        3.52450        3.53671        3.56532        3.62992
        3.68405        3.68636        3.70007        3.99175        4.00364
        4.01377        4.02375        4.19198        4.23603        4.26058
        4.28124        4.64064        5.14515        5.25915        5.31076
        5.34754        5.43445        5.46036        5.63921        5.74577
        5.77804        5.79363        6.07828        6.11158        6.14377
        6.16643       37.11365       51.48130       51.50704       51.51021
       51.51831
 Time used in FCKEIG, thr_jaco:   2.92D-01  2.90D-02  4.16D-05
 CPU and wall times used in FCKEIG, THR_FCKEIG:   2.92D-01  3.00D-02  9.52D-03
 -----------------------------------------------------------------------------

 *** DIIS iteration number    3
 RDSUPM called. NFMAT, ISYMDM(1:NFMAT)                     1
                     1

 ITDIIS, energy, error norm, change in energy, scr.thr., difden:
@ DIIS iter.   3    -360.715405041        3.55775D-01   -6.01D-02  -20    F

 (DIIS_RED) Control Parameters C2DIIS =         F NEVC =    3


 (DIIS_RED) B matrix:

               Column   1     Column   2     Column   3
       1      15.13127780
       2       0.81232537     0.90617060
       3       0.66969851     0.04108598     0.12657603
    ==== End of matrix output ====

 DIIS C vector; C2DIIS = F, LAMBDA = -9.60D-02
   -0.040656    0.099692    0.940964
* Read MO coefficients from SIRIUS.RST with label "NEWORB  " and header info: 13Jan19  DIIS   3
      Virial theorem: -V/T =      2.001152
@      MULPOP N      -0.57; H       0.20; H       0.20; H       0.21; O      -0.62; O      -0.56; O      -0.80; O      -0.54; H       0.31; H       0.34; 
@             H       0.31; H       0.26; H       0.32; H       0.37; H       0.30; H       0.27; 
   3  Level shift: doubly occupied orbital energies shifted by -2.50D-02

 DIIS Fock eigenvalues in symmetry 1
      -20.57461      -20.55134      -20.54289      -20.50291      -15.57595
       -1.36835       -1.35381       -1.33153       -1.31233       -1.14198
       -0.72981       -0.69871       -0.69644       -0.68066       -0.65167
       -0.61921       -0.61273       -0.60046       -0.58784       -0.57649
       -0.53838       -0.51675       -0.50245       -0.50127       -0.43850
        0.13782        0.19581        0.20387        0.23530        0.24781
        0.26954        0.28551        0.30864        0.31852        0.36932
        0.39812        0.49520        0.54167        0.55972        0.57938
        0.58872        0.59999        0.63650        0.64872        0.67180
        0.68030        0.72882        0.89289        0.93882        0.94379
        0.98665        0.99603        1.02529        1.03330        1.05839
        1.08090        1.11814        1.13126        1.14389        1.15316
        1.16086        1.17630        1.27875        1.33251        1.35525
        1.38769        1.40888        1.43951        1.44872        1.47755
        1.50619        1.52849        1.54472        1.56263        1.59234
        1.62807        1.66121        1.69431        1.71552        1.74265
        1.79845        1.85882        1.88057        1.93344        1.94888
        1.98255        1.99409        2.04168        2.05554        2.19566
        2.22151        2.24300        2.26402        2.27794        2.36026
        2.40416        2.44026        2.45497        2.50280        2.54587
        2.62490        2.63266        2.69551        2.71150        2.75866
        2.81319        2.83123        2.85999        2.86812        2.88899
        2.94867        3.02640        3.07049        3.20595        3.41182
        3.45648        3.48159        3.48579        3.52066        3.53526
        3.53834        3.54648        3.56445        3.59653        3.68217
        3.70382        3.71072        3.72789        4.01047        4.03085
        4.04596        4.05865        4.24510        4.25672        4.28776
        4.31083        4.59274        5.09033        5.21889        5.36531
        5.39418        5.46568        5.48926        5.71762        5.76942
        5.81366        5.82471        6.11042        6.14718        6.16620
        6.24370       36.98751       51.54074       51.55747       51.56912
       51.62000
 Time used in FCKEIG, thr_jaco:   2.62D-01  2.70D-02  1.55D-05
 CPU and wall times used in FCKEIG, THR_FCKEIG:   2.62D-01  2.70D-02  3.56D-03
 -----------------------------------------------------------------------------

 *** DIIS iteration number    4
 RDSUPM called. NFMAT, ISYMDM(1:NFMAT)                     1
                     1

 ITDIIS, energy, error norm, change in energy, scr.thr., difden:
@ DIIS iter.   4    -360.723611919        1.20741D-01   -8.21D-03  -20    F

 (DIIS_RED) Control Parameters C2DIIS =         F NEVC =    4


 (DIIS_RED) B matrix:

               Column   1     Column   2     Column   3     Column   4
       1      15.13127780
       2       0.81232537     0.90617060
       3       0.66969851     0.04108598     0.12657603
       4      -0.01267643     0.08649359    -0.01280741     0.01457828
    ==== End of matrix output ====

 DIIS C vector; C2DIIS = F, LAMBDA = -3.69D-03
   -0.001120   -0.091211    0.159124    0.933207
* Read MO coefficients from SIRIUS.RST with label "NEWORB  " and header info: 13Jan19  DIIS   4
      Virial theorem: -V/T =      2.002299
@      MULPOP N      -0.65; H       0.22; H       0.22; H       0.22; O      -0.63; O      -0.57; O      -0.78; O      -0.53; H       0.31; H       0.35; 
@             H       0.32; H       0.26; H       0.32; H       0.38; H       0.30; H       0.27; 
   4  Level shift: doubly occupied orbital energies shifted by -1.25D-02

 DIIS Fock eigenvalues in symmetry 1
      -20.57056      -20.55467      -20.54329      -20.53022      -15.53082
       -1.36051       -1.34795       -1.32395       -1.31283       -1.11925
       -0.72104       -0.69237       -0.69103       -0.67170       -0.63189
       -0.60311       -0.59702       -0.59137       -0.57778       -0.57237
       -0.52680       -0.50657       -0.49853       -0.48967       -0.41675
        0.13618        0.19443        0.20298        0.23341        0.24881
        0.26849        0.28568        0.30805        0.31924        0.37191
        0.39852        0.49853        0.54266        0.56008        0.57919
        0.58790        0.59922        0.63444        0.64591        0.67090
        0.67763        0.73017        0.89777        0.94190        0.94624
        0.98451        0.99154        1.02360        1.03589        1.05909
        1.08012        1.11767        1.13014        1.14263        1.14944
        1.15904        1.17530        1.27914        1.33281        1.35419
        1.38921        1.40727        1.44025        1.44779        1.47438
        1.50387        1.52708        1.54353        1.56036        1.59059
        1.62612        1.65811        1.69206        1.71420        1.74057
        1.79883        1.86094        1.88191        1.93089        1.95065
        1.98088        1.99146        2.04521        2.05779        2.20140
        2.22074        2.24006        2.26075        2.28164        2.35369
        2.40050        2.43679        2.45070        2.50684        2.54591
        2.62219        2.62990        2.69285        2.71095        2.76017
        2.81087        2.83243        2.85924        2.86909        2.88934
        2.95635        3.03684        3.07658        3.21441        3.42462
        3.45177        3.47809        3.48643        3.51831        3.53218
        3.53339        3.54314        3.56229        3.58618        3.67051
        3.70093        3.70743        3.72308        4.00707        4.02584
        4.04212        4.04993        4.23374        4.25323        4.28417
        4.30571        4.60737        5.10764        5.23312        5.35924
        5.37519        5.45966        5.48247        5.69778        5.76479
        5.80591        5.81878        6.10370        6.13860        6.16103
        6.22394       37.01958       51.53213       51.54490       51.55401
       51.58092
 Time used in FCKEIG, thr_jaco:   2.40D-01  2.40D-02  5.27D-06
 CPU and wall times used in FCKEIG, THR_FCKEIG:   2.40D-01  2.40D-02  1.21D-03
 -----------------------------------------------------------------------------

 *** DIIS iteration number    5
 RDSUPM called. NFMAT, ISYMDM(1:NFMAT)                     1
                     1

 ITDIIS, energy, error norm, change in energy, scr.thr., difden:
@ DIIS iter.   5    -360.724714944        2.19360D-02   -1.10D-03  -20    F

 (DIIS_RED) Control Parameters C2DIIS =         F NEVC =    5


 (DIIS_RED) B matrix:

               Column   1     Column   2     Column   3     Column   4     Column   5
       1      15.13127780
       2       0.81232537     0.90617060
       3       0.66969851     0.04108598     0.12657603
       4      -0.01267643     0.08649359    -0.01280741     0.01457828
       5       0.01119174     0.00624599     0.00433555     0.00081387     0.00048119
    ==== End of matrix output ====

 DIIS C vector; C2DIIS = F, LAMBDA = -2.35D-04
    0.001458    0.009534   -0.067775   -0.167045    1.223828
* Read MO coefficients from SIRIUS.RST with label "NEWORB  " and header info: 13Jan19  DIIS   5
      Virial theorem: -V/T =      2.001874
@      MULPOP N      -0.64; H       0.22; H       0.22; H       0.22; O      -0.64; O      -0.58; O      -0.80; O      -0.54; H       0.31; H       0.35; 
@             H       0.32; H       0.27; H       0.33; H       0.38; H       0.30; H       0.27; 

 DIIS Fock eigenvalues in symmetry 1
      -20.55788      -20.54080      -20.52916      -20.51352      -15.51543
       -1.34817       -1.33495       -1.31095       -1.29892       -1.10617
       -0.70909       -0.67946       -0.67841       -0.65910       -0.61911
       -0.59100       -0.58416       -0.57898       -0.56529       -0.55864
       -0.51364       -0.49271       -0.48385       -0.47586       -0.40324
        0.13574        0.19409        0.20273        0.23315        0.24881
        0.26818        0.28564        0.30785        0.31924        0.37213
        0.39855        0.49857        0.54252        0.56000        0.57912
        0.58771        0.59911        0.63388        0.64592        0.67063
        0.67739        0.73018        0.89833        0.94219        0.94643
        0.98510        0.99238        1.02428        1.03617        1.05927
        1.08028        1.11796        1.13041        1.14275        1.14985
        1.15931        1.17561        1.27918        1.33303        1.35422
        1.38931        1.40717        1.44015        1.44776        1.47474
        1.50328        1.52664        1.54333        1.56020        1.59019
        1.62607        1.65816        1.69185        1.71391        1.73994
        1.79874        1.86093        1.88182        1.93003        1.95066
        1.98028        1.99101        2.04527        2.05778        2.20149
        2.22051        2.23966        2.25996        2.28175        2.35362
        2.39970        2.43642        2.45054        2.50702        2.54594
        2.62139        2.62948        2.69246        2.71050        2.75999
        2.80996        2.83208        2.85873        2.86862        2.88889
        2.95670        3.03728        3.07686        3.21480        3.42532
        3.45306        3.47831        3.48682        3.51872        3.53188
        3.53379        3.54350        3.56279        3.58741        3.67186
        3.70066        3.70773        3.72332        4.00682        4.02621
        4.04259        4.05119        4.23511        4.25304        4.28458
        4.30604        4.60866        5.10875        5.23428        5.35985
        5.37726        5.46065        5.48349        5.70000        5.76476
        5.80647        5.81937        6.10420        6.13903        6.16068
        6.22585       37.02241       51.53239       51.54648       51.55529
       51.58505
 Time used in FCKEIG, thr_jaco:   2.32D-01  2.40D-02  9.58D-07
 CPU and wall times used in FCKEIG, THR_FCKEIG:   2.32D-01  2.40D-02  2.19D-04
 -----------------------------------------------------------------------------

 *** DIIS iteration number    6
 RDSUPM called. NFMAT, ISYMDM(1:NFMAT)                     1
                     1

 ITDIIS, energy, error norm, change in energy, scr.thr., difden:
@ DIIS iter.   6    -360.724789915        6.43443D-03   -7.50D-05  -20    F

 (DIIS_RED) Control Parameters C2DIIS =         F NEVC =    6


 (DIIS_RED) B matrix:

               Column   1     Column   2     Column   3     Column   4     Column   5     Column   6
       1      15.13127780
       2       0.81232537     0.90617060
       3       0.66969851     0.04108598     0.12657603
       4      -0.01267643     0.08649359    -0.01280741     0.01457828
       5       0.01119174     0.00624599     0.00433555     0.00081387     0.00048119
       6      -0.00158368    -0.00041317     0.00046804     0.00011882     0.00006738     0.00004140
    ==== End of matrix output ====

 DIIS C vector; C2DIIS = F, LAMBDA = -2.81D-05
    0.000402    0.006289   -0.017030   -0.063019    0.089644    0.983715
* Read MO coefficients from SIRIUS.RST with label "NEWORB  " and header info: 13Jan19  DIIS   6
      Virial theorem: -V/T =      2.001979
@      MULPOP N      -0.64; H       0.22; H       0.22; H       0.22; O      -0.64; O      -0.58; O      -0.80; O      -0.54; H       0.31; H       0.35; 
@             H       0.32; H       0.27; H       0.33; H       0.38; H       0.30; H       0.27; 

 DIIS Fock eigenvalues in symmetry 1
      -20.55803      -20.54133      -20.52996      -20.51506      -15.51839
       -1.34821       -1.33510       -1.31116       -1.29929       -1.10716
       -0.70924       -0.67993       -0.67862       -0.65937       -0.61992
       -0.59131       -0.58491       -0.57938       -0.56572       -0.55909
       -0.51358       -0.49272       -0.48405       -0.47598       -0.40404
        0.13560        0.19398        0.20260        0.23305        0.24864
        0.26808        0.28551        0.30776        0.31908        0.37188
        0.39841        0.49828        0.54230        0.55978        0.57895
        0.58754        0.59895        0.63372        0.64575        0.67043
        0.67722        0.72988        0.89783        0.94176        0.94604
        0.98493        0.99220        1.02408        1.03579        1.05896
        1.08012        1.11777        1.13020        1.14256        1.14954
        1.15913        1.17547        1.27889        1.33275        1.35403
        1.38900        1.40696        1.43987        1.44755        1.47447
        1.50312        1.52640        1.54309        1.55995        1.58996
        1.62583        1.65796        1.69164        1.71369        1.73974
        1.79849        1.86061        1.88149        1.92983        1.95032
        1.98010        1.99082        2.04488        2.05745        2.20093
        2.22018        2.23943        2.25976        2.28119        2.35330
        2.39951        2.43617        2.45031        2.50655        2.54560
        2.62118        2.62927        2.69226        2.71022        2.75969
        2.80973        2.83175        2.85851        2.86843        2.88863
        2.95591        3.03634        3.07621        3.21401        3.42420
        3.45250        3.47805        3.48629        3.51835        3.53177
        3.53359        3.54317        3.56237        3.58690        3.67142
        3.70057        3.70744        3.72312        4.00670        4.02598
        4.04227        4.05063        4.23460        4.25293        4.28429
        4.30584        4.60716        5.10720        5.23289        5.35963
        5.37662        5.46022        5.48307        5.69921        5.76460
        5.80617        5.81898        6.10374        6.13871        6.16054
        6.22507       37.01951       51.53221       51.54570       51.55478
       51.58353
 Time used in FCKEIG, thr_jaco:   2.35D-01  2.30D-02  2.81D-07
 CPU and wall times used in FCKEIG, THR_FCKEIG:   2.36D-01  2.30D-02  6.43D-05
 -----------------------------------------------------------------------------

 *** DIIS iteration number    7
 RDSUPM called. NFMAT, ISYMDM(1:NFMAT)                     1
                     1

 ITDIIS, energy, error norm, change in energy, scr.thr., difden:
@ DIIS iter.   7    -360.724794532        2.35309D-03   -4.62D-06  -20    F

 (DIIS_RED) Control Parameters C2DIIS =         F NEVC =    7


 (DIIS_RED) B matrix:

               Column   1     Column   2     Column   3     Column   4     Column   5     Column   6
       1      15.13127780
       2       0.81232537     0.90617060
       3       0.66969851     0.04108598     0.12657603
       4      -0.01267643     0.08649359    -0.01280741     0.01457828
       5       0.01119174     0.00624599     0.00433555     0.00081387     0.00048119
       6      -0.00158368    -0.00041317     0.00046804     0.00011882     0.00006738     0.00004140
       7       0.00096789    -0.00000753     0.00007885    -0.00000458     0.00002786     0.00000026

               Column   7
       7       0.00000554
    ==== End of matrix output ====

 DIIS C vector; C2DIIS = F, LAMBDA = -1.27D-06
   -0.000237   -0.001286    0.009061    0.024576   -0.173669    0.112138    1.029418
* Read MO coefficients from SIRIUS.RST with label "NEWORB  " and header info: 13Jan19  DIIS   7
      Virial theorem: -V/T =      2.001953
@      MULPOP N      -0.64; H       0.22; H       0.22; H       0.22; O      -0.64; O      -0.58; O      -0.80; O      -0.54; H       0.31; H       0.35; 
@             H       0.32; H       0.27; H       0.33; H       0.38; H       0.30; H       0.27; 

 DIIS Fock eigenvalues in symmetry 1
      -20.55808      -20.54121      -20.52972      -20.51441      -15.51768
       -1.34821       -1.33504       -1.31105       -1.29900       -1.10694
       -0.70927       -0.67973       -0.67860       -0.65930       -0.61980
       -0.59137       -0.58479       -0.57940       -0.56572       -0.55888
       -0.51355       -0.49260       -0.48374       -0.47582       -0.40378
        0.13559        0.19399        0.20263        0.23308        0.24866
        0.26808        0.28553        0.30778        0.31911        0.37192
        0.39848        0.49836        0.54234        0.55985        0.57898
        0.58758        0.59902        0.63371        0.64583        0.67045
        0.67722        0.72995        0.89796        0.94185        0.94610
        0.98502        0.99233        1.02419        1.03587        1.05903
        1.08016        1.11783        1.13027        1.14263        1.14969
        1.15919        1.17553        1.27896        1.33282        1.35408
        1.38908        1.40698        1.43993        1.44761        1.47461
        1.50310        1.52640        1.54311        1.55996        1.58999
        1.62593        1.65808        1.69166        1.71372        1.73972
        1.79857        1.86068        1.88159        1.92981        1.95039
        1.98010        1.99081        2.04498        2.05752        2.20104
        2.22020        2.23945        2.25973        2.28128        2.35342
        2.39948        2.43620        2.45031        2.50662        2.54572
        2.62115        2.62926        2.69234        2.71024        2.75970
        2.80970        2.83177        2.85853        2.86851        2.88864
        2.95609        3.03654        3.07634        3.21417        3.42445
        3.45277        3.47812        3.48642        3.51846        3.53176
        3.53364        3.54325        3.56251        3.58718        3.67171
        3.70057        3.70755        3.72318        4.00668        4.02604
        4.04237        4.05091        4.23489        4.25294        4.28440
        4.30590        4.60755        5.10754        5.23320        5.35970
        5.37696        5.46037        5.48320        5.69961        5.76460
        5.80624        5.81910        6.10388        6.13878        6.16052
        6.22546       37.02020       51.53218       51.54593       51.55489
       51.58418
 Time used in FCKEIG, thr_jaco:   2.33D-01  2.40D-02  1.03D-07
 CPU and wall times used in FCKEIG, THR_FCKEIG:   2.33D-01  2.40D-02  2.35D-05
 -----------------------------------------------------------------------------

 *** DIIS iteration number    8
 RDSUPM called. NFMAT, ISYMDM(1:NFMAT)                     1
                     1

 ITDIIS, energy, error norm, change in energy, scr.thr., difden:
@ DIIS iter.   8    -360.724795055        3.60860D-04   -5.23D-07  -20    F

 (DIIS_RED) Control Parameters C2DIIS =         F NEVC =    8


 (DIIS_RED) B matrix:

               Column   1     Column   2     Column   3     Column   4     Column   5     Column   6
       1      15.13127780
       2       0.81232537     0.90617060
       3       0.66969851     0.04108598     0.12657603
       4      -0.01267643     0.08649359    -0.01280741     0.01457828
       5       0.01119174     0.00624599     0.00433555     0.00081387     0.00048119
       6      -0.00158368    -0.00041317     0.00046804     0.00011882     0.00006738     0.00004140
       7       0.00096789    -0.00000753     0.00007885    -0.00000458     0.00002786     0.00000026
       8      -0.00000014    -0.00000365    -0.00000854     0.00000546     0.00000082     0.00000138

               Column   7     Column   8
       7       0.00000554
       8       0.00000015     0.00000013
    ==== End of matrix output ====

 DIIS C vector; C2DIIS = F, LAMBDA = -6.60D-08
    0.000009    0.000031   -0.000602   -0.001868    0.020912   -0.057295   -0.116760    1.155574
* Read MO coefficients from SIRIUS.RST with label "NEWORB  " and header info: 13Jan19  DIIS   8
      Virial theorem: -V/T =      2.001970
@      MULPOP N      -0.64; H       0.22; H       0.22; H       0.22; O      -0.64; O      -0.58; O      -0.80; O      -0.54; H       0.31; H       0.35; 
@             H       0.33; H       0.27; H       0.33; H       0.38; H       0.30; H       0.27; 

 DIIS Fock eigenvalues in symmetry 1
      -20.55805      -20.54121      -20.52977      -20.51445      -15.51773
       -1.34820       -1.33504       -1.31107       -1.29901       -1.10695
       -0.70926       -0.67974       -0.67859       -0.65931       -0.61981
       -0.59138       -0.58481       -0.57942       -0.56576       -0.55890
       -0.51354       -0.49259       -0.48375       -0.47583       -0.40380
        0.13558        0.19398        0.20263        0.23308        0.24866
        0.26808        0.28552        0.30777        0.31910        0.37191
        0.39847        0.49835        0.54233        0.55984        0.57898
        0.58757        0.59901        0.63371        0.64583        0.67044
        0.67722        0.72994        0.89795        0.94183        0.94608
        0.98500        0.99232        1.02418        1.03586        1.05902
        1.08015        1.11783        1.13026        1.14262        1.14968
        1.15919        1.17553        1.27895        1.33281        1.35407
        1.38907        1.40698        1.43992        1.44760        1.47460
        1.50309        1.52639        1.54310        1.55996        1.58997
        1.62593        1.65807        1.69165        1.71371        1.73972
        1.79856        1.86067        1.88158        1.92980        1.95039
        1.98009        1.99081        2.04496        2.05750        2.20102
        2.22020        2.23943        2.25973        2.28127        2.35342
        2.39948        2.43618        2.45031        2.50660        2.54569
        2.62115        2.62925        2.69234        2.71023        2.75970
        2.80969        2.83176        2.85852        2.86849        2.88862
        2.95607        3.03652        3.07632        3.21415        3.42442
        3.45275        3.47812        3.48641        3.51844        3.53177
[...]

 Principal values of diagonalized transition strength matrix:

             a.u.               
 1      -0.00000000
 2      -0.00000000
 3       0.00006113

 Principal axis of diagonalized transition strength matrix:


               Column   1     Column   2     Column   3
       1       0.59412001    -0.39738140     0.69936359
       2       0.11091427     0.90161459     0.41807792
       3       0.79669281     0.17081906    -0.57974254
    ==== End of matrix output ====


 CCSD   oscillator strength matrix for state nr. 13 of symmetry 1
 CCSD  excitation energy:15.16186925


               Column   1     Column   2     Column   3
       1     3.021979D-04   1.806583D-04  -2.505359D-04
       2     1.806583D-04   1.079980D-04  -1.497630D-04
       3    -2.505359D-04  -1.497630D-04   2.076477D-04
    ==== End of matrix output ====

 Principal values of diagonalized oscillator strength matrix:

             a.u.               
 1      -0.00000003
 2      -0.00000000
 3       0.00061788

 Principal axis of diagonalized oscillator strength matrix:


               Column   1     Column   2     Column   3
       1       0.59412001    -0.39738140     0.69936359
       2       0.11091427     0.90161459     0.41807792
       3       0.79669281     0.17081906    -0.57974254
    ==== End of matrix output ====


 CCSD  Transition strength matrix for state nr. 14 of symmetry 1
 CCSD  excitation energy:15.20557008

 Gauge: length

               Column   1     Column   2     Column   3
       1     1.599112D-06   1.197079D-05   4.783070D-06
       2     1.197079D-05   8.956990D-05   3.578550D-05
       3     4.783070D-06   3.578550D-05   1.429699D-05
    ==== End of matrix output ====

 Principal values of diagonalized transition strength matrix:

             a.u.               
 1      -0.00000000
 2       0.00000000
 3       0.00010547

 Principal axis of diagonalized transition strength matrix:


               Column   1     Column   2     Column   3
       1       0.88092216     0.45695366     0.12316454
       2       0.06930775    -0.38200377     0.92155822
       3      -0.46815872     0.80328480     0.36818602
    ==== End of matrix output ====


 CCSD   oscillator strength matrix for state nr. 14 of symmetry 1
 CCSD  excitation energy:15.20557008


               Column   1     Column   2     Column   3
       1     1.621027D-05   1.213485D-04   4.848620D-05
       2     1.213485D-04   9.079743D-04   3.627592D-04
       3     4.848620D-05   3.627592D-04   1.449292D-04
    ==== End of matrix output ====

 Principal values of diagonalized oscillator strength matrix:

             a.u.               
 1      -0.00000001
 2      -0.00000000
 3       0.00106912

 Principal axis of diagonalized oscillator strength matrix:


               Column   1     Column   2     Column   3
       1       0.88092216     0.45695366     0.12316454
       2       0.06930775    -0.38200377     0.92155822
       3      -0.46815872     0.80328480     0.36818602
    ==== End of matrix output ====


 CCSD  Transition strength matrix for state nr. 15 of symmetry 1
 CCSD  excitation energy:15.26931659

 Gauge: length

               Column   1     Column   2     Column   3
       1     3.888413D-04  -2.907680D-04   1.399965D-04
       2    -2.907680D-04   2.174289D-04  -1.046860D-04
       3     1.399965D-04  -1.046860D-04   5.040338D-05
    ==== End of matrix output ====

 Principal values of diagonalized transition strength matrix:

             a.u.               
 1      -0.00000000
 2       0.00000000
 3       0.00065667

 Principal axis of diagonalized transition strength matrix:


               Column   1     Column   2     Column   3
       1       0.63543212    -0.06394114     0.76950474
       2       0.73327710     0.36221239    -0.57541887
       3      -0.24193121     0.92989984     0.27704796
    ==== End of matrix output ====


 CCSD   oscillator strength matrix for state nr. 15 of symmetry 1
 CCSD  excitation energy:15.26931659


               Column   1     Column   2     Column   3
       1       0.00395823    -0.00295989     0.00142510
       2      -0.00295989     0.00221333    -0.00106566
       3       0.00142510    -0.00106566     0.00051308
    ==== End of matrix output ====

 Principal values of diagonalized oscillator strength matrix:

             a.u.               
 1      -0.00000001
 2       0.00000000
 3       0.00668465

 Principal axis of diagonalized oscillator strength matrix:


               Column   1     Column   2     Column   3
       1       0.63543212    -0.06394114     0.76950474
       2       0.73327710     0.36221239    -0.57541887
       3      -0.24193121     0.92989984     0.27704796
    ==== End of matrix output ====

  Total time for    135 linear response residues:      78.84 seconds.
  

 *******************************************************************************
 *******************************************************************************
 *                                                                             *
 *                                                                             *
 *                   SUMMARY OF COUPLED CLUSTER CALCULATION                    *
 *                                                                             *
 *                                                                             *
 *******************************************************************************
 *******************************************************************************

                                                                                
                                                                                
            Total SCF   energy:                  -360.7247950725                
            Total MP2   energy:                  -361.8301166391                
            Total CCSD  energy:                  -361.8695664259                
                                                                                
                                                                                
            Total SCF   energy:                  -360.7247950725                
            Total RSTAR energy:                  -361.8695664259                
            Total CCSD  energy:                  -361.8696873387                
                                                                                
                                                                                
            Total SCF   energy:                  -360.7247950725                
            Total RSTAR energy:                  -361.8696873387                
            Total CCSD  energy:                  -361.8696885068                
                                                                                
                                                                                
            Total SCF   energy:                  -360.7247950725                
            Total RSTAR energy:                  -361.8696885068                
            Total CCSD  energy:                  -361.8696885718                
                                                                                
                                                                                
            Total SCF   energy:                  -360.7247950725                
            Total RSTAR energy:                  -361.8696885718                
            Total CCSD  energy:                  -361.8696885741                
                                                                                
                                                                                
            Total SCF   energy:                  -360.7247950725                
            Total RSTAR energy:                  -361.8696885741                
            Total CCSD  energy:                  -361.8696885741                
            CCSD Total  energy:                  -362.2264956516                
            CCSD E(QM/MM)     :                    -0.3526568476                
                                                                                
                                                                                
                                                                                
 +=============================================================================+
 |  sym. | Exci.  |        CCSD       Excitation energies            | ||T1||  |
 |(spin, |        +------------------------------------------------------------+
 | spat) |        |     Hartree    |       eV.      |     cm-1       |    %    |
 +=============================================================================+
 | ^1A   |    1   |    14.8206206  |     403.28960  |   3252750.218  |  88.16  |
 | ^1A   |    2   |    14.8781384  |     404.85474  |   3265373.907  |  88.55  |
 | ^1A   |    3   |    14.9104400  |     405.73371  |   3272463.294  |  88.55  |
 | ^1A   |    4   |    14.9189095  |     405.96418  |   3274322.143  |  88.02  |
 | ^1A   |    5   |    14.9538818  |     406.91582  |   3281997.676  |  88.08  |
 | ^1A   |    6   |    14.9780160  |     407.57255  |   3287294.520  |  87.84  |
 | ^1A   |    7   |    14.9965118  |     408.07584  |   3291353.871  |  87.96  |
 | ^1A   |    8   |    15.0141999  |     408.55716  |   3295235.962  |  87.78  |
 | ^1A   |    9   |    15.0449201  |     409.39310  |   3301978.269  |  87.75  |
 | ^1A   |   10   |    15.0703039  |     410.08383  |   3307549.364  |  87.77  |
 | ^1A   |   11   |    15.0951387  |     410.75962  |   3312999.965  |  87.94  |
 | ^1A   |   12   |    15.1053891  |     411.03855  |   3315249.665  |  87.73  |
 | ^1A   |   13   |    15.1618692  |     412.57545  |   3327645.634  |  87.80  |
 | ^1A   |   14   |    15.2055701  |     413.76461  |   3337236.857  |  87.73  |
 | ^1A   |   15   |    15.2693166  |     415.49924  |   3351227.598  |  87.81  |
 +=============================================================================+
                                                                                
                                                                                
     Total energies in Hartree:                                                 
             1 ^1A       -347.0532181795                                        
             2 ^1A       -346.9957004192                                        
             3 ^1A       -346.9633987976                                        
             4 ^1A       -346.9549292579                                        
             5 ^1A       -346.9199569555                                        
             6 ^1A       -346.8958227586                                        
             7 ^1A       -346.8773269957                                        
             8 ^1A       -346.8596388858                                        
             9 ^1A       -346.8289186737                                        
            10 ^1A       -346.8035348951                                        
            11 ^1A       -346.7787001323                                        
            12 ^1A       -346.7684497457                                        
            13 ^1A       -346.7119695541                                        
            14 ^1A       -346.6682687251                                        
            15 ^1A       -346.6045222178                                        
                                                                                
                                                                                
 +=============================================================================+
 |  sym. | Exci.  |        CCSD       Length   Gauge Oscillator Strength       |
 |(spin, |        +------------------------------------------------------------+
 | spat) |        | Dipole Strength(a.u.) | Oscillator strength  | Direction   |
 +=============================================================================+
 | ^1A   |    1   |        0.0009365      |      0.0092533       |  (Y,Z)      |
 | ^1A   |    2   |        0.0032791      |      0.0325248       |  (Y,Z)      |
 | ^1A   |    3   |        0.0032529      |      0.0323345       |  (Y,Z)      |
 | ^1A   |    4   |        0.0005160      |      0.0051323       |  (Y,Z)      |
 | ^1A   |    5   |        0.0013863      |      0.0138206       |  (Y,Z)      |
 | ^1A   |    6   |        0.0006123      |      0.0061142       |  (Y,Z)      |
 | ^1A   |    7   |        0.0005960      |      0.0059590       |  (Y,Z)      |
 | ^1A   |    8   |        0.0000420      |      0.0004203       |  (Y,Z)      |
 | ^1A   |    9   |        0.0001992      |      0.0019978       |  (Y,Z)      |
 | ^1A   |   10   |        0.0002085      |      0.0020949       |  (Y,Z)      |
 | ^1A   |   11   |        0.0008069      |      0.0081205       |  (Y,Z)      |
 | ^1A   |   12   |        0.0001240      |      0.0012488       |  (Y,Z)      |
 | ^1A   |   13   |        0.0000611      |      0.0006178       |  (Y,Z)      |
 | ^1A   |   14   |        0.0001055      |      0.0010691       |  (Y,Z)      |
 | ^1A   |   15   |        0.0006567      |      0.0066846       |  (Y,Z)      |
 +=============================================================================+

  1 a.u. =        27.21138 eV.  
  1 a.u. =    219474.62934 cm-1.
  

 *******************************************************************************
 *******************************************************************************
 *                                                                             *
 *                                                                             *
 *                      END OF COUPLED CLUSTER CALCULATION                     *
 *                                                                             *
 *                                                                             *
 *******************************************************************************
 *******************************************************************************


 CPU and wall time for CC :  441081.366   46474.252

 
     Date and time (Linux)  : Mon Jan 14 00:42:33 2019
     Host name              : n-62-24-5                               


                      .-------------------------------------.
                      | End of Coupled Cluster Section (CC) |
                      `-------------------------------------'

  Total CPU  time used in DALTON: 122 hours 43 minutes 38 seconds
  Total wall time used in DALTON:  12 hours 57 minutes  3 seconds

 
     Date and time (Linux)  : Mon Jan 14 00:42:33 2019
     Host name              : n-62-24-5                               
  

 +---------------------------------------------------------+ 
 | List of selected calculated molecular properties (a.u.) | 
 +---------------------------------------------------------+ 

  Properties are read from unit number                      4

 CCSD       properties :
 #  1 1 CCSD/MM  Ground state Energy =    -362.2264956516
 #  2 1 E_QM/MM  Ground state Energy =      -0.3526568476
 #  3 1 Sy: 1 Sp: 1 Exc:  1 E_tot:   -347.0532181795 w:     14.8206206245 E_grs:   -361.8738388040
 #  4 1 Exctot   Excited state Energy =    -347.0532181795
 #  5 1 Sy: 1 Sp: 1 Exc:  2 E_tot:   -346.9957004192 w:     14.8781383847 E_grs:   -361.8738388040
 #  6 1 Exctot   Excited state Energy =    -346.9957004192
 #  7 1 Sy: 1 Sp: 1 Exc:  3 E_tot:   -346.9633987976 w:     14.9104400064 E_grs:   -361.8738388040
 #  8 1 Exctot   Excited state Energy =    -346.9633987976
 #  9 1 Sy: 1 Sp: 1 Exc:  4 E_tot:   -346.9549292579 w:     14.9189095461 E_grs:   -361.8738388040
 # 10 1 Exctot   Excited state Energy =    -346.9549292579
 # 11 1 Sy: 1 Sp: 1 Exc:  5 E_tot:   -346.9199569555 w:     14.9538818485 E_grs:   -361.8738388040
 # 12 1 Exctot   Excited state Energy =    -346.9199569555
 # 13 1 Sy: 1 Sp: 1 Exc:  6 E_tot:   -346.8958227586 w:     14.9780160454 E_grs:   -361.8738388040
 # 14 1 Exctot   Excited state Energy =    -346.8958227586
 # 15 1 Sy: 1 Sp: 1 Exc:  7 E_tot:   -346.8773269957 w:     14.9965118083 E_grs:   -361.8738388040
 # 16 1 Exctot   Excited state Energy =    -346.8773269957
 # 17 1 Sy: 1 Sp: 1 Exc:  8 E_tot:   -346.8596388858 w:     15.0141999182 E_grs:   -361.8738388040
 # 18 1 Exctot   Excited state Energy =    -346.8596388858
 # 19 1 Sy: 1 Sp: 1 Exc:  9 E_tot:   -346.8289186737 w:     15.0449201303 E_grs:   -361.8738388040
 # 20 1 Exctot   Excited state Energy =    -346.8289186737
 # 21 1 Sy: 1 Sp: 1 Exc: 10 E_tot:   -346.8035348951 w:     15.0703039089 E_grs:   -361.8738388040
 # 22 1 Exctot   Excited state Energy =    -346.8035348951
 # 23 1 Sy: 1 Sp: 1 Exc: 11 E_tot:   -346.7787001323 w:     15.0951386717 E_grs:   -361.8738388040
 # 24 1 Exctot   Excited state Energy =    -346.7787001323
 # 25 1 Sy: 1 Sp: 1 Exc: 12 E_tot:   -346.7684497457 w:     15.1053890583 E_grs:   -361.8738388040
 # 26 1 Exctot   Excited state Energy =    -346.7684497457
 # 27 1 Sy: 1 Sp: 1 Exc: 13 E_tot:   -346.7119695541 w:     15.1618692499 E_grs:   -361.8738388040
 # 28 1 Exctot   Excited state Energy =    -346.7119695541
 # 29 1 Sy: 1 Sp: 1 Exc: 14 E_tot:   -346.6682687251 w:     15.2055700788 E_grs:   -361.8738388040
 # 30 1 Exctot   Excited state Energy =    -346.6682687251
 # 31 1 Sy: 1 Sp: 1 Exc: 15 E_tot:   -346.6045222178 w:     15.2693165862 E_grs:   -361.8738388040
 # 32 1 Exctot   Excited state Energy =    -346.6045222178
 # 33 1 |<O|XDIPLEN |i(14.820621)>| =     0.02657913
 # 35 1 |<O|XDIPLEN |i(14.878138)>| =     0.00775503
 # 37 1 |<O|XDIPLEN |i(14.910440)>| =     0.00539408
 # 39 1 |<O|XDIPLEN |i(14.918910)>| =     0.01982728
 # 41 1 |<O|XDIPLEN |i(14.953882)>| =     0.03290855
 # 43 1 |<O|XDIPLEN |i(14.978016)>| =     0.00577714
 # 45 1 |<O|XDIPLEN |i(14.996512)>| =     0.00045024
 # 47 1 |<O|XDIPLEN |i(15.014200)>| =     0.00175625
 # 49 1 |<O|XDIPLEN |i(15.044920)>| =     0.00877601
 # 51 1 |<O|XDIPLEN |i(15.070304)>| =     0.01099062
 # 53 1 |<O|XDIPLEN |i(15.095139)>| =     0.02540567
 # 55 1 |<O|XDIPLEN |i(15.105389)>| =     0.00319875
 # 57 1 |<O|XDIPLEN |i(15.161869)>| =     0.00546783
 # 59 1 |<O|XDIPLEN |i(15.205570)>| =     0.00126456
 # 61 1 |<O|XDIPLEN |i(15.269317)>| =     0.01971906
 # 63 1 |<O|YDIPLEN |i(14.820621)>| =     0.00412478
 # 65 1 |<O|YDIPLEN |i(14.878138)>| =     0.03582661
 # 67 1 |<O|YDIPLEN |i(14.910440)>| =     0.04288274
 # 69 1 |<O|YDIPLEN |i(14.918910)>| =     0.00958894
 # 71 1 |<O|YDIPLEN |i(14.953882)>| =     0.00710669
 # 73 1 |<O|YDIPLEN |i(14.978016)>| =     0.02093335
 # 75 1 |<O|YDIPLEN |i(14.996512)>| =     0.02257453
 # 77 1 |<O|YDIPLEN |i(15.014200)>| =     0.00612306
 # 79 1 |<O|YDIPLEN |i(15.044920)>| =     0.00473389
 # 81 1 |<O|YDIPLEN |i(15.070304)>| =     0.00916884
 # 83 1 |<O|YDIPLEN |i(15.095139)>| =     0.00478864
 # 85 1 |<O|YDIPLEN |i(15.105389)>| =     0.01015287
 # 87 1 |<O|YDIPLEN |i(15.161869)>| =     0.00326872
 # 89 1 |<O|YDIPLEN |i(15.205570)>| =     0.00946414
 # 91 1 |<O|YDIPLEN |i(15.269317)>| =     0.01474547
 # 93 1 |<O|ZDIPLEN |i(14.820621)>| =     0.01459678
 # 95 1 |<O|ZDIPLEN |i(14.878138)>| =     0.04399352
 # 97 1 |<O|ZDIPLEN |i(14.910440)>| =     0.03721347
 # 99 1 |<O|ZDIPLEN |i(14.918910)>| =     0.00556352
 #101 1 |<O|ZDIPLEN |i(14.953882)>| =     0.01590122
 #103 1 |<O|ZDIPLEN |i(14.978016)>| =     0.01186309
 #105 1 |<O|ZDIPLEN |i(14.996512)>| =     0.00928583
 #107 1 |<O|ZDIPLEN |i(15.014200)>| =     0.00119002
 #109 1 |<O|ZDIPLEN |i(15.044920)>| =     0.00998801
 #111 1 |<O|ZDIPLEN |i(15.070304)>| =     0.00191167
 #113 1 |<O|ZDIPLEN |i(15.095139)>| =     0.01177076
 #115 1 |<O|ZDIPLEN |i(15.105389)>| =     0.00326992
 #117 1 |<O|ZDIPLEN |i(15.161869)>| =     0.00453245
 #119 1 |<O|ZDIPLEN |i(15.205570)>| =     0.00378114
 #121 1 |<O|ZDIPLEN |i(15.269317)>| =     0.00709953

 THE_END   
