

     ************************************************************************
     *************** Dalton - An Electronic Structure Program ***************
     ************************************************************************

    This is output from DALTON release Dalton2017.alpha (2016)
         ( Web site: http://daltonprogram.org )

   ----------------------------------------------------------------------------

    NOTE:
     
    Dalton is an experimental code for the evaluation of molecular
    properties using (MC)SCF, DFT, CI, and CC wave functions.
    The authors accept no responsibility for the performance of
    the code or for the correctness of the results.
     
    The code (in whole or part) is provided under a licence and
    is not to be reproduced for further distribution without
    the written permission of the authors or their representatives.
     
    See the home page "http://daltonprogram.org" for further information.
     
    If results obtained with this code are published,
    the appropriate citations would be both of:
     
       K. Aidas, C. Angeli, K. L. Bak, V. Bakken, R. Bast,
       L. Boman, O. Christiansen, R. Cimiraglia, S. Coriani,
       P. Dahle, E. K. Dalskov, U. Ekstroem,
       T. Enevoldsen, J. J. Eriksen, P. Ettenhuber, B. Fernandez,
       L. Ferrighi, H. Fliegl, L. Frediani, K. Hald, A. Halkier,
       C. Haettig, H. Heiberg, T. Helgaker, A. C. Hennum,
       H. Hettema, E. Hjertenaes, S. Hoest, I.-M. Hoeyvik,
       M. F. Iozzi, B. Jansik, H. J. Aa. Jensen, D. Jonsson,
       P. Joergensen, J. Kauczor, S. Kirpekar,
       T. Kjaergaard, W. Klopper, S. Knecht, R. Kobayashi, H. Koch,
       J. Kongsted, A. Krapp, K. Kristensen, A. Ligabue,
       O. B. Lutnaes, J. I. Melo, K. V. Mikkelsen, R. H. Myhre,
       C. Neiss, C. B. Nielsen, P. Norman, J. Olsen,
       J. M. H. Olsen, A. Osted, M. J. Packer, F. Pawlowski,
       T. B. Pedersen, P. F. Provasi, S. Reine, Z. Rinkevicius,
       T. A. Ruden, K. Ruud, V. Rybkin, P. Salek, C. C. M. Samson,
       A. Sanchez de Meras, T. Saue, S. P. A. Sauer,
       B. Schimmelpfennig, K. Sneskov, A. H. Steindal,
       K. O. Sylvester-Hvid, P. R. Taylor, A. M. Teale,
       E. I. Tellgren, D. P. Tew, A. J. Thorvaldsen, L. Thoegersen,
       O. Vahtras, M. A. Watson, D. J. D. Wilson, M. Ziolkowski
       and H. Agren,
       "The Dalton quantum chemistry program system",
       WIREs Comput. Mol. Sci. 2014, 4:269–284 (doi: 10.1002/wcms.1172)
     
    and
     
       Dalton, a Molecular Electronic Structure Program,
       Release Dalton2017.alpha (2016), see http://daltonprogram.org
   ----------------------------------------------------------------------------

    Authors in alphabetical order (major contribution(s) in parenthesis):

  Kestutis Aidas,           Vilnius University,           Lithuania   (QM/MM)
  Celestino Angeli,         University of Ferrara,        Italy       (NEVPT2)
  Keld L. Bak,              UNI-C,                        Denmark     (AOSOPPA, non-adiabatic coupling, magnetic properties)
  Vebjoern Bakken,          University of Oslo,           Norway      (DALTON; geometry optimizer, symmetry detection)
  Radovan Bast,             UiT The Arctic U. of Norway,  Norway      (DALTON installation and execution frameworks)
  Pablo Baudin,             University of Valencia,       Spain       (Cholesky excitation energies)
  Linus Boman,              NTNU,                         Norway      (Cholesky decomposition and subsystems)
  Ove Christiansen,         Aarhus University,            Denmark     (CC module)
  Renzo Cimiraglia,         University of Ferrara,        Italy       (NEVPT2)
  Sonia Coriani,            University of Trieste,        Italy       (CC module, MCD in RESPONS)
  Janusz Cukras,            University of Trieste,        Italy       (MChD in RESPONS)
  Paal Dahle,               University of Oslo,           Norway      (Parallelization)
  Erik K. Dalskov,          UNI-C,                        Denmark     (SOPPA)
  Thomas Enevoldsen,        Univ. of Southern Denmark,    Denmark     (SOPPA)
  Janus J. Eriksen,         Aarhus University,            Denmark     (Polarizable embedding model, TDA)
  Rasmus Faber,             University of Copenhagen,     Denmark     (Vib.avg. NMR with SOPPA, parallel AO-SOPPA)
  Berta Fernandez,          U. of Santiago de Compostela, Spain       (doublet spin, ESR in RESPONS)
  Lara Ferrighi,            Aarhus University,            Denmark     (PCM Cubic response)
  Heike Fliegl,             University of Oslo,           Norway      (CCSD(R12))
  Luca Frediani,            UiT The Arctic U. of Norway,  Norway      (PCM)
  Bin Gao,                  UiT The Arctic U. of Norway,  Norway      (Gen1Int library)
  Christof Haettig,         Ruhr-University Bochum,       Germany     (CC module)
  Kasper Hald,              Aarhus University,            Denmark     (CC module)
  Asger Halkier,            Aarhus University,            Denmark     (CC module)
  Frederik Beyer Hansen,    University of Copenhagen,     Denmark     (Parallel AO-SOPPA)
  Erik D. Hedegaard,        Univ. of Southern Denmark,    Denmark     (Polarizable embedding model, QM/MM)
  Hanne Heiberg,            University of Oslo,           Norway      (geometry analysis, selected one-electron integrals)
  Trygve Helgaker,          University of Oslo,           Norway      (DALTON; ABACUS, ERI, DFT modules, London, and much more)
  Alf Christian Hennum,     University of Oslo,           Norway      (Parity violation)
  Hinne Hettema,            University of Auckland,       New Zealand (quadratic response in RESPONS; SIRIUS supersymmetry)
  Eirik Hjertenaes,         NTNU,                         Norway      (Cholesky decomposition)
  Pi A. B. Haase,           University of Copenhagen,     Denmark     (Triplet AO-SOPPA)
  Maria Francesca Iozzi,    University of Oslo,           Norway      (RPA)
  Brano Jansik              Technical Univ. of Ostrava    Czech Rep.  (DFT cubic response)
  Hans Joergen Aa. Jensen,  Univ. of Southern Denmark,    Denmark     (DALTON; SIRIUS, RESPONS, ABACUS modules, London, and much more)
  Dan Jonsson,              UiT The Arctic U. of Norway,  Norway      (cubic response in RESPONS module)
  Poul Joergensen,          Aarhus University,            Denmark     (RESPONS, ABACUS, and CC modules)
  Maciej Kaminski,          University of Warsaw,         Poland      (CPPh in RESPONS)
  Joanna Kauczor,           Linkoeping University,        Sweden      (Complex polarization propagator (CPP) module)
  Sheela Kirpekar,          Univ. of Southern Denmark,    Denmark     (Mass-velocity & Darwin integrals)
  Wim Klopper,              KIT Karlsruhe,                Germany     (R12 code in CC, SIRIUS, and ABACUS modules)
  Stefan Knecht,            ETH Zurich,                   Switzerland (Parallel CI and MCSCF)
  Rika Kobayashi,           Australian National Univ.,    Australia   (DIIS in CC, London in MCSCF)
  Henrik Koch,              NTNU,                         Norway      (CC module, Cholesky decomposition)
  Jacob Kongsted,           Univ. of Southern Denmark,    Denmark     (Polarizable embedding model, QM/MM)
  Andrea Ligabue,           University of Modena,         Italy       (CTOCD, AOSOPPA)
  Nanna H. List             Univ. of Southern Denmark,    Denmark     (Polarizable embedding model)
  Ola B. Lutnaes,           University of Oslo,           Norway      (DFT Hessian)
  Juan I. Melo,             University of Buenos Aires,   Argentina   (LRESC, Relativistic Effects on NMR Shieldings)
  Kurt V. Mikkelsen,        University of Copenhagen,     Denmark     (MC-SCRF and QM/MM)
  Rolf H. Myhre,            NTNU,                         Norway      (Cholesky, subsystems and ECC2)
  Christian Neiss,          Univ. Erlangen-Nuernberg,     Germany     (CCSD(R12))
  Christian B. Nielsen,     University of Copenhagen,     Denmark     (QM/MM)
  Patrick Norman,           Linkoeping University,        Sweden      (Cubic response and complex frequency response in RESPONS)
  Jeppe Olsen,              Aarhus University,            Denmark     (SIRIUS CI/density modules)
  Jogvan Magnus H. Olsen,   Univ. of Southern Denmark,    Denmark     (Polarizable embedding model, QM/MM)
  Anders Osted,             Copenhagen University,        Denmark     (QM/MM)
  Martin J. Packer,         University of Sheffield,      UK          (SOPPA)
  Filip Pawlowski,          Kazimierz Wielki University,  Poland      (CC3)
  Morten N. Pedersen,       Univ. of Southern Denmark,    Denmark     (Polarizable embedding model)
  Thomas B. Pedersen,       University of Oslo,           Norway      (Cholesky decomposition)
  Patricio F. Provasi,      University of Northeastern,   Argentina   (Analysis of coupling constants in localized orbitals)
  Zilvinas Rinkevicius,     KTH Stockholm,                Sweden      (open-shell DFT, ESR)
  Elias Rudberg,            KTH Stockholm,                Sweden      (DFT grid and basis info)
  Torgeir A. Ruden,         University of Oslo,           Norway      (Numerical derivatives in ABACUS)
  Kenneth Ruud,             UiT The Arctic U. of Norway,  Norway      (DALTON; ABACUS magnetic properties and much more)
  Pawel Salek,              KTH Stockholm,                Sweden      (DALTON; DFT code)
  Claire C. M. Samson       University of Karlsruhe       Germany     (Boys localization, r12 integrals in ERI)
  Alfredo Sanchez de Meras, University of Valencia,       Spain       (CC module, Cholesky decomposition)
  Trond Saue,               Paul Sabatier University,     France      (direct Fock matrix construction)
  Stephan P. A. Sauer,      University of Copenhagen,     Denmark     (SOPPA(CCSD), SOPPA prop., AOSOPPA, vibrational g-factors)
  Bernd Schimmelpfennig,    Forschungszentrum Karlsruhe,  Germany     (AMFI module)
  Kristian Sneskov,         Aarhus University,            Denmark     (Polarizable embedding model, QM/MM)
  Arnfinn H. Steindal,      UiT The Arctic U. of Norway,  Norway      (parallel QM/MM, Polarizable embedding model)
  Casper Steinmann,         Univ. of Southern Denmark,    Denmark     (QFIT, Polarizable embedding model)
  K. O. Sylvester-Hvid,     University of Copenhagen,     Denmark     (MC-SCRF)
  Peter R. Taylor,          VLSCI/Univ. of Melbourne,     Australia   (Symmetry handling ABACUS, integral transformation)
  Andrew M. Teale,          University of Nottingham,     England     (DFT-AC, DFT-D)
  David P. Tew,             University of Bristol,        England     (CCSD(R12))
  Olav Vahtras,             KTH Stockholm,                Sweden      (triplet response, spin-orbit, ESR, TDDFT, open-shell DFT)
  David J. Wilson,          La Trobe University,          Australia   (DFT Hessian and DFT magnetizabilities)
  Hans Agren,               KTH Stockholm,                Sweden      (SIRIUS module, RESPONS, MC-SCRF solvation model)
 --------------------------------------------------------------------------------

     Date and time (Linux)  : Sat Dec 22 15:38:08 2018
     Host name              : n-62-30-18                              

 * Work memory size             :  1280000000 =  9.537 gigabytes.

 * Directories for basis set searches:
   1) /zhome/37/3/129401/NH3NH4/CCSD/AIMD_SAMPLING/nh3_4h2o_nd
   2) /zhome/9a/4/124800/source/dalton/build-mlcc/basis


Compilation information
-----------------------

 Who compiled             | rfaber
 Host                     | hpclogin1
 System                   | Linux-2.6.32-696.1.1.el6.x86_64
 CMake generator          | Unix Makefiles
 Processor                | x86_64
 64-bit integers          | ON
 MPI                      | OFF
 Fortran compiler         | /opt/intel/2016update2/compilers_and_libraries_201
                          | 6.2.181/linux/bin/intel64/ifort
 Fortran compiler version | ifort (IFORT) 16.0.2 20160204
 C compiler               | /opt/intel/2016update2/compilers_and_libraries_201
                          | 6.2.181/linux/bin/intel64/icc
 C compiler version       | icc (ICC) 16.0.2 20160204
 C++ compiler             | /opt/intel/2016update2/compilers_and_libraries_201
                          | 6.2.181/linux/bin/intel64/icpc
 C++ compiler version     | icpc (ICC) 16.0.2 20160204
 Static linking           | OFF
 Last Git revision        | bb4d1599ca5680a9f3980451fc8bbefdba436d59
 Git branch               | mlcc
 Configuration time       | 2017-06-13 16:11:03.928841


   Content of the .dal input file
 ----------------------------------

**DALTON
.RUN WAVE FUNCTIONS
*QMMM
.QMMM
**INTEGRALS
.DIPLEN
**WAVE FUNCTIONS
.CC
*PRINT
!To check the origin of excit
.PRINTL
   0 11
*SCF INP
.THRESH
1.0D-7
*CC INP
.CCSD
.THRLEQ
 1.0D-9
.THRENR
 1.0D-10
.FROIMP
4
0
.PRINT
 1
.MAX IT
 1200
.MAXRED
 1200
.MXLRV
1199
*CCSLV
.CCMM
.MXSLIT
200
.MXINIT
4 5
*CCEXCI
.NCCEXC
 15
.CVSEPARA
1
1
*CCLRSD
.DIPOLE
**END OF DALTON INPUT


   Content of the .mol file
 ----------------------------

ATOMBASIS


Atomtypes=4 Charge=0 Nosymm Angstrom
   7.00000    1    Basis=6-311G**
N          0.000000        0.000000        0.000000
   1.00000    3    Basis=6-311G**
H          0.244247        0.306566        0.974437
H         -0.613840       -0.801109        0.122395
H          0.896493       -0.301468       -0.371108
   8.00000    4    Basis=6-311G**
O         -3.018376        0.184510        1.353454
O          2.919406       -1.815552        0.196777
O         -0.523495        2.212321       -1.654284
O          0.270045        0.691277        3.526110
   1.00000    8    Basis=6-311G**
H         -3.951137        0.663829        1.477703
H         -2.736091        0.570523        0.428918
H          2.812193       -1.022160        0.832121
H          3.810612       -2.142612        0.429649
H         -0.011072        2.152646       -2.516329
H         -0.232141        1.336821       -1.115751
H         -0.583011        0.251943        3.655136
H          0.166469        1.621900        3.841151


       *******************************************************************
       *********** Output from DALTON general input processing ***********
       *******************************************************************

 --------------------------------------------------------------------------------
   Overall default print level:    0
   Print level for DALTON.STAT:    1

    HERMIT 1- and 2-electron integral sections will be executed
    "Old" integral transformation used (limited to max 255 basis functions)
    Wave function sections will be executed (SIRIUS module)
 --------------------------------------------------------------------------------


 Changes of defaults for *QMMM  :
 --------------------------------

 +------------------+
 |  WORD: | CHANGE: |
 +------------------+
 |   QMMM |       T |
 +------------------+
 


   ****************************************************************************
   *************** Output of molecule and basis set information ***************
   ****************************************************************************


    The two title cards from your ".mol" input:
    ------------------------------------------------------------------------
 1:                                                                         
 2:                                                                         
    ------------------------------------------------------------------------

  Coordinates are entered in Angstrom and converted to atomic units.
          - Conversion factor : 1 bohr = 0.52917721 A

  Atomic type no.    1
  --------------------
  Nuclear charge:   7.00000
  Number of symmetry independent centers:    1
  Number of basis sets to read;    2
  The basis set is "6-311G**" from the basis set library.
  Basis set file used for this atomic type with Z =   7 :
     "/zhome/9a/4/124800/source/dalton/build-mlcc/basis/6-311G**"

  Info about the basis set file: your basis has no documentation.
  Basis set: 6-311G**                                                                        

  Atomic type no.    2
  --------------------
  Nuclear charge:   1.00000
  Number of symmetry independent centers:    3
  Number of basis sets to read;    2
  The basis set is "6-311G**" from the basis set library.
  Basis set file used for this atomic type with Z =   1 :
     "/zhome/9a/4/124800/source/dalton/build-mlcc/basis/6-311G**"

  Info about the basis set file: your basis has no documentation.
  Basis set: 6-311G**                                                                        

  Atomic type no.    3
  --------------------
  Nuclear charge:   8.00000
  Number of symmetry independent centers:    4
  Number of basis sets to read;    2
  The basis set is "6-311G**" from the basis set library.
  Basis set file used for this atomic type with Z =   8 :
     "/zhome/9a/4/124800/source/dalton/build-mlcc/basis/6-311G**"

  Info about the basis set file: your basis has no documentation.
  Basis set: 6-311G**                                                                        

  Atomic type no.    4
  --------------------
  Nuclear charge:   1.00000
  Number of symmetry independent centers:    8
  Number of basis sets to read;    2
  The basis set is "6-311G**" from the basis set library.
  Basis set file used for this atomic type with Z =   1 :
     "/zhome/9a/4/124800/source/dalton/build-mlcc/basis/6-311G**"

  Info about the basis set file: your basis has no documentation.
  Basis set: 6-311G**                                                                        


                         SYMGRP: Point group information
                         -------------------------------

@    Point group: C1 


                                 Isotopic Masses
                                 ---------------

                           N          14.003074
                           H           1.007825
                           H           1.007825
                           H           1.007825
                           O          15.994915
                           O          15.994915
                           O          15.994915
                           O          15.994915
                           H           1.007825
                           H           1.007825
                           H           1.007825
                           H           1.007825
                           H           1.007825
                           H           1.007825
                           H           1.007825
                           H           1.007825

                       Total mass:    89.068809 amu
                       Natural abundance:  98.514 %

 Center-of-mass coordinates (a.u.):   -0.123814    0.488232    1.327187


  Atoms and basis sets
  --------------------

  Number of atom types :    4
  Total number of atoms:   16

  label    atoms   charge   prim   cont     basis
  ----------------------------------------------------------------------
  N           1    7.0000    31    18      [11s5p1d|4s3p1d]                                   
  H           3    1.0000     8     6      [5s1p|3s1p]                                        
  O           4    8.0000    31    18      [11s5p1d|4s3p1d]                                   
  H           8    1.0000     8     6      [5s1p|3s1p]                                        
  ----------------------------------------------------------------------
  total:     16   50.0000   243   156
  ----------------------------------------------------------------------
  Spherical harmonic basis used.

  Threshold for neglecting AO integrals:  1.00D-12


  Cartesian Coordinates (a.u.)
  ----------------------------

  Total number of coordinates:   48
  N       :     1  x   0.0000000000    2  y   0.0000000000    3  z   0.0000000000
  H       :     4  x   0.4615599369    5  y   0.5793257792    6  z   1.8414190561
  H       :     7  x  -1.1599894846    8  y  -1.5138766063    9  z   0.2312930291
  H       :    10  x   1.6941262430   11  y  -0.5696919554   12  z  -0.7012924828
  O       :    13  x  -5.7039039823   14  y   0.3486733673   15  z   2.5576573828
  O       :    16  x   5.5168777877   17  y  -3.4308960457   18  z   0.3718546377
  O       :    19  x  -0.9892621778   20  y   4.1806807906   21  z  -3.1261436930
  O       :    22  x   0.5103110914   23  y   1.3063242065   24  z   6.6633821866
  H       :    25  x  -7.4665668123   26  y   1.2544550038   27  z   2.7924539641
  H       :    28  x  -5.1704626431   29  y   1.0781322180   30  z   0.8105375501
  H       :    31  x   5.3142745806   32  y  -1.9316024559   33  z   1.5724807929
  H       :    34  x   7.2010130486   35  y  -4.0489498721   36  z   0.8119189399
  H       :    37  x  -0.0209230477   38  y   4.0679113841   39  z  -4.7551726504
  H       :    40  x  -0.4386829124   41  y   2.5262255681   42  z  -2.1084638137
  H       :    43  x  -1.1017311179   44  y   0.4761032691   45  z   6.9072059896
  H       :    46  x   0.3145808183   47  y   3.0649468021   48  z   7.2587233947


   Interatomic separations (in Angstrom):
   --------------------------------------

            N           H           H           H           O           O     
            ------      ------      ------      ------      ------      ------
 N     :    0.000000
 H     :    1.050317    0.000000
 H     :    1.016639    1.639888    0.000000
 H     :    1.016024    1.614194    1.665621    0.000000
 O     :    3.313076    3.286831    2.875542    4.305402    0.000000
 O     :    3.443528    3.502087    3.676745    2.589811    6.371452    0.000000
 O     :    2.811595    3.336391    3.499359    3.159437    4.402606    5.612821
 O     :    3.603365    2.580640    3.820176    4.070170    3.973784    4.938397
 H     :    4.270335    4.240538    3.888503    5.277255    1.056043    7.415690
 H     :    2.827660    3.041328    2.545443    3.820481    1.040893    6.142629
 H     :    3.105747    2.894843    3.505749    2.374250    5.976904    1.022070
 H     :    4.392738    4.360530    4.633553    3.538801    7.273513    0.977469
 H     :    3.311483    3.957101    4.006353    3.383537    5.281350    5.629853
 H     :    1.756667    2.378499    2.499889    2.124217    3.897166    4.646766
 H     :    3.709905    2.805973    3.686479    4.325024    3.351610    5.338699
 H     :    4.172854    3.155028    4.506551    4.687793    4.289285    5.716310

            O           O           H           H           H           H     
            ------      ------      ------      ------      ------      ------
 O     :    0.000000
 O     :    5.457084    0.000000
 H     :    4.894476    4.692025    0.000000
 H     :    3.454101    4.317874    1.607791    0.000000
 H     :    5.269809    4.081171    7.000141    5.786421    0.000000
 H     :    6.487889    5.491322    8.319812    7.086637    1.553781    0.000000
 H     :    1.004619    6.222997    5.804565    4.313157    5.409467    6.460131
 H     :    1.068366    4.713363    4.583651    3.040227    4.315897    5.553248
 H     :    5.660085    0.968177    4.031766    3.891751    4.595668    5.953283
 H     :    5.569960    0.987946    4.843394    4.601476    4.800539    6.252174

            H           H           H           H     
            ------      ------      ------      ------
 H     :    0.000000
 H     :    1.635867    0.000000
 H     :    6.482805    4.905245    0.000000
 H     :    6.382066    4.981068    1.572611    0.000000


  Max    interatomic separation is    8.3198 Angstrom (   15.7222 Bohr)
  between atoms   12 and    9, "H     " and "H     ".

  Min HX interatomic separation is    0.9682 Angstrom (    1.8296 Bohr)

  Min YX interatomic separation is    2.8116 Angstrom (    5.3131 Bohr)


  Bond distances (Angstrom):
  --------------------------

                  atom 1     atom 2       distance
                  ------     ------       --------
  bond distance:  H          N            1.050317
  bond distance:  H          N            1.016639
  bond distance:  H          N            1.016024
  bond distance:  H          O            1.056043
  bond distance:  H          O            1.040893
  bond distance:  H          O            1.022070
  bond distance:  H          O            0.977469
  bond distance:  H          O            1.004619
  bond distance:  H          O            1.068366
  bond distance:  H          O            0.968177
  bond distance:  H          O            0.987946


  Bond angles (degrees):
  ----------------------

                  atom 1     atom 2     atom 3         angle
                  ------     ------     ------         -----
  bond angle:     H          N          H            104.994
  bond angle:     H          N          H            102.726
  bond angle:     H          N          H            110.055
  bond angle:     H          O          H            100.120
  bond angle:     H          O          H            101.963
  bond angle:     H          O          H            104.167
  bond angle:     H          O          H            107.012




 Principal moments of inertia (u*A**2) and principal axes
 --------------------------------------------------------

   IA     356.829119          0.897138   -0.437005   -0.064571
   IB     474.073267         -0.045534   -0.236873    0.970473
   IC     676.049650          0.439397    0.867708    0.232406


 Rotational constants
 --------------------

               A                   B                   C

           1416.3054           1066.0357            747.5472 MHz
            0.047243            0.035559            0.024935 cm-1


@  Nuclear repulsion energy :  174.577770826469 Hartree


                     .---------------------------------------.
                     | Starting in Integral Section (HERMIT) |
                     `---------------------------------------'



 ***************************************************************************************
 ****************** Output from **INTEGRALS input processing (HERMIT) ******************
 ***************************************************************************************



    *************************************************************************
    ****************** Output from HERMIT input processing ******************
    *************************************************************************


 Default print level:        1

 * Nuclear model: Point charge

 Calculation of one- and two-electron Hamiltonian integrals.

 The following one-electron property integrals are calculated as requested:
          - overlap integrals
          - dipole length integrals

 Center of mass  (bohr):     -0.123814034186      0.488232190551      1.327186846138
 Operator center (bohr):      0.000000000000      0.000000000000      0.000000000000
 Gauge origin    (bohr):      0.000000000000      0.000000000000      0.000000000000
 Dipole origin   (bohr):      0.000000000000      0.000000000000      0.000000000000
 
  *********************************** 
  QMMM electrostatic potential: 
  Multipole order                                    0
  Isotropic polarization  
  *********************************** 
 
  ---------------- 
  QMMM information 
  ---------------- 
 
  MM coordinates in au 
  -------------------- 
     1      9.673756      9.172942     -8.534304
     2     10.083095      7.825227     -9.731114
     3      8.135316     10.228538     -9.135962
     4     -6.914105     -7.816618      5.319294
     5     -5.945477     -9.309303      5.754683
     6     -6.862370     -6.880716      6.974698
     7     -7.107141     -4.329264      9.116674
     8     -6.184448     -4.861273     10.825476
     9     -8.875276     -4.051716      9.551766
    10     11.312246      5.774754     11.337616
    11     12.794223      6.603858     10.780629
    12     11.268080      3.981262     11.401122
    13      0.013634     -3.428558     -4.807303
    14     -0.356166     -2.535013     -6.383485
    15     -1.628736     -4.068255     -4.239442
    16      9.176387      5.923318     -4.386806
    17      8.459546      6.533142     -2.655199
    18      9.209765      7.363027     -5.527661
    19      0.663889     -7.179332     -9.908307
    20     -0.545828     -5.982366     -9.175354
    21     -0.482780     -8.301646    -10.914495
    22      9.121761     -7.740662    -10.388036
    23     10.663173     -8.842992    -10.509075
    24      8.664566     -7.634187     -8.612034
    25     -8.770812      4.727195     -5.032178
    26    -10.539628      5.342430     -5.061342
    27     -8.602058      3.686529     -6.689549
    28     -6.334462     -1.391222     -5.738773
    29     -5.464406     -0.127541     -4.632082
    30     -7.284715     -2.386511     -4.627367
    31     -3.699849     -6.677929     -2.529580
    32     -2.394604     -7.926022     -2.534739
    33     -4.121077     -5.971332     -0.821103
    34     -4.153403      2.804174    -11.442231
    35     -3.829277      4.396807    -10.544623
    36     -4.235419      3.428540    -13.289484
    37     11.329180      0.444877     -2.164568
    38     11.815823      1.951945     -3.166306
    39      9.713587      1.002745     -1.589458
    40     11.409715     10.545025      1.571018
    41     11.492984     11.932114      2.984805
    42     12.289724     11.333296      0.087916
    43      7.401815      5.888557      5.655905
    44      7.611191      6.525245      3.923553
    45      8.153104      4.231584      6.089962
    46     -0.635449     -1.047810     -9.461953
    47      0.774436     -1.462744    -10.675405
    48     -1.882755      0.120003    -10.342734
    49     -7.069316      9.374977     10.397606
    50     -5.749121      9.064328     11.810242
    51     -8.180022     10.643750     11.179529
    52     -9.330789      6.295071      2.690462
    53    -10.447421      7.702960      2.376930
    54     -7.739625      6.806164      3.329626
    55     10.603429     -3.969517      9.910376
    56     10.345317     -2.456423     10.865783
    57     10.175338     -5.393099     10.974123
    58     -0.979334     -9.418826      9.399345
    59      0.538944    -10.413374      8.765285
    60     -0.510954     -7.713618      8.638354
    61      9.085427     10.618171      8.373652
    62      9.140547      9.002177      7.405338
    63      9.311431     10.212354     10.137933
    64      1.681153      6.672457    -10.663452
    65      3.143463      8.085019    -10.333714
    66      1.968913      5.350612     -9.299890
    67      7.885990     -8.292424     -5.187172
    68      7.745696     -6.448020     -4.828908
    69      9.495248     -8.729786     -4.220671
    70      3.941887     11.715767      1.361810
    71      2.690004     11.829281      0.103925
    72      3.613699     13.348676      2.407776
    73      2.877320     -2.970774     11.176022
    74      2.684265     -4.759171     11.236701
    75      3.011904     -2.727202      9.301321
    76     -3.066549      7.819632     -9.531932
    77     -3.117275      8.163160     -7.749327
    78     -1.250513      7.563971     -9.944514
    79     -5.460700      2.294481     -2.271867
    80     -6.981786      3.310498     -2.822353
    81     -3.995905      3.484551     -2.565373
    82      5.115094     10.717170     -9.820068
    83      4.283756     11.664934     -8.354957
    84      4.451715     11.846079    -11.213246
    85      4.921006      0.272533      4.261729
    86      6.397314      0.163684      5.490418
    87      3.324814      0.414519      5.070817
    88      2.235986      3.044090     -7.141114
    89      1.264066      1.400058     -7.642149
    90      4.012626      2.426112     -6.894197
    91     -7.155614     -9.132294     -5.758485
    92     -6.489822     -8.035386     -4.414455
    93     -6.471853    -10.796618     -5.750983
    94      7.437059      8.087877      0.317771
    95      6.117548      9.305259      0.371771
    96      8.809633      9.192851      0.733635
    97      5.514563     -3.069157     -4.890651
    98      3.758673     -3.722396     -4.937427
    99      5.626862     -2.846425     -3.052414
   100      2.869782     -9.704229     -6.266364
   101      2.265991     -8.398236     -7.555548
   102      4.614488     -9.288539     -6.063893
   103     -3.459280     -1.887732      6.521199
   104     -4.930125     -2.640456      7.398006
   105     -4.100881     -1.294623      4.861264
   106     -8.301361      1.407723     -9.159380
   107     -6.944063      2.126034    -10.151125
   108     -7.234871      0.126079     -8.168789
   109      1.497430     -6.100597      1.811909
   110      2.859505     -5.102631      0.973593
   111      0.879896     -7.507905      0.810957
   112     -4.665409     -5.756573     -9.220541
   113     -5.411643     -4.518942     -8.062356
   114     -5.135665     -7.392217     -8.495014
   115     -5.833702      8.953592     -4.788043
   116     -6.820354      7.459688     -4.973840
   117     -4.912018      8.728996     -3.178703
   118     10.636308     -6.318076      1.295328
   119     11.720204     -5.441616      2.488208
   120      9.274152     -7.122268      2.385741
   121     -0.345661    -10.457126     -2.239482
   122     -1.127116    -12.208736     -2.224744
   123      0.845069    -10.522439     -3.535405
   124    -11.385950     -9.852484     -2.716060
   125    -11.416665     -8.243405     -1.622351
   126    -10.041591     -9.799946     -3.924417
   127     -2.106674      8.560801     -0.795611
   128     -1.533405      7.045955     -1.691840
   129     -1.800975      8.371959      1.043422
   130      2.514088      6.363101      7.653599
   131      2.192283      6.212792      9.490630
   132      4.173961      5.661793      7.258742
   133     11.070293     -9.425344      5.265429
   134     12.850667     -8.814452      5.486531
   135     10.513512    -10.243508      6.848367
   136     -1.339266      7.938218      4.307532
   137      0.255508      7.558891      5.160836
   138     -2.416506      9.244999      5.359110
   139      7.287124      1.512166     -7.189323
   140      7.036361     -0.181149     -6.355557
   141      7.895100      2.812604     -6.077439
   142    -10.611436      1.403396      3.016755
   143    -10.347250      3.345645      2.944600
   144    -11.273256      0.995067      1.290022
   145      6.735982      2.593196      0.008668
   146      7.271337      4.265067      0.232402
   147      5.728429      2.074829      1.434028
   148    -10.136994    -11.076191     -9.605125
   149     -9.413606    -10.107442     -8.224636
   150    -11.105968    -12.610469     -9.006801
   151     -6.491871     -4.570288      1.465571
   152     -6.373033     -2.787420      2.059123
   153     -6.707621     -5.781182      2.873451
   154     10.725016      0.734198    -11.125118
   155     12.401205      0.809485    -10.337639
   156      9.495581      1.104452     -9.805745
   157      9.360293      1.059397      6.471414
   158     10.835994      0.845210      5.321951
   159      9.704173      0.005739      7.998937
   160      0.858841     -5.017315      7.021659
   161     -0.673005     -3.779698      6.993362
   162      1.162996     -5.686978      5.195129
   163     -4.112651     11.119079      6.643859
   164     -5.021991     10.204859      7.988993
   165     -3.166427     12.564069      7.519167
   166     -4.587544      4.268385      6.740249
   167     -3.194510      5.075018      5.810205
   168     -5.105214      3.120047      5.383195
   169      3.583601    -11.279668      7.449911
   170      5.398093    -11.140278      8.056252
   171      3.806424    -13.106836      6.857973
   172      6.816427     -5.344089      5.623589
   173      5.054836     -5.727869      6.064182
   174      7.912950     -5.043086      7.059089
   175     -9.460336     -4.310125     -2.618106
   176     -8.406322     -4.331608     -1.002237
   177    -10.764560     -3.094708     -2.215662
 
  MM charges 
  ---------- 
     1     -0.674440
     2      0.337220
     3      0.337220
     4     -0.674440
     5      0.337220
     6      0.337220
     7     -0.674440
     8      0.337220
     9      0.337220
    10     -0.674440
    11      0.337220
    12      0.337220
    13     -0.674440
    14      0.337220
    15      0.337220
    16     -0.674440
    17      0.337220
    18      0.337220
    19     -0.674440
    20      0.337220
    21      0.337220
    22     -0.674440
    23      0.337220
    24      0.337220
    25     -0.674440
    26      0.337220
    27      0.337220
    28     -0.674440
    29      0.337220
    30      0.337220
    31     -0.674440
    32      0.337220
    33      0.337220
    34     -0.674440
    35      0.337220
    36      0.337220
    37     -0.674440
    38      0.337220
    39      0.337220
    40     -0.674440
    41      0.337220
    42      0.337220
    43     -0.674440
    44      0.337220
    45      0.337220
    46     -0.674440
    47      0.337220
    48      0.337220
    49     -0.674440
    50      0.337220
    51      0.337220
    52     -0.674440
    53      0.337220
    54      0.337220
    55     -0.674440
    56      0.337220
    57      0.337220
    58     -0.674440
    59      0.337220
    60      0.337220
    61     -0.674440
    62      0.337220
    63      0.337220
    64     -0.674440
    65      0.337220
    66      0.337220
    67     -0.674440
    68      0.337220
    69      0.337220
    70     -0.674440
    71      0.337220
    72      0.337220
    73     -0.674440
    74      0.337220
    75      0.337220
    76     -0.674440
    77      0.337220
    78      0.337220
    79     -0.674440
    80      0.337220
    81      0.337220
    82     -0.674440
    83      0.337220
    84      0.337220
    85     -0.674440
    86      0.337220
    87      0.337220
    88     -0.674440
    89      0.337220
    90      0.337220
    91     -0.674440
    92      0.337220
    93      0.337220
    94     -0.674440
    95      0.337220
    96      0.337220
    97     -0.674440
    98      0.337220
    99      0.337220
   100     -0.674440
   101      0.337220
   102      0.337220
   103     -0.674440
   104      0.337220
   105      0.337220
   106     -0.674440
   107      0.337220
   108      0.337220
   109     -0.674440
   110      0.337220
   111      0.337220
   112     -0.674440
   113      0.337220
   114      0.337220
   115     -0.674440
   116      0.337220
   117      0.337220
   118     -0.674440
   119      0.337220
   120      0.337220
   121     -0.674440
   122      0.337220
   123      0.337220
   124     -0.674440
   125      0.337220
   126      0.337220
   127     -0.674440
   128      0.337220
   129      0.337220
   130     -0.674440
   131      0.337220
   132      0.337220
   133     -0.674440
   134      0.337220
   135      0.337220
   136     -0.674440
   137      0.337220
   138      0.337220
   139     -0.674440
   140      0.337220
   141      0.337220
   142     -0.674440
   143      0.337220
   144      0.337220
   145     -0.674440
   146      0.337220
   147      0.337220
   148     -0.674440
   149      0.337220
   150      0.337220
   151     -0.674440
   152      0.337220
   153      0.337220
   154     -0.674440
   155      0.337220
   156      0.337220
   157     -0.674440
   158      0.337220
   159      0.337220
   160     -0.674440
   161      0.337220
   162      0.337220
   163     -0.674440
   164      0.337220
   165      0.337220
   166     -0.674440
   167      0.337220
   168      0.337220
   169     -0.674440
   170      0.337220
   171      0.337220
   172     -0.674440
   173      0.337220
   174      0.337220
   175     -0.674440
   176      0.337220
   177      0.337220
 
  MM isotropic polarizabilities in au 
  ----------------------------------- 
     1      5.739350
     2      2.308390
     3      2.308390
     4      5.739350
     5      2.308390
     6      2.308390
     7      5.739350
     8      2.308390
     9      2.308390
    10      5.739350
    11      2.308390
    12      2.308390
    13      5.739350
    14      2.308390
    15      2.308390
    16      5.739350
    17      2.308390
    18      2.308390
    19      5.739350
    20      2.308390
    21      2.308390
    22      5.739350
    23      2.308390
    24      2.308390
    25      5.739350
    26      2.308390
    27      2.308390
    28      5.739350
    29      2.308390
    30      2.308390
    31      5.739350
    32      2.308390
    33      2.308390
    34      5.739350
    35      2.308390
    36      2.308390
    37      5.739350
    38      2.308390
    39      2.308390
    40      5.739350
    41      2.308390
    42      2.308390
    43      5.739350
    44      2.308390
    45      2.308390
    46      5.739350
    47      2.308390
    48      2.308390
    49      5.739350
    50      2.308390
    51      2.308390
    52      5.739350
    53      2.308390
    54      2.308390
    55      5.739350
    56      2.308390
    57      2.308390
    58      5.739350
    59      2.308390
    60      2.308390
    61      5.739350
    62      2.308390
    63      2.308390
    64      5.739350
    65      2.308390
    66      2.308390
    67      5.739350
    68      2.308390
    69      2.308390
    70      5.739350
    71      2.308390
    72      2.308390
    73      5.739350
    74      2.308390
    75      2.308390
    76      5.739350
    77      2.308390
    78      2.308390
    79      5.739350
    80      2.308390
    81      2.308390
    82      5.739350
    83      2.308390
    84      2.308390
    85      5.739350
    86      2.308390
    87      2.308390
    88      5.739350
    89      2.308390
    90      2.308390
    91      5.739350
    92      2.308390
    93      2.308390
    94      5.739350
    95      2.308390
    96      2.308390
    97      5.739350
    98      2.308390
    99      2.308390
   100      5.739350
   101      2.308390
   102      2.308390
   103      5.739350
   104      2.308390
   105      2.308390
   106      5.739350
   107      2.308390
   108      2.308390
   109      5.739350
   110      2.308390
   111      2.308390
   112      5.739350
   113      2.308390
   114      2.308390
   115      5.739350
   116      2.308390
   117      2.308390
   118      5.739350
   119      2.308390
   120      2.308390
   121      5.739350
   122      2.308390
   123      2.308390
   124      5.739350
   125      2.308390
   126      2.308390
   127      5.739350
   128      2.308390
   129      2.308390
   130      5.739350
   131      2.308390
   132      2.308390
   133      5.739350
   134      2.308390
   135      2.308390
   136      5.739350
   137      2.308390
   138      2.308390
   139      5.739350
   140      2.308390
   141      2.308390
   142      5.739350
   143      2.308390
   144      2.308390
   145      5.739350
   146      2.308390
   147      2.308390
   148      5.739350
   149      2.308390
   150      2.308390
   151      5.739350
   152      2.308390
   153      2.308390
   154      5.739350
   155      2.308390
   156      2.308390
   157      5.739350
   158      2.308390
   159      2.308390
   160      5.739350
   161      2.308390
   162      2.308390
   163      5.739350
   164      2.308390
   165      2.308390
   166      5.739350
   167      2.308390
   168      2.308390
   169      5.739350
   170      2.308390
   171      2.308390
   172      5.739350
   173      2.308390
   174      2.308390
   175      5.739350
   176      2.308390
   177      2.308390


     ************************************************************************
     ************************** Output from HERINT **************************
     ************************************************************************



                      Nuclear contribution to dipole moments
                      --------------------------------------

                 au               Debye          C m (/(10**-30)

      x     -5.70061964       -14.48952892       -48.33186603
      y     24.22123768        61.56424145       205.35620497
      z     66.39510788       168.75952031       562.92116698


  Time used in HUCKEL     is       0.32 seconds
  Time used in OVERLAP    is       0.17 seconds
  Time used in POPOVLP    is       0.29 seconds
  Time used in DIPLEN     is       0.48 seconds
  Time used in QUADRUP    is       0.58 seconds
  Time used in KINENE     is       0.32 seconds

 Threshold for neglecting two-electron integrals:  1.00D-12
 HERMIT - Number of two-electron integrals written:    25166550 ( 33.6% )
 HERMIT - Megabytes written:                            288.173

  Time used in TWOINT     is      13.49 seconds
  Total CPU  time used in HERMIT:  15.71 seconds
  Total wall time used in HERMIT:   5.61 seconds


                        .----------------------------------.
                        | End of Integral Section (HERMIT) |
                        `----------------------------------'



                   .--------------------------------------------.
                   | Starting in Wave Function Section (SIRIUS) |
                   `--------------------------------------------'

NCCEXCI for singlet:   15
 CCSD_INPUT: core-val requested
 Requested number of core orbs per sym
                     1
 Indices of requested core orbs
                     1

 *** Output from Huckel module :

     Using EWMO model:          T
     Using EHT  model:          F
     Number of Huckel orbitals each symmetry:   36

 EWMO - Energy Weighted Maximum Overlap - is a Huckel type method,
        which normally is better than Extended Huckel Theory.
 Reference: Linderberg and Ohrn, Propagators in Quantum Chemistry (Wiley, 1973)

 Huckel EWMO eigenvalues for symmetry :  1
          -20.684656     -20.684355     -20.683913     -20.683728     -15.673716
           -1.677847      -1.595882      -1.586125      -1.553657      -1.463424
           -0.805046      -0.800382      -0.782355      -0.766091      -0.723620
           -0.706993      -0.699831      -0.692755      -0.681369      -0.665673
           -0.616582      -0.614534      -0.613005      -0.605277      -0.519021
           -0.265620      -0.247380      -0.238952      -0.236484      -0.197600
           -0.188826      -0.181087      -0.173985      -0.164867      -0.155337
           -0.145824

 **********************************************************************
 *SIRIUS* a direct, restricted step, second order MCSCF program       *
 **********************************************************************

 
     Date and time (Linux)  : Sat Dec 22 15:38:15 2018
     Host name              : n-62-30-18                              

 Title lines from ".mol" input file:
                                                                             
                                                                             

 Print level on unit LUPRI =   2 is   0
 Print level on unit LUW4  =   2 is  11

@    (Integral direct) CC calculation.

@    This is a combination run starting with
@              a restricted, closed shell Hartree-Fock calculation


 Initial molecular orbitals are obtained according to
 ".MOSTART EWMO  " input option

@    QM part is embedded in an environment :

@         Model: QMMM

     Wave function specification
     ============================

     For the specification of the Coupled Cluster: see later.

@    Wave function type        --- CC ---
@    Number of closed shell electrons          50
@    Number of electrons in active shells       0
@    Total charge of the molecule               0

@    Spin multiplicity and 2 M_S                1         0
@    Total number of symmetries                 1 (point group: C1 )
@    Reference state symmetry                   1 (irrep name : A  )

     Orbital specifications
     ======================
@    Abelian symmetry species          All |    1
@                                          |  A  
                                       --- |  ---
@    Occupied SCF orbitals              25 |   25
@    Secondary orbitals                131 |  131
@    Total number of orbitals          156 |  156
@    Number of basis functions         156 |  156

     Optimization information
     ========================
@    Number of configurations                 1
@    Number of orbital rotations           3275
     ------------------------------------------
@    Total number of variables             3276

     Maximum number of Fock   iterations      0
     Maximum number of DIIS   iterations     60
     Maximum number of QC-SCF iterations     60
     Threshold for SCF convergence     1.00D-07


 Changes of defaults for CC:
 ---------------------------


 -Implicit frozen core calculation
 -Excitation energies calculated
 -One-photon absorption strengths will be calculated
 -Oscillator strengths calculated
  
* Read MO coefficients from SIRIUS.RST with label "NEWORB  " and header info: 22Dec18  REORTHO 


 ***********************************************
 ***** DIIS acceleration of SCF iterations *****
 ***********************************************

 C1-DIIS algorithm; max error vectors =    8
 -----------------------------------------------------------------------------

 *** DIIS iteration number    1
 RDSUPM called. NFMAT, ISYMDM(1:NFMAT)                     1
                     1

Calculating AOSUPINT
     (Precalculated two-electron integrals are transformed to P-supermatrix elements.
      Threshold for discarding integrals :  1.00D-12 )
  CPU  time used in FORMSUP    is   5.70 seconds
  WALL time used in FORMSUP    is   9.60 seconds

 ITDIIS, energy, error norm, change in energy, scr.thr., difden:
@ DIIS iter.   1    -359.984700992        3.72001D+00   -3.60D+02  -20    F

 (DIIS_RED) Control Parameters C2DIIS =         F NEVC =    1


 (DIIS_RED) B matrix:

               Column   1
       1      13.83844007
    ==== End of matrix output ====

 DIIS C vector; C2DIIS = F, LAMBDA = -1.38D+01
    1.000000
* Read MO coefficients from SIRIUS.RST with label "NEWORB  " and header info: 22Dec18  DIIS   1
      Virial theorem: -V/T =      1.998814
@      MULPOP N      -0.30; H       0.15; H       0.17; H       0.17; O      -0.65; O      -0.64; O      -0.85; O      -0.64; H       0.32; H       0.32; 
@             H       0.33; H       0.31; H       0.32; H       0.33; H       0.33; H       0.33; 
   1  Level shift: doubly occupied orbital energies shifted by -2.00D-01

 DIIS Fock eigenvalues in symmetry 1
      -20.72751      -20.71610      -20.71190      -20.51249      -16.01564
       -1.54920       -1.54037       -1.52058       -1.44889       -1.42325
       -0.95787       -0.93495       -0.93015       -0.91270       -0.88252
       -0.84696       -0.80435       -0.80193       -0.80071       -0.75437
       -0.75326       -0.74961       -0.74540       -0.68580       -0.64268
        0.10541        0.15327        0.16556        0.19247        0.22078
        0.23964        0.25936        0.27124        0.28662        0.29291
        0.37528        0.42753        0.46996        0.50992        0.53397
        0.55295        0.56205        0.57396        0.58496        0.60165
        0.62328        0.64594        0.82008        0.84083        0.85789
        0.94014        0.95289        0.95588        0.97688        1.00493
        1.02854        1.03989        1.05843        1.09879        1.10244
        1.12039        1.16555        1.21127        1.24584        1.29415
        1.32594        1.33047        1.37881        1.42848        1.43148
        1.46147        1.47911        1.48706        1.50719        1.51085
        1.53114        1.63842        1.64818        1.65567        1.67540
        1.69568        1.70958        1.75820        1.83024        1.84091
        1.86028        1.87714        1.91276        1.96358        2.04323
        2.07278        2.11143        2.16696        2.19305        2.26205
        2.28437        2.29963        2.32728        2.42369        2.46950
        2.53380        2.56554        2.59624        2.63692        2.66157
        2.71836        2.73764        2.78661        2.78967        2.81207
        2.83260        2.85937        2.89807        3.02214        3.27625
        3.31638        3.38344        3.41114        3.41279        3.41779
        3.46649        3.49238        3.49660        3.55423        3.55953
        3.61961        3.62921        3.68275        3.90716        3.93822
        3.97367        4.01747        4.15028        4.17996        4.20485
        4.23456        4.45632        4.91291        5.04213        5.30151
        5.30305        5.35175        5.44691        5.66416        5.71008
        5.72770        5.78907        5.91060        6.03375        6.11289
        6.15755       36.74324       51.50544       51.53873       51.54905
       51.76098
 Time used in FCKEIG, thr_jaco:   4.69D-01  4.70D-02  1.63D-04
 CPU and wall times used in FCKEIG, THR_FCKEIG:   4.69D-01  4.70D-02  3.72D-02
 -----------------------------------------------------------------------------

 *** DIIS iteration number    2
 RDSUPM called. NFMAT, ISYMDM(1:NFMAT)                     1
                     1

 ITDIIS, energy, error norm, change in energy, scr.thr., difden:
@ DIIS iter.   2    -360.753249875        9.56651D-01   -7.69D-01  -20    F

 (DIIS_RED) Control Parameters C2DIIS =         F NEVC =    2


 (DIIS_RED) B matrix:

               Column   1     Column   2
       1      13.83844007
       2       0.79080386     0.91518119
    ==== End of matrix output ====

 DIIS C vector; C2DIIS = F, LAMBDA = -9.14D-01
    0.009443    0.990557
* Read MO coefficients from SIRIUS.RST with label "NEWORB  " and header info: 22Dec18  DIIS   2
      Virial theorem: -V/T =      2.005253
@      MULPOP N      -0.65; H       0.23; H       0.24; H       0.24; O      -0.68; O      -0.60; O      -0.71; O      -0.59; H       0.33; H       0.35; 
@             H       0.32; H       0.29; H       0.28; H       0.34; H       0.32; H       0.28; 
   2  Level shift: doubly occupied orbital energies shifted by -1.00D-01

 DIIS Fock eigenvalues in symmetry 1
      -20.71839      -20.70201      -20.68032      -20.66332      -15.52431
       -1.43345       -1.43343       -1.42644       -1.40712       -1.19882
       -0.80166       -0.78897       -0.76973       -0.76530       -0.71026
       -0.70527       -0.69851       -0.69381       -0.68337       -0.67552
       -0.64365       -0.63200       -0.61695       -0.61538       -0.50730
        0.15062        0.18622        0.19379        0.22046        0.24733
        0.27552        0.28519        0.30375        0.31264        0.32973
        0.40161        0.49096        0.52383        0.54957        0.56967
        0.57579        0.59825        0.60980        0.62404        0.63429
        0.64907        0.71466        0.91773        0.92591        0.94094
        0.95545        0.97170        0.98057        0.99258        1.00223
        1.02430        1.04526        1.09389        1.10759        1.12206
        1.14086        1.16281        1.27822        1.32778        1.33814
        1.38222        1.39727        1.42038        1.46632        1.47779
        1.52275        1.53372        1.53597        1.53908        1.55535
        1.56643        1.63575        1.69242        1.70132        1.72866
        1.74691        1.80124        1.83558        1.88857        1.90497
        1.92187        1.94944        1.99332        2.02746        2.14742
        2.16284        2.19770        2.21772        2.24938        2.29065
        2.30626        2.36103        2.39175        2.51384        2.54981
        2.59740        2.62202        2.65843        2.68146        2.74816
        2.79746        2.80545        2.85176        2.86861        2.89098
        2.94491        3.00214        3.04716        3.16693        3.39314
        3.41338        3.41957        3.43334        3.44689        3.46797
        3.48638        3.49157        3.51088        3.52719        3.57022
        3.61664        3.64456        3.66432        3.91382        3.95295
        3.96587        4.00469        4.15398        4.17655        4.21162
        4.22852        4.65300        5.15304        5.27500        5.28044
        5.29455        5.30660        5.36502        5.64470        5.64712
        5.70675        5.73756        5.90174        6.03032        6.04483
        6.14117       37.12756       51.41751       51.46180       51.47760
       51.51561
 Time used in FCKEIG, thr_jaco:   2.96D-01  3.00D-02  4.18D-05
 CPU and wall times used in FCKEIG, THR_FCKEIG:   2.96D-01  3.00D-02  9.57D-03
 -----------------------------------------------------------------------------

 *** DIIS iteration number    3
 RDSUPM called. NFMAT, ISYMDM(1:NFMAT)                     1
                     1

 ITDIIS, energy, error norm, change in energy, scr.thr., difden:
@ DIIS iter.   3    -360.815636808        3.66767D-01   -6.24D-02  -20    F

 (DIIS_RED) Control Parameters C2DIIS =         F NEVC =    3


 (DIIS_RED) B matrix:

               Column   1     Column   2     Column   3
       1      13.83844007
       2       0.79080386     0.91518119
       3       0.68882750     0.05468538     0.13451790
    ==== End of matrix output ====

 DIIS C vector; C2DIIS = F, LAMBDA = -1.02D-01
   -0.045361    0.093669    0.951692
* Read MO coefficients from SIRIUS.RST with label "NEWORB  " and header info: 22Dec18  DIIS   3
      Virial theorem: -V/T =      2.003040
@      MULPOP N      -0.56; H       0.20; H       0.21; H       0.21; O      -0.77; O      -0.66; O      -0.81; O      -0.63; H       0.37; H       0.40; 
@             H       0.35; H       0.31; H       0.34; H       0.39; H       0.35; H       0.30; 
   3  Level shift: doubly occupied orbital energies shifted by -5.00D-02

 DIIS Fock eigenvalues in symmetry 1
      -20.60700      -20.59422      -20.58924      -20.52641      -15.61201
       -1.37245       -1.36925       -1.35979       -1.31179       -1.18563
       -0.73862       -0.72413       -0.70507       -0.68843       -0.67153
       -0.65568       -0.64126       -0.63102       -0.62510       -0.59326
       -0.56816       -0.55882       -0.54777       -0.51215       -0.48043
        0.15498        0.19070        0.19848        0.22459        0.24996
        0.27790        0.29050        0.30829        0.31401        0.33274
        0.40816        0.49113        0.52479        0.55898        0.57944
        0.58444        0.60608        0.61548        0.63247        0.64538
        0.65620        0.71477        0.91612        0.92456        0.93846
        0.97225        0.98705        0.99161        1.00540        1.01655
        1.03636        1.05890        1.10262        1.12098        1.13367
        1.15267        1.17756        1.27645        1.33367        1.34767
        1.38456        1.39810        1.42486        1.47638        1.48909
        1.53473        1.54433        1.54649        1.55025        1.56635
        1.57900        1.65520        1.70166        1.71185        1.73881
        1.75628        1.80336        1.83673        1.89507        1.91508
        1.93076        1.95413        1.99610        2.03194        2.15169
        2.15953        2.18644        2.22888        2.26166        2.31246
        2.31943        2.37523        2.40548        2.52851        2.55020
        2.60722        2.63064        2.66944        2.69101        2.75339
        2.80571        2.81354        2.86089        2.87546        2.89716
        2.92770        2.97786        3.02712        3.14669        3.41713
        3.43096        3.44308        3.45423        3.46035        3.47517
        3.48002        3.50910        3.53720        3.54549        3.59364
        3.66663        3.66821        3.68271        3.93676        3.97759
        4.01016        4.02251        4.18214        4.22342        4.23168
        4.25263        4.59664        5.09789        5.22858        5.31170
        5.32543        5.37858        5.38366        5.67541        5.72304
        5.73639        5.75756        5.93203        6.07119        6.10896
        6.16212       36.99410       51.46323       51.51369       51.53994
       51.60190
 Time used in FCKEIG, thr_jaco:   3.09D-01  3.20D-02  1.60D-05
 CPU and wall times used in FCKEIG, THR_FCKEIG:   3.09D-01  3.20D-02  3.67D-03
 -----------------------------------------------------------------------------

 *** DIIS iteration number    4
 RDSUPM called. NFMAT, ISYMDM(1:NFMAT)                     1
                     1

 ITDIIS, energy, error norm, change in energy, scr.thr., difden:
@ DIIS iter.   4    -360.825471626        1.16569D-01   -9.83D-03  -20    F

 (DIIS_RED) Control Parameters C2DIIS =         F NEVC =    4


 (DIIS_RED) B matrix:

               Column   1     Column   2     Column   3     Column   4
       1      13.83844007
       2       0.79080386     0.91518119
       3       0.68882750     0.05468538     0.13451790
       4       0.01550516     0.08936454    -0.00285253     0.01358834
    ==== End of matrix output ====

 DIIS C vector; C2DIIS = F, LAMBDA = -4.54D-03
    0.000149   -0.098871    0.094496    1.004226
* Read MO coefficients from SIRIUS.RST with label "NEWORB  " and header info: 22Dec18  DIIS   4
      Virial theorem: -V/T =      2.003929
@      MULPOP N      -0.63; H       0.21; H       0.22; H       0.23; O      -0.79; O      -0.67; O      -0.80; O      -0.65; H       0.39; H       0.41; 
@             H       0.36; H       0.32; H       0.35; H       0.39; H       0.36; H       0.31; 
   4  Level shift: doubly occupied orbital energies shifted by -2.50D-02

 DIIS Fock eigenvalues in symmetry 1
      -20.59238      -20.57687      -20.56852      -20.54167      -15.55724
       -1.34983       -1.34777       -1.33879       -1.30010       -1.15105
       -0.71556       -0.70148       -0.68218       -0.66765       -0.64353
       -0.62233       -0.61890       -0.60740       -0.59950       -0.57692
       -0.54318       -0.53331       -0.52105       -0.49721       -0.44637
        0.15557        0.19007        0.19789        0.22364        0.25000
        0.27906        0.29082        0.30919        0.31554        0.33455
        0.40876        0.49433        0.52705        0.55918        0.57888
        0.58359        0.60471        0.61588        0.63076        0.64276
        0.65527        0.71778        0.92021        0.92934        0.94318
        0.97159        0.98707        0.99308        1.00581        1.01469
        1.03452        1.05825        1.10325        1.11931        1.13291
        1.15187        1.17430        1.27913        1.33471        1.34672
        1.38666        1.40158        1.42611        1.47440        1.48737
        1.53323        1.54235        1.54422        1.54802        1.56535
        1.57692        1.65096        1.69941        1.70977        1.73724
        1.75578        1.80752        1.83904        1.89396        1.91388
        1.92928        1.95545        1.99929        2.03377        2.15544
        2.15978        2.19338        2.22672        2.26012        2.30530
        2.31612        2.37217        2.40332        2.52857        2.55496
        2.60546        2.62849        2.66785        2.68893        2.75671
        2.80629        2.81402        2.85876        2.87338        2.89800
        2.93595        2.98776        3.03597        3.15505        3.41444
        3.43900        3.44075        3.45276        3.46222        3.46683
        3.48914        3.50714        3.52477        3.54472        3.59106
        3.65624        3.66481        3.68196        3.93392        3.97499
        3.99960        4.02154        4.17898        4.21348        4.23052
        4.25015        4.61158        5.11360        5.24371        5.30671
        5.32223        5.35658        5.38235        5.67043        5.70511
        5.73044        5.75597        5.92648        6.06692        6.08844
        6.15972       37.02340       51.45304       51.50628       51.53577
       51.56251
 Time used in FCKEIG, thr_jaco:   2.84D-01  2.80D-02  5.09D-06
 CPU and wall times used in FCKEIG, THR_FCKEIG:   2.84D-01  2.80D-02  1.17D-03
 -----------------------------------------------------------------------------

 *** DIIS iteration number    5
 RDSUPM called. NFMAT, ISYMDM(1:NFMAT)                     1
                     1

 ITDIIS, energy, error norm, change in energy, scr.thr., difden:
@ DIIS iter.   5    -360.826820232        2.70047D-02   -1.35D-03  -20    F

 (DIIS_RED) Control Parameters C2DIIS =         F NEVC =    5


 (DIIS_RED) B matrix:

               Column   1     Column   2     Column   3     Column   4     Column   5
       1      13.83844007
       2       0.79080386     0.91518119
       3       0.68882750     0.05468538     0.13451790
       4       0.01550516     0.08936454    -0.00285253     0.01358834
       5       0.01614405     0.00735615     0.00580793     0.00122520     0.00072925
    ==== End of matrix output ====

 DIIS C vector; C2DIIS = F, LAMBDA = -4.19D-04
    0.001476    0.005876   -0.060595   -0.128766    1.182009
* Read MO coefficients from SIRIUS.RST with label "NEWORB  " and header info: 22Dec18  DIIS   5
      Virial theorem: -V/T =      2.003596
@      MULPOP N      -0.63; H       0.21; H       0.22; H       0.23; O      -0.81; O      -0.68; O      -0.82; O      -0.66; H       0.39; H       0.42; 
@             H       0.36; H       0.33; H       0.36; H       0.40; H       0.36; H       0.31; 

 DIIS Fock eigenvalues in symmetry 1
      -20.56580      -20.55110      -20.54285      -20.50917      -15.52701
       -1.32456       -1.32241       -1.31317       -1.27254       -1.12464
       -0.69086       -0.67660       -0.65714       -0.64135       -0.61760
       -0.59640       -0.59397       -0.58259       -0.57443       -0.54998
       -0.51662       -0.50711       -0.49498       -0.46898       -0.41960
        0.15560        0.18992        0.19773        0.22357        0.25012
        0.27916        0.29083        0.30933        0.31572        0.33479
        0.40914        0.49454        0.52715        0.55926        0.57893
        0.58356        0.60441        0.61585        0.63053        0.64278
        0.65518        0.71815        0.92110        0.93030        0.94388
        0.97239        0.98774        0.99380        1.00668        1.01578
        1.03586        1.05894        1.10352        1.11978        1.13296
        1.15221        1.17494        1.27967        1.33501        1.34690
        1.38722        1.40207        1.42656        1.47400        1.48705
        1.53279        1.54205        1.54420        1.54750        1.56508
        1.57698        1.65200        1.69884        1.70928        1.73730
        1.75555        1.80779        1.83924        1.89333        1.91336
        1.92874        1.95560        1.99956        2.03379        2.15503
        2.16024        2.19405        2.22621        2.25961        2.30559
        2.31564        2.37171        2.40283        2.52920        2.55548
        2.60483        2.62764        2.66726        2.68845        2.75681
        2.80583        2.81376        2.85794        2.87236        2.89765
        2.93689        2.98881        3.03705        3.15606        3.41501
        3.44060        3.44156        3.45304        3.46265        3.46918
        3.49059        3.50733        3.52729        3.54479        3.59151
        3.65871        3.66496        3.68206        3.93441        3.97533
        4.00199        4.02159        4.17972        4.21580        4.23069
        4.25048        4.61418        5.11592        5.24598        5.30784
        5.32291        5.36107        5.38292        5.67121        5.70887
        5.73102        5.75623        5.92707        6.06706        6.09217
        6.15977       37.02851       51.45462       51.50703       51.53645
       51.56985
 Time used in FCKEIG, thr_jaco:   2.44D-01  2.50D-02  1.18D-06
 CPU and wall times used in FCKEIG, THR_FCKEIG:   2.44D-01  2.50D-02  2.70D-04
 -----------------------------------------------------------------------------

 *** DIIS iteration number    6
 RDSUPM called. NFMAT, ISYMDM(1:NFMAT)                     1
                     1

 ITDIIS, energy, error norm, change in energy, scr.thr., difden:
@ DIIS iter.   6    -360.826930822        9.14752D-03   -1.11D-04  -20    F

 (DIIS_RED) Control Parameters C2DIIS =         F NEVC =    6


 (DIIS_RED) B matrix:

               Column   1     Column   2     Column   3     Column   4     Column   5     Column   6
       1      13.83844007
       2       0.79080386     0.91518119
       3       0.68882750     0.05468538     0.13451790
       4       0.01550516     0.08936454    -0.00285253     0.01358834
       5       0.01614405     0.00735615     0.00580793     0.00122520     0.00072925
       6      -0.00219892    -0.00035885     0.00068347     0.00028452     0.00007737     0.00008368
    ==== End of matrix output ====

 DIIS C vector; C2DIIS = F, LAMBDA = -4.30D-05
    0.000574    0.009649   -0.021980   -0.102703    0.199510    0.914952
* Read MO coefficients from SIRIUS.RST with label "NEWORB  " and header info: 22Dec18  DIIS   6
      Virial theorem: -V/T =      2.003747
@      MULPOP N      -0.63; H       0.21; H       0.22; H       0.22; O      -0.81; O      -0.69; O      -0.82; O      -0.66; H       0.40; H       0.42; 
@             H       0.37; H       0.33; H       0.36; H       0.40; H       0.37; H       0.31; 

 DIIS Fock eigenvalues in symmetry 1
      -20.56618      -20.55109      -20.54297      -20.51190      -15.53103
       -1.32454       -1.32231       -1.31321       -1.27330       -1.12593
       -0.69102       -0.67669       -0.65740       -0.64219       -0.61866
       -0.59738       -0.59433       -0.58280       -0.57469       -0.55086
       -0.51647       -0.50686       -0.49485       -0.46958       -0.42079
        0.15548        0.18985        0.19763        0.22341        0.24993
        0.27901        0.29076        0.30920        0.31554        0.33460
        0.40879        0.49419        0.52682        0.55904        0.57873
        0.58344        0.60425        0.61563        0.63037        0.64251
        0.65497        0.71777        0.92052        0.92976        0.94327
        0.97216        0.98766        0.99376        1.00644        1.01537
        1.03546        1.05874        1.10334        1.11952        1.13282
        1.15201        1.17454        1.27918        1.33478        1.34677
        1.38673        1.40161        1.42618        1.47379        1.48694
        1.53261        1.54174        1.54384        1.54734        1.56493
        1.57662        1.65150        1.69860        1.70914        1.73693
        1.75530        1.80731        1.83876        1.89301        1.91315
        1.92852        1.95516        1.99908        2.03340        2.15471
        2.15949        2.19319        2.22601        2.25940        2.30504
        2.31537        2.37156        2.40263        2.52866        2.55487
        2.60460        2.62734        2.66704        2.68814        2.75638
        2.80554        2.81341        2.85769        2.87201        2.89732
        2.93584        2.98763        3.03589        3.15502        3.41487
        3.43952        3.44109        3.45304        3.46238        3.46811
        3.48928        3.50732        3.52636        3.54471        3.59135
        3.65782        3.66498        3.68199        3.93424        3.97526
        4.00109        4.02150        4.17950        4.21494        4.23060
        4.25045        4.61204        5.11388        5.24400        5.30768
        5.32292        5.35959        5.38285        5.67099        5.70751
        5.73091        5.75613        5.92681        6.06703        6.09071
        6.15964       37.02457       51.45423       51.50704       51.53631
       51.56717
 Time used in FCKEIG, thr_jaco:   2.93D-01  3.00D-02  4.00D-07
 CPU and wall times used in FCKEIG, THR_FCKEIG:   2.93D-01  3.00D-02  9.15D-05
 -----------------------------------------------------------------------------

 *** DIIS iteration number    7
 RDSUPM called. NFMAT, ISYMDM(1:NFMAT)                     1
                     1

 ITDIIS, energy, error norm, change in energy, scr.thr., difden:
@ DIIS iter.   7    -360.826939242        2.61702D-03   -8.42D-06  -20    F

 (DIIS_RED) Control Parameters C2DIIS =         F NEVC =    7


 (DIIS_RED) B matrix:

               Column   1     Column   2     Column   3     Column   4     Column   5     Column   6
       1      13.83844007
       2       0.79080386     0.91518119
       3       0.68882750     0.05468538     0.13451790
       4       0.01550516     0.08936454    -0.00285253     0.01358834
       5       0.01614405     0.00735615     0.00580793     0.00122520     0.00072925
       6      -0.00219892    -0.00035885     0.00068347     0.00028452     0.00007737     0.00008368
       7       0.00049649    -0.00001438     0.00007955     0.00000346     0.00004435    -0.00000089

               Column   7
       7       0.00000685
    ==== End of matrix output ====

 DIIS C vector; C2DIIS = F, LAMBDA = -1.34D-06
   -0.000218   -0.001745    0.008675    0.027832   -0.159923   -0.002784    1.128162
* Read MO coefficients from SIRIUS.RST with label "NEWORB  " and header info: 22Dec18  DIIS   7
      Virial theorem: -V/T =      2.003716
@      MULPOP N      -0.63; H       0.21; H       0.22; H       0.22; O      -0.82; O      -0.69; O      -0.82; O      -0.66; H       0.40; H       0.42; 
@             H       0.37; H       0.33; H       0.36; H       0.40; H       0.37; H       0.31; 

 DIIS Fock eigenvalues in symmetry 1
      -20.56612      -20.55116      -20.54303      -20.51118      -15.53039
       -1.32452       -1.32229       -1.31311       -1.27297       -1.12571
       -0.69105       -0.67670       -0.65735       -0.64198       -0.61851
       -0.59728       -0.59438       -0.58289       -0.57475       -0.55065
       -0.51634       -0.50681       -0.49481       -0.46922       -0.42056
        0.15551        0.18986        0.19765        0.22345        0.24997
        0.27903        0.29077        0.30925        0.31556        0.33463
        0.40889        0.49426        0.52688        0.55910        0.57879
        0.58347        0.60428        0.61565        0.63038        0.64258
        0.65500        0.71782        0.92061        0.92989        0.94335
        0.97223        0.98770        0.99380        1.00654        1.01549
        1.03561        1.05881        1.10338        1.11961        1.13284
        1.15206        1.17466        1.27928        1.33482        1.34681
        1.38681        1.40167        1.42627        1.47380        1.48692
        1.53258        1.54177        1.54395        1.54731        1.56492
        1.57674        1.65169        1.69861        1.70912        1.73702
        1.75531        1.80734        1.83882        1.89301        1.91313
        1.92851        1.95523        1.99915        2.03347        2.15472
        2.15956        2.19330        2.22599        2.25938        2.30516
        2.31538        2.37154        2.40261        2.52880        2.55493
        2.60458        2.62732        2.66702        2.68821        2.75640
        2.80552        2.81340        2.85766        2.87199        2.89741
        2.93601        2.98780        3.03607        3.15516        3.41494
        3.43976        3.44118        3.45304        3.46241        3.46841
        3.48948        3.50732        3.52667        3.54470        3.59143
        3.65814        3.66499        3.68199        3.93430        3.97527
        4.00138        4.02149        4.17960        4.21523        4.23061
        4.25047        4.61241        5.11418        5.24430        5.30776
        5.32292        5.36006        5.38284        5.67105        5.70792
        5.73092        5.75611        5.92688        6.06701        6.09114
        6.15962       37.02520       51.45430       51.50697       51.53626
       51.56788
 Time used in FCKEIG, thr_jaco:   2.87D-01  2.90D-02  1.14D-07
 CPU and wall times used in FCKEIG, THR_FCKEIG:   2.87D-01  2.90D-02  2.62D-05
 -----------------------------------------------------------------------------

 *** DIIS iteration number    8
 RDSUPM called. NFMAT, ISYMDM(1:NFMAT)                     1
                     1

 ITDIIS, energy, error norm, change in energy, scr.thr., difden:
@ DIIS iter.   8    -360.826939946        3.65198D-04   -7.04D-07  -20    F

 (DIIS_RED) Control Parameters C2DIIS =         F NEVC =    8


 (DIIS_RED) B matrix:

               Column   1     Column   2     Column   3     Column   4     Column   5     Column   6
       1      13.83844007
       2       0.79080386     0.91518119
       3       0.68882750     0.05468538     0.13451790
       4       0.01550516     0.08936454    -0.00285253     0.01358834
       5       0.01614405     0.00735615     0.00580793     0.00122520     0.00072925
       6      -0.00219892    -0.00035885     0.00068347     0.00028452     0.00007737     0.00008368
       7       0.00049649    -0.00001438     0.00007955     0.00000346     0.00004435    -0.00000089
       8       0.00007114     0.00000616    -0.00000363     0.00000422     0.00000108     0.00000141

               Column   7     Column   8
       7       0.00000685
       8       0.00000036     0.00000013
    ==== End of matrix output ====

 DIIS C vector; C2DIIS = F, LAMBDA = -7.21D-08
    0.000012    0.000117   -0.000923   -0.002923    0.023945   -0.025347   -0.199192    1.204312
* Read MO coefficients from SIRIUS.RST with label "NEWORB  " and header info: 22Dec18  DIIS   8
      Virial theorem: -V/T =      2.003732
@      MULPOP N      -0.63; H       0.21; H       0.22; H       0.22; O      -0.82; O      -0.69; O      -0.82; O      -0.66; H       0.40; H       0.42; 
@             H       0.37; H       0.33; H       0.36; H       0.40; H       0.37; H       0.31; 

 DIIS Fock eigenvalues in symmetry 1
      -20.56610      -20.55111      -20.54300      -20.51121      -15.53041
       -1.32451       -1.32227       -1.31311       -1.27298       -1.12571
       -0.69104       -0.67668       -0.65734       -0.64199       -0.61851
       -0.59729       -0.59440       -0.58290       -0.57476       -0.55067
       -0.51633       -0.50680       -0.49479       -0.46922       -0.42057
        0.15550        0.18986        0.19764        0.22345        0.24997
        0.27903        0.29077        0.30925        0.31556        0.33462
        0.40888        0.49425        0.52687        0.55909        0.57879
        0.58348        0.60428        0.61565        0.63038        0.64258
        0.65500        0.71782        0.92060        0.92989        0.94334
        0.97223        0.98770        0.99380        1.00654        1.01548
        1.03561        1.05881        1.10338        1.11962        1.13285
        1.15207        1.17466        1.27927        1.33483        1.34681
        1.38680        1.40167        1.42626        1.47379        1.48692
        1.53258        1.54177        1.54394        1.54731        1.56492
        1.57673        1.65168        1.69860        1.70912        1.73702
        1.75531        1.80733        1.83881        1.89301        1.91313
        1.92851        1.95522        1.99914        2.03346        2.15472
        2.15955        2.19329        2.22599        2.25938        2.30516
        2.31538        2.37154        2.40260        2.52878        2.55492
        2.60458        2.62732        2.66701        2.68821        2.75639
        2.80551        2.81339        2.85766        2.87198        2.89739
        2.93600        2.98779        3.03606        3.15515        3.41494
        3.43975        3.44118        3.45305        3.46241        3.46839
[...]
    ==== End of matrix output ====


 CCSD   oscillator strength matrix for state nr. 13 of symmetry 1
 CCSD  excitation energy:15.17608831


               Column   1     Column   2     Column   3
       1       0.00056614     0.00097599    -0.00091145
       2       0.00097599     0.00168252    -0.00157124
       3      -0.00091145    -0.00157124     0.00146731
    ==== End of matrix output ====

 Principal values of diagonalized oscillator strength matrix:

             a.u.               
 1      -0.00000001
 2       0.00000000
 3       0.00371599

 Principal axis of diagonalized oscillator strength matrix:


               Column   1     Column   2     Column   3
       1       0.83858172    -0.38003268     0.39032790
       2       0.02189051     0.73942044     0.67288797
       3       0.54433584     0.55572708    -0.62838357
    ==== End of matrix output ====


 CCSD  Transition strength matrix for state nr. 14 of symmetry 1
 CCSD  excitation energy:15.24561302

 Gauge: length

               Column   1     Column   2     Column   3
       1     7.240310D-05  -1.803418D-05   4.521575D-05
       2    -1.803418D-05   4.491721D-06  -1.126224D-05
       3     4.521575D-05  -1.126224D-05   2.823719D-05
    ==== End of matrix output ====

 Principal values of diagonalized transition strength matrix:

             a.u.               
 1      -0.00000000
 2       0.00000000
 3       0.00010513

 Principal axis of diagonalized transition strength matrix:


               Column   1     Column   2     Column   3
       1       0.37166578    -0.41614702     0.82987120
       2       0.89756542     0.38942261    -0.20670352
       3      -0.23715155     0.82168832     0.51825423
    ==== End of matrix output ====


 CCSD   oscillator strength matrix for state nr. 14 of symmetry 1
 CCSD  excitation energy:15.24561302


               Column   1     Column   2     Column   3
       1     7.358864D-04  -1.832948D-04   4.595612D-04
       2    -1.832948D-04   4.565270D-05  -1.144665D-04
       3     4.595612D-04  -1.144665D-04   2.869955D-04
    ==== End of matrix output ====

 Principal values of diagonalized oscillator strength matrix:

             a.u.               
 1      -0.00000000
 2       0.00000000
 3       0.00106854

 Principal axis of diagonalized oscillator strength matrix:


               Column   1     Column   2     Column   3
       1       0.37166578    -0.41614702     0.82987120
       2       0.89756542     0.38942261    -0.20670352
       3      -0.23715155     0.82168832     0.51825423
    ==== End of matrix output ====


 CCSD  Transition strength matrix for state nr. 15 of symmetry 1
 CCSD  excitation energy:15.28351465

 Gauge: length

               Column   1     Column   2     Column   3
       1     1.010367D-05  -4.529449D-05   2.937499D-05
       2    -4.529449D-05   2.029839D-04  -1.316462D-04
       3     2.937499D-05  -1.316462D-04   8.537953D-05
    ==== End of matrix output ====

 Principal values of diagonalized transition strength matrix:

             a.u.               
 1      -0.00000000
 2       0.00000000
 3       0.00029847

 Principal axis of diagonalized transition strength matrix:


               Column   1     Column   2     Column   3
       1       0.95446343    -0.23481433    -0.18401571
       2       0.27990904     0.49149738     0.82467039
       3       0.10320119     0.83862540    -0.53484293
    ==== End of matrix output ====


 CCSD   oscillator strength matrix for state nr. 15 of symmetry 1
 CCSD  excitation energy:15.28351465


               Column   1     Column   2     Column   3
       1       0.00010295    -0.00046151     0.00029930
       2      -0.00046151     0.00206821    -0.00134134
       3       0.00029930    -0.00134134     0.00086993
    ==== End of matrix output ====

 Principal values of diagonalized oscillator strength matrix:

             a.u.               
 1      -0.00000003
 2       0.00000000
 3       0.00304112

 Principal axis of diagonalized oscillator strength matrix:


               Column   1     Column   2     Column   3
       1       0.95446343    -0.23481433    -0.18401571
       2       0.27990904     0.49149738     0.82467039
       3       0.10320119     0.83862540    -0.53484293
    ==== End of matrix output ====

  Total time for    135 linear response residues:     156.41 seconds.
  

 *******************************************************************************
 *******************************************************************************
 *                                                                             *
 *                                                                             *
 *                   SUMMARY OF COUPLED CLUSTER CALCULATION                    *
 *                                                                             *
 *                                                                             *
 *******************************************************************************
 *******************************************************************************

                                                                                
                                                                                
            Total SCF   energy:                  -360.8269399662                
            Total MP2   energy:                  -361.9312316903                
            Total CCSD  energy:                  -361.9704192019                
                                                                                
                                                                                
            Total SCF   energy:                  -360.8269399662                
            Total RSTAR energy:                  -361.9704192019                
            Total CCSD  energy:                  -361.9706036431                
                                                                                
                                                                                
            Total SCF   energy:                  -360.8269399662                
            Total RSTAR energy:                  -361.9706036431                
            Total CCSD  energy:                  -361.9706090214                
                                                                                
                                                                                
            Total SCF   energy:                  -360.8269399662                
            Total RSTAR energy:                  -361.9706090214                
            Total CCSD  energy:                  -361.9706094309                
                                                                                
                                                                                
            Total SCF   energy:                  -360.8269399662                
            Total RSTAR energy:                  -361.9706094309                
            Total CCSD  energy:                  -361.9706094618                
                                                                                
                                                                                
            Total SCF   energy:                  -360.8269399662                
            Total RSTAR energy:                  -361.9706094618                
            Total CCSD  energy:                  -361.9706094640                
                                                                                
                                                                                
            Total SCF   energy:                  -360.8269399662                
            Total RSTAR energy:                  -361.9706094640                
            Total CCSD  energy:                  -361.9706094641                
            CCSD Total  energy:                  -362.4517258727                
            CCSD E(QM/MM)     :                    -0.4742348221                
                                                                                
                                                                                
                                                                                
 +=============================================================================+
 |  sym. | Exci.  |        CCSD       Excitation energies            | ||T1||  |
 |(spin, |        +------------------------------------------------------------+
 | spat) |        |     Hartree    |       eV.      |     cm-1       |    %    |
 +=============================================================================+
 | ^1A   |    1   |    14.8240723  |     403.38353  |   3253507.764  |  88.22  |
 | ^1A   |    2   |    14.8856889  |     405.06020  |   3267031.045  |  88.74  |
 | ^1A   |    3   |    14.8928815  |     405.25592  |   3268609.637  |  88.71  |
 | ^1A   |    4   |    14.9648035  |     407.21302  |   3284394.693  |  88.26  |
 | ^1A   |    5   |    14.9800030  |     407.62662  |   3287730.597  |  87.97  |
 | ^1A   |    6   |    15.0116649  |     408.48818  |   3294679.594  |  87.96  |
 | ^1A   |    7   |    15.0159055  |     408.60357  |   3295610.299  |  87.93  |
 | ^1A   |    8   |    15.0670132  |     409.99428  |   3306827.130  |  87.92  |
 | ^1A   |    9   |    15.0710735  |     410.10477  |   3307718.262  |  87.81  |
 | ^1A   |   10   |    15.0834377  |     410.44122  |   3310431.899  |  87.83  |
 | ^1A   |   11   |    15.1026287  |     410.96343  |   3314643.835  |  87.95  |
 | ^1A   |   12   |    15.1153595  |     411.30985  |   3317437.919  |  87.85  |
 | ^1A   |   13   |    15.1760883  |     412.96237  |   3330766.358  |  87.80  |
 | ^1A   |   14   |    15.2456130  |     414.85423  |   3346025.267  |  87.89  |
 | ^1A   |   15   |    15.2835147  |     415.88559  |   3354343.714  |  87.80  |
 +=============================================================================+
                                                                                
                                                                                
     Total energies in Hartree:                                                 
             1 ^1A       -347.1534187914                                        
             2 ^1A       -347.0918021921                                        
             3 ^1A       -347.0846095944                                        
             4 ^1A       -347.0126875879                                        
             5 ^1A       -346.9974880899                                        
             6 ^1A       -346.9658261328                                        
             7 ^1A       -346.9615855254                                        
             8 ^1A       -346.9104778859                                        
             9 ^1A       -346.9064175865                                        
            10 ^1A       -346.8940533482                                        
            11 ^1A       -346.8748623540                                        
            12 ^1A       -346.8621315729                                        
            13 ^1A       -346.8014027356                                        
            14 ^1A       -346.7318780290                                        
            15 ^1A       -346.6939763971                                        
                                                                                
                                                                                
 +=============================================================================+
 |  sym. | Exci.  |        CCSD       Length   Gauge Oscillator Strength       |
 |(spin, |        +------------------------------------------------------------+
 | spat) |        | Dipole Strength(a.u.) | Oscillator strength  | Direction   |
 +=============================================================================+
 | ^1A   |    1   |        0.0006235      |      0.0061617       |  (Y,Z)      |
 | ^1A   |    2   |        0.0038544      |      0.0382498       |  (Y,Z)      |
 | ^1A   |    3   |        0.0039317      |      0.0390359       |  (Y,Z)      |
 | ^1A   |    4   |        0.0013166      |      0.0131353       |  (Y,Z)      |
 | ^1A   |    5   |        0.0003351      |      0.0033466       |  (Y,Z)      |
 | ^1A   |    6   |        0.0003910      |      0.0039130       |  (Y,Z)      |
 | ^1A   |    7   |        0.0004748      |      0.0047533       |  (Y,Z)      |
 | ^1A   |    8   |        0.0001347      |      0.0013528       |  (Y,Z)      |
 | ^1A   |    9   |        0.0000610      |      0.0006129       |  (Y,Z)      |
 | ^1A   |   10   |        0.0000280      |      0.0002811       |  (Y,Z)      |
 | ^1A   |   11   |        0.0005563      |      0.0056015       |  (Y,Z)      |
 | ^1A   |   12   |        0.0001920      |      0.0019343       |  (Y,Z)      |
 | ^1A   |   13   |        0.0003673      |      0.0037160       |  (Y,Z)      |
 | ^1A   |   14   |        0.0001051      |      0.0010685       |  (Y,Z)      |
 | ^1A   |   15   |        0.0002985      |      0.0030411       |  (Y,Z)      |
 +=============================================================================+

  1 a.u. =        27.21138 eV.  
  1 a.u. =    219474.62934 cm-1.
  

 *******************************************************************************
 *******************************************************************************
 *                                                                             *
 *                                                                             *
 *                      END OF COUPLED CLUSTER CALCULATION                     *
 *                                                                             *
 *                                                                             *
 *******************************************************************************
 *******************************************************************************


 CPU and wall time for CC :  495795.674   76396.508

 
     Date and time (Linux)  : Sun Dec 23 12:53:44 2018
     Host name              : n-62-30-18                              


                      .-------------------------------------.
                      | End of Coupled Cluster Section (CC) |
                      `-------------------------------------'

  Total CPU  time used in DALTON: 137 hours 53 minutes 36 seconds
  Total wall time used in DALTON:  21 hours 15 minutes 35 seconds

 
     Date and time (Linux)  : Sun Dec 23 12:53:44 2018
     Host name              : n-62-30-18                              
  

 +---------------------------------------------------------+ 
 | List of selected calculated molecular properties (a.u.) | 
 +---------------------------------------------------------+ 

  Properties are read from unit number                      4

 CCSD       properties :
 #  1 1 CCSD/MM  Ground state Energy =    -362.4517258727
 #  2 1 E_QM/MM  Ground state Energy =      -0.4742348221
 #  3 1 Sy: 1 Sp: 1 Exc:  1 E_tot:   -347.1534187914 w:     14.8240722591 E_grs:   -361.9774910505
 #  4 1 Exctot   Excited state Energy =    -347.1534187914
 #  5 1 Sy: 1 Sp: 1 Exc:  2 E_tot:   -347.0918021921 w:     14.8856888584 E_grs:   -361.9774910505
 #  6 1 Exctot   Excited state Energy =    -347.0918021921
 #  7 1 Sy: 1 Sp: 1 Exc:  3 E_tot:   -347.0846095944 w:     14.8928814561 E_grs:   -361.9774910505
 #  8 1 Exctot   Excited state Energy =    -347.0846095944
 #  9 1 Sy: 1 Sp: 1 Exc:  4 E_tot:   -347.0126875879 w:     14.9648034626 E_grs:   -361.9774910505
 # 10 1 Exctot   Excited state Energy =    -347.0126875879
 # 11 1 Sy: 1 Sp: 1 Exc:  5 E_tot:   -346.9974880899 w:     14.9800029606 E_grs:   -361.9774910505
 # 12 1 Exctot   Excited state Energy =    -346.9974880899
 # 13 1 Sy: 1 Sp: 1 Exc:  6 E_tot:   -346.9658261328 w:     15.0116649178 E_grs:   -361.9774910505
 # 14 1 Exctot   Excited state Energy =    -346.9658261328
 # 15 1 Sy: 1 Sp: 1 Exc:  7 E_tot:   -346.9615855254 w:     15.0159055252 E_grs:   -361.9774910505
 # 16 1 Exctot   Excited state Energy =    -346.9615855254
 # 17 1 Sy: 1 Sp: 1 Exc:  8 E_tot:   -346.9104778859 w:     15.0670131646 E_grs:   -361.9774910505
 # 18 1 Exctot   Excited state Energy =    -346.9104778859
 # 19 1 Sy: 1 Sp: 1 Exc:  9 E_tot:   -346.9064175865 w:     15.0710734641 E_grs:   -361.9774910505
 # 20 1 Exctot   Excited state Energy =    -346.9064175865
 # 21 1 Sy: 1 Sp: 1 Exc: 10 E_tot:   -346.8940533482 w:     15.0834377023 E_grs:   -361.9774910505
 # 22 1 Exctot   Excited state Energy =    -346.8940533482
 # 23 1 Sy: 1 Sp: 1 Exc: 11 E_tot:   -346.8748623540 w:     15.1026286965 E_grs:   -361.9774910505
 # 24 1 Exctot   Excited state Energy =    -346.8748623540
 # 25 1 Sy: 1 Sp: 1 Exc: 12 E_tot:   -346.8621315729 w:     15.1153594777 E_grs:   -361.9774910505
 # 26 1 Exctot   Excited state Energy =    -346.8621315729
 # 27 1 Sy: 1 Sp: 1 Exc: 13 E_tot:   -346.8014027356 w:     15.1760883150 E_grs:   -361.9774910505
 # 28 1 Exctot   Excited state Energy =    -346.8014027356
 # 29 1 Sy: 1 Sp: 1 Exc: 14 E_tot:   -346.7318780290 w:     15.2456130216 E_grs:   -361.9774910505
 # 30 1 Exctot   Excited state Energy =    -346.7318780290
 # 31 1 Sy: 1 Sp: 1 Exc: 15 E_tot:   -346.6939763971 w:     15.2835146535 E_grs:   -361.9774910505
 # 32 1 Exctot   Excited state Energy =    -346.6939763971
 # 33 1 |<O|XDIPLEN |i(14.824072)>| =     0.00794225
 # 35 1 |<O|XDIPLEN |i(14.885689)>| =     0.04634224
 # 37 1 |<O|XDIPLEN |i(14.892881)>| =     0.03193023
 # 39 1 |<O|XDIPLEN |i(14.964803)>| =     0.00949814
 # 41 1 |<O|XDIPLEN |i(14.980003)>| =     0.01009256
 # 43 1 |<O|XDIPLEN |i(15.011665)>| =     0.00150762
 # 45 1 |<O|XDIPLEN |i(15.015906)>| =     0.01973844
 # 47 1 |<O|XDIPLEN |i(15.067013)>| =     0.00902145
 # 49 1 |<O|XDIPLEN |i(15.071073)>| =     0.00177301
 # 51 1 |<O|XDIPLEN |i(15.083438)>| =     0.00297920
 # 53 1 |<O|XDIPLEN |i(15.102629)>| =     0.00708318
 # 55 1 |<O|XDIPLEN |i(15.115359)>| =     0.00131703
 # 57 1 |<O|XDIPLEN |i(15.176088)>| =     0.00748046
 # 59 1 |<O|XDIPLEN |i(15.245613)>| =     0.00850900
 # 61 1 |<O|XDIPLEN |i(15.283515)>| =     0.00317863
 # 63 1 |<O|YDIPLEN |i(14.824072)>| =     0.01751251
 # 65 1 |<O|YDIPLEN |i(14.885689)>| =     0.03739162
 # 67 1 |<O|YDIPLEN |i(14.892881)>| =     0.01991807
 # 69 1 |<O|YDIPLEN |i(14.964803)>| =     0.02755357
 # 71 1 |<O|YDIPLEN |i(14.980003)>| =     0.01507112
 # 73 1 |<O|YDIPLEN |i(15.011665)>| =     0.00929258
 # 75 1 |<O|YDIPLEN |i(15.015906)>| =     0.00551218
 # 77 1 |<O|YDIPLEN |i(15.067013)>| =     0.00461086
 # 79 1 |<O|YDIPLEN |i(15.071073)>| =     0.00702736
 # 81 1 |<O|YDIPLEN |i(15.083438)>| =     0.00436221
 # 83 1 |<O|YDIPLEN |i(15.102629)>| =     0.01516739
 # 85 1 |<O|YDIPLEN |i(15.115359)>| =     0.00921538
 # 87 1 |<O|YDIPLEN |i(15.176088)>| =     0.01289572
 # 89 1 |<O|YDIPLEN |i(15.245613)>| =     0.00211937
 # 91 1 |<O|YDIPLEN |i(15.283515)>| =     0.01424724
 # 93 1 |<O|ZDIPLEN |i(14.824072)>| =     0.01592840
 # 95 1 |<O|ZDIPLEN |i(14.885689)>| =     0.01756744
 # 97 1 |<O|ZDIPLEN |i(14.892881)>| =     0.05015373
 # 99 1 |<O|ZDIPLEN |i(14.964803)>| =     0.02161501
 #101 1 |<O|ZDIPLEN |i(14.980003)>| =     0.00247176
 #103 1 |<O|ZDIPLEN |i(15.011665)>| =     0.01738870
 #105 1 |<O|ZDIPLEN |i(15.015906)>| =     0.00740532
 #107 1 |<O|ZDIPLEN |i(15.067013)>| =     0.00565994
 #109 1 |<O|ZDIPLEN |i(15.071073)>| =     0.00291015
 #111 1 |<O|ZDIPLEN |i(15.083438)>| =     0.00022969
 #113 1 |<O|ZDIPLEN |i(15.102629)>| =     0.01661700
 #115 1 |<O|ZDIPLEN |i(15.115359)>| =     0.01026151
 #117 1 |<O|ZDIPLEN |i(15.176088)>| =     0.01204278
 #119 1 |<O|ZDIPLEN |i(15.245613)>| =     0.00531387
 #121 1 |<O|ZDIPLEN |i(15.283515)>| =     0.00924010

 THE_END   
