

     ************************************************************************
     *************** Dalton - An Electronic Structure Program ***************
     ************************************************************************

    This is output from DALTON release Dalton2017.alpha (2016)
         ( Web site: http://daltonprogram.org )

   ----------------------------------------------------------------------------

    NOTE:
     
    Dalton is an experimental code for the evaluation of molecular
    properties using (MC)SCF, DFT, CI, and CC wave functions.
    The authors accept no responsibility for the performance of
    the code or for the correctness of the results.
     
    The code (in whole or part) is provided under a licence and
    is not to be reproduced for further distribution without
    the written permission of the authors or their representatives.
     
    See the home page "http://daltonprogram.org" for further information.
     
    If results obtained with this code are published,
    the appropriate citations would be both of:
     
       K. Aidas, C. Angeli, K. L. Bak, V. Bakken, R. Bast,
       L. Boman, O. Christiansen, R. Cimiraglia, S. Coriani,
       P. Dahle, E. K. Dalskov, U. Ekstroem,
       T. Enevoldsen, J. J. Eriksen, P. Ettenhuber, B. Fernandez,
       L. Ferrighi, H. Fliegl, L. Frediani, K. Hald, A. Halkier,
       C. Haettig, H. Heiberg, T. Helgaker, A. C. Hennum,
       H. Hettema, E. Hjertenaes, S. Hoest, I.-M. Hoeyvik,
       M. F. Iozzi, B. Jansik, H. J. Aa. Jensen, D. Jonsson,
       P. Joergensen, J. Kauczor, S. Kirpekar,
       T. Kjaergaard, W. Klopper, S. Knecht, R. Kobayashi, H. Koch,
       J. Kongsted, A. Krapp, K. Kristensen, A. Ligabue,
       O. B. Lutnaes, J. I. Melo, K. V. Mikkelsen, R. H. Myhre,
       C. Neiss, C. B. Nielsen, P. Norman, J. Olsen,
       J. M. H. Olsen, A. Osted, M. J. Packer, F. Pawlowski,
       T. B. Pedersen, P. F. Provasi, S. Reine, Z. Rinkevicius,
       T. A. Ruden, K. Ruud, V. Rybkin, P. Salek, C. C. M. Samson,
       A. Sanchez de Meras, T. Saue, S. P. A. Sauer,
       B. Schimmelpfennig, K. Sneskov, A. H. Steindal,
       K. O. Sylvester-Hvid, P. R. Taylor, A. M. Teale,
       E. I. Tellgren, D. P. Tew, A. J. Thorvaldsen, L. Thoegersen,
       O. Vahtras, M. A. Watson, D. J. D. Wilson, M. Ziolkowski
       and H. Agren,
       "The Dalton quantum chemistry program system",
       WIREs Comput. Mol. Sci. 2014, 4:269–284 (doi: 10.1002/wcms.1172)
     
    and
     
       Dalton, a Molecular Electronic Structure Program,
       Release Dalton2017.alpha (2016), see http://daltonprogram.org
   ----------------------------------------------------------------------------

    Authors in alphabetical order (major contribution(s) in parenthesis):

  Kestutis Aidas,           Vilnius University,           Lithuania   (QM/MM)
  Celestino Angeli,         University of Ferrara,        Italy       (NEVPT2)
  Keld L. Bak,              UNI-C,                        Denmark     (AOSOPPA, non-adiabatic coupling, magnetic properties)
  Vebjoern Bakken,          University of Oslo,           Norway      (DALTON; geometry optimizer, symmetry detection)
  Radovan Bast,             UiT The Arctic U. of Norway,  Norway      (DALTON installation and execution frameworks)
  Pablo Baudin,             University of Valencia,       Spain       (Cholesky excitation energies)
  Linus Boman,              NTNU,                         Norway      (Cholesky decomposition and subsystems)
  Ove Christiansen,         Aarhus University,            Denmark     (CC module)
  Renzo Cimiraglia,         University of Ferrara,        Italy       (NEVPT2)
  Sonia Coriani,            University of Trieste,        Italy       (CC module, MCD in RESPONS)
  Janusz Cukras,            University of Trieste,        Italy       (MChD in RESPONS)
  Paal Dahle,               University of Oslo,           Norway      (Parallelization)
  Erik K. Dalskov,          UNI-C,                        Denmark     (SOPPA)
  Thomas Enevoldsen,        Univ. of Southern Denmark,    Denmark     (SOPPA)
  Janus J. Eriksen,         Aarhus University,            Denmark     (Polarizable embedding model, TDA)
  Rasmus Faber,             University of Copenhagen,     Denmark     (Vib.avg. NMR with SOPPA, parallel AO-SOPPA)
  Berta Fernandez,          U. of Santiago de Compostela, Spain       (doublet spin, ESR in RESPONS)
  Lara Ferrighi,            Aarhus University,            Denmark     (PCM Cubic response)
  Heike Fliegl,             University of Oslo,           Norway      (CCSD(R12))
  Luca Frediani,            UiT The Arctic U. of Norway,  Norway      (PCM)
  Bin Gao,                  UiT The Arctic U. of Norway,  Norway      (Gen1Int library)
  Christof Haettig,         Ruhr-University Bochum,       Germany     (CC module)
  Kasper Hald,              Aarhus University,            Denmark     (CC module)
  Asger Halkier,            Aarhus University,            Denmark     (CC module)
  Frederik Beyer Hansen,    University of Copenhagen,     Denmark     (Parallel AO-SOPPA)
  Erik D. Hedegaard,        Univ. of Southern Denmark,    Denmark     (Polarizable embedding model, QM/MM)
  Hanne Heiberg,            University of Oslo,           Norway      (geometry analysis, selected one-electron integrals)
  Trygve Helgaker,          University of Oslo,           Norway      (DALTON; ABACUS, ERI, DFT modules, London, and much more)
  Alf Christian Hennum,     University of Oslo,           Norway      (Parity violation)
  Hinne Hettema,            University of Auckland,       New Zealand (quadratic response in RESPONS; SIRIUS supersymmetry)
  Eirik Hjertenaes,         NTNU,                         Norway      (Cholesky decomposition)
  Pi A. B. Haase,           University of Copenhagen,     Denmark     (Triplet AO-SOPPA)
  Maria Francesca Iozzi,    University of Oslo,           Norway      (RPA)
  Brano Jansik              Technical Univ. of Ostrava    Czech Rep.  (DFT cubic response)
  Hans Joergen Aa. Jensen,  Univ. of Southern Denmark,    Denmark     (DALTON; SIRIUS, RESPONS, ABACUS modules, London, and much more)
  Dan Jonsson,              UiT The Arctic U. of Norway,  Norway      (cubic response in RESPONS module)
  Poul Joergensen,          Aarhus University,            Denmark     (RESPONS, ABACUS, and CC modules)
  Maciej Kaminski,          University of Warsaw,         Poland      (CPPh in RESPONS)
  Joanna Kauczor,           Linkoeping University,        Sweden      (Complex polarization propagator (CPP) module)
  Sheela Kirpekar,          Univ. of Southern Denmark,    Denmark     (Mass-velocity & Darwin integrals)
  Wim Klopper,              KIT Karlsruhe,                Germany     (R12 code in CC, SIRIUS, and ABACUS modules)
  Stefan Knecht,            ETH Zurich,                   Switzerland (Parallel CI and MCSCF)
  Rika Kobayashi,           Australian National Univ.,    Australia   (DIIS in CC, London in MCSCF)
  Henrik Koch,              NTNU,                         Norway      (CC module, Cholesky decomposition)
  Jacob Kongsted,           Univ. of Southern Denmark,    Denmark     (Polarizable embedding model, QM/MM)
  Andrea Ligabue,           University of Modena,         Italy       (CTOCD, AOSOPPA)
  Nanna H. List             Univ. of Southern Denmark,    Denmark     (Polarizable embedding model)
  Ola B. Lutnaes,           University of Oslo,           Norway      (DFT Hessian)
  Juan I. Melo,             University of Buenos Aires,   Argentina   (LRESC, Relativistic Effects on NMR Shieldings)
  Kurt V. Mikkelsen,        University of Copenhagen,     Denmark     (MC-SCRF and QM/MM)
  Rolf H. Myhre,            NTNU,                         Norway      (Cholesky, subsystems and ECC2)
  Christian Neiss,          Univ. Erlangen-Nuernberg,     Germany     (CCSD(R12))
  Christian B. Nielsen,     University of Copenhagen,     Denmark     (QM/MM)
  Patrick Norman,           Linkoeping University,        Sweden      (Cubic response and complex frequency response in RESPONS)
  Jeppe Olsen,              Aarhus University,            Denmark     (SIRIUS CI/density modules)
  Jogvan Magnus H. Olsen,   Univ. of Southern Denmark,    Denmark     (Polarizable embedding model, QM/MM)
  Anders Osted,             Copenhagen University,        Denmark     (QM/MM)
  Martin J. Packer,         University of Sheffield,      UK          (SOPPA)
  Filip Pawlowski,          Kazimierz Wielki University,  Poland      (CC3)
  Morten N. Pedersen,       Univ. of Southern Denmark,    Denmark     (Polarizable embedding model)
  Thomas B. Pedersen,       University of Oslo,           Norway      (Cholesky decomposition)
  Patricio F. Provasi,      University of Northeastern,   Argentina   (Analysis of coupling constants in localized orbitals)
  Zilvinas Rinkevicius,     KTH Stockholm,                Sweden      (open-shell DFT, ESR)
  Elias Rudberg,            KTH Stockholm,                Sweden      (DFT grid and basis info)
  Torgeir A. Ruden,         University of Oslo,           Norway      (Numerical derivatives in ABACUS)
  Kenneth Ruud,             UiT The Arctic U. of Norway,  Norway      (DALTON; ABACUS magnetic properties and much more)
  Pawel Salek,              KTH Stockholm,                Sweden      (DALTON; DFT code)
  Claire C. M. Samson       University of Karlsruhe       Germany     (Boys localization, r12 integrals in ERI)
  Alfredo Sanchez de Meras, University of Valencia,       Spain       (CC module, Cholesky decomposition)
  Trond Saue,               Paul Sabatier University,     France      (direct Fock matrix construction)
  Stephan P. A. Sauer,      University of Copenhagen,     Denmark     (SOPPA(CCSD), SOPPA prop., AOSOPPA, vibrational g-factors)
  Bernd Schimmelpfennig,    Forschungszentrum Karlsruhe,  Germany     (AMFI module)
  Kristian Sneskov,         Aarhus University,            Denmark     (Polarizable embedding model, QM/MM)
  Arnfinn H. Steindal,      UiT The Arctic U. of Norway,  Norway      (parallel QM/MM, Polarizable embedding model)
  Casper Steinmann,         Univ. of Southern Denmark,    Denmark     (QFIT, Polarizable embedding model)
  K. O. Sylvester-Hvid,     University of Copenhagen,     Denmark     (MC-SCRF)
  Peter R. Taylor,          VLSCI/Univ. of Melbourne,     Australia   (Symmetry handling ABACUS, integral transformation)
  Andrew M. Teale,          University of Nottingham,     England     (DFT-AC, DFT-D)
  David P. Tew,             University of Bristol,        England     (CCSD(R12))
  Olav Vahtras,             KTH Stockholm,                Sweden      (triplet response, spin-orbit, ESR, TDDFT, open-shell DFT)
  David J. Wilson,          La Trobe University,          Australia   (DFT Hessian and DFT magnetizabilities)
  Hans Agren,               KTH Stockholm,                Sweden      (SIRIUS module, RESPONS, MC-SCRF solvation model)
 --------------------------------------------------------------------------------

     Date and time (Linux)  : Sat Dec 29 19:03:38 2018
     Host name              : n-62-29-5                               

 * Work memory size             :  1280000000 =  9.537 gigabytes.

 * Directories for basis set searches:
   1) /zhome/37/3/129401/NH3NH4/CCSD/AIMD_SAMPLING/nh3_4h2o_nd
   2) /zhome/9a/4/124800/source/dalton/build-mlcc/basis


Compilation information
-----------------------

 Who compiled             | rfaber
 Host                     | hpclogin1
 System                   | Linux-2.6.32-696.1.1.el6.x86_64
 CMake generator          | Unix Makefiles
 Processor                | x86_64
 64-bit integers          | ON
 MPI                      | OFF
 Fortran compiler         | /opt/intel/2016update2/compilers_and_libraries_201
                          | 6.2.181/linux/bin/intel64/ifort
 Fortran compiler version | ifort (IFORT) 16.0.2 20160204
 C compiler               | /opt/intel/2016update2/compilers_and_libraries_201
                          | 6.2.181/linux/bin/intel64/icc
 C compiler version       | icc (ICC) 16.0.2 20160204
 C++ compiler             | /opt/intel/2016update2/compilers_and_libraries_201
                          | 6.2.181/linux/bin/intel64/icpc
 C++ compiler version     | icpc (ICC) 16.0.2 20160204
 Static linking           | OFF
 Last Git revision        | bb4d1599ca5680a9f3980451fc8bbefdba436d59
 Git branch               | mlcc
 Configuration time       | 2017-06-13 16:11:03.928841


   Content of the .dal input file
 ----------------------------------

**DALTON
.RUN WAVE FUNCTIONS
*QMMM
.QMMM
**INTEGRALS
.DIPLEN
**WAVE FUNCTIONS
.CC
*PRINT
!To check the origin of excit
.PRINTL
   0 11
*SCF INP
.THRESH
1.0D-7
*CC INP
.CCSD
.THRLEQ
 1.0D-9
.THRENR
 1.0D-10
.FROIMP
4
0
.PRINT
 1
.MAX IT
 1200
.MAXRED
 1200
.MXLRV
1199
*CCSLV
.CCMM
.MXSLIT
200
.MXINIT
4 5
*CCEXCI
.NCCEXC
 15
.CVSEPARA
1
1
*CCLRSD
.DIPOLE
**END OF DALTON INPUT


   Content of the .mol file
 ----------------------------

ATOMBASIS


Atomtypes=4 Charge=0 Nosymm Angstrom
   7.00000    1    Basis=6-311G**
N          0.000000        0.000000        0.000000
   1.00000    3    Basis=6-311G**
H         -0.831863        0.393500        0.525349
H         -0.181071       -0.922461       -0.260337
H          0.846757        0.056897        0.651788
   8.00000    4    Basis=6-311G**
O         -3.081686        0.404982        1.214089
O          2.539891        1.114722        2.046629
O         -0.368757        1.949702       -2.094165
O          0.516159       -3.765210       -0.379725
   1.00000    8    Basis=6-311G**
H         -4.072167        0.475034        1.340627
H         -2.861854        0.812205        0.355184
H          1.712537        1.698447        2.274009
H          3.239775        1.394068        2.628296
H          0.055295        1.834708       -3.048221
H         -0.047554        1.234752       -1.450294
H          1.310395       -3.233842       -0.283936
H          0.938875       -4.608915       -0.588295


       *******************************************************************
       *********** Output from DALTON general input processing ***********
       *******************************************************************

 --------------------------------------------------------------------------------
   Overall default print level:    0
   Print level for DALTON.STAT:    1

    HERMIT 1- and 2-electron integral sections will be executed
    "Old" integral transformation used (limited to max 255 basis functions)
    Wave function sections will be executed (SIRIUS module)
 --------------------------------------------------------------------------------


 Changes of defaults for *QMMM  :
 --------------------------------

 +------------------+
 |  WORD: | CHANGE: |
 +------------------+
 |   QMMM |       T |
 +------------------+
 


   ****************************************************************************
   *************** Output of molecule and basis set information ***************
   ****************************************************************************


    The two title cards from your ".mol" input:
    ------------------------------------------------------------------------
 1:                                                                         
 2:                                                                         
    ------------------------------------------------------------------------

  Coordinates are entered in Angstrom and converted to atomic units.
          - Conversion factor : 1 bohr = 0.52917721 A

  Atomic type no.    1
  --------------------
  Nuclear charge:   7.00000
  Number of symmetry independent centers:    1
  Number of basis sets to read;    2
  The basis set is "6-311G**" from the basis set library.
  Basis set file used for this atomic type with Z =   7 :
     "/zhome/9a/4/124800/source/dalton/build-mlcc/basis/6-311G**"

  Info about the basis set file: your basis has no documentation.
  Basis set: 6-311G**                                                                        

  Atomic type no.    2
  --------------------
  Nuclear charge:   1.00000
  Number of symmetry independent centers:    3
  Number of basis sets to read;    2
  The basis set is "6-311G**" from the basis set library.
  Basis set file used for this atomic type with Z =   1 :
     "/zhome/9a/4/124800/source/dalton/build-mlcc/basis/6-311G**"

  Info about the basis set file: your basis has no documentation.
  Basis set: 6-311G**                                                                        

  Atomic type no.    3
  --------------------
  Nuclear charge:   8.00000
  Number of symmetry independent centers:    4
  Number of basis sets to read;    2
  The basis set is "6-311G**" from the basis set library.
  Basis set file used for this atomic type with Z =   8 :
     "/zhome/9a/4/124800/source/dalton/build-mlcc/basis/6-311G**"

  Info about the basis set file: your basis has no documentation.
  Basis set: 6-311G**                                                                        

  Atomic type no.    4
  --------------------
  Nuclear charge:   1.00000
  Number of symmetry independent centers:    8
  Number of basis sets to read;    2
  The basis set is "6-311G**" from the basis set library.
  Basis set file used for this atomic type with Z =   1 :
     "/zhome/9a/4/124800/source/dalton/build-mlcc/basis/6-311G**"

  Info about the basis set file: your basis has no documentation.
  Basis set: 6-311G**                                                                        


                         SYMGRP: Point group information
                         -------------------------------

@    Point group: C1 


                                 Isotopic Masses
                                 ---------------

                           N          14.003074
                           H           1.007825
                           H           1.007825
                           H           1.007825
                           O          15.994915
                           O          15.994915
                           O          15.994915
                           O          15.994915
                           H           1.007825
                           H           1.007825
                           H           1.007825
                           H           1.007825
                           H           1.007825
                           H           1.007825
                           H           1.007825
                           H           1.007825

                       Total mass:    89.068809 amu
                       Natural abundance:  98.514 %

 Center-of-mass coordinates (a.u.):   -0.131506   -0.118892    0.312862


  Atoms and basis sets
  --------------------

  Number of atom types :    4
  Total number of atoms:   16

  label    atoms   charge   prim   cont     basis
  ----------------------------------------------------------------------
  N           1    7.0000    31    18      [11s5p1d|4s3p1d]                                   
  H           3    1.0000     8     6      [5s1p|3s1p]                                        
  O           4    8.0000    31    18      [11s5p1d|4s3p1d]                                   
  H           8    1.0000     8     6      [5s1p|3s1p]                                        
  ----------------------------------------------------------------------
  total:     16   50.0000   243   156
  ----------------------------------------------------------------------
  Spherical harmonic basis used.

  Threshold for neglecting AO integrals:  1.00D-12


  Cartesian Coordinates (a.u.)
  ----------------------------

  Total number of coordinates:   48
  N       :     1  x   0.0000000000    2  y   0.0000000000    3  z   0.0000000000
  H       :     4  x  -1.5719932435    5  y   0.7436072302    6  z   0.9927657300
  H       :     7  x  -0.3421745992    8  y  -1.7431986510    9  z  -0.4919656302
  H       :    10  x   1.6001388244   11  y   0.1075197473   12  z   1.2317008116
  O       :    13  x  -5.8235425432   14  y   0.7653050656   15  z   2.2942957014
  O       :    16  x   4.7996983773   17  y   2.1065192855   18  z   3.8675682895
  O       :    19  x  -0.6968497367   20  y   3.6844028054   21  z  -3.9573983105
  O       :    22  x   0.9753991470   23  y  -7.1152157031   24  z  -0.7175762528
  H       :    25  x  -7.6952803652   26  y   0.8976841601   27  z   2.5334178658
  H       :    28  x  -5.4081202697   29  y   1.5348450074   30  z   0.6712004840
  H       :    31  x   3.2362259089   32  y   3.2095996678   33  z   4.2972542158
  H       :    34  x   6.1222874566   35  y   2.6344067196   36  z   4.9667596154
  H       :    37  x   0.1044924061   38  y   3.4670956393   39  z  -5.7603028585
  H       :    40  x  -0.0898640361   41  y   2.3333431123   42  z  -2.7406584607
  H       :    43  x   2.4762876656   44  y  -6.1110757115   45  z  -0.5365612770
  H       :    46  x   1.7742166156   47  y  -8.7095870834   48  z  -1.1117164307


   Interatomic separations (in Angstrom):
   --------------------------------------

            N           H           H           H           O           O     
            ------      ------      ------      ------      ------      ------
 N     :    0.000000
 H     :    1.059637    0.000000
 H     :    0.975447    1.665108    0.000000
 H     :    1.070076    1.716698    1.687467    0.000000
 O     :    3.336886    2.352913    3.514200    3.983718    0.000000
 O     :    3.447077    3.768711    4.108022    2.435422    5.727040    0.000000
 O     :    2.884934    3.081896    3.412839    3.549710    4.548702    5.128704
 O     :    3.819348    4.464436    2.929438    3.972633    5.733693    5.813469
 H     :    4.313407    3.342289    4.433588    4.984491    1.000985    6.680341
 H     :    2.996004    2.079696    3.251850    3.796348    0.975641    5.668452
 H     :    3.314909    3.351816    4.108262    2.464926    5.077505    1.037763
 H     :    4.398580    4.690603    5.041101    3.379519    6.552796    0.951950
 H     :    3.558211    3.954053    3.928123    4.180561    5.481975    5.713939
 H     :    1.905315    2.286047    2.467264    2.570191    4.122307    4.351752
 H     :    3.500784    4.289734    2.750911    3.452463    5.897075    5.084604
 H     :    4.740219    5.422165    3.866753    4.828674    6.674778    6.501238

            O           O           H           H           H           H     
            ------      ------      ------      ------      ------      ------
 O     :    0.000000
 O     :    6.031799    0.000000
 H     :    5.261909    6.480125    0.000000
 H     :    3.675424    5.736183    1.596759    0.000000
 H     :    4.845189    6.190733    5.985879    5.039084    0.000000
 H     :    5.969244    6.563873    7.481124    6.537238    1.597067    0.000000
 H     :    1.050365    6.220317    6.176297    4.597656    5.575944    6.523643
 H     :    1.014344    5.144270    4.956200    3.370249    4.145282    5.240879
 H     :    5.741569    0.960384    6.735498    5.846934    5.570662    5.798375
 H     :    6.855144    0.966451    7.394445    6.687618    6.969516    7.188630

            H           H           H           H     
            ------      ------      ------      ------
 H     :    0.000000
 H     :    1.709940    0.000000
 H     :    5.908193    4.813808    0.000000
 H     :    6.953577    5.988700    1.456533    0.000000


  Max    interatomic separation is    7.4811 Angstrom (   14.1373 Bohr)
  between atoms   12 and    9, "H     " and "H     ".

  Min HX interatomic separation is    0.9519 Angstrom (    1.7989 Bohr)

  Min YX interatomic separation is    2.8849 Angstrom (    5.4517 Bohr)


  Bond distances (Angstrom):
  --------------------------

                  atom 1     atom 2       distance
                  ------     ------       --------
  bond distance:  H          N            1.059637
  bond distance:  H          N            0.975447
  bond distance:  H          N            1.070076
  bond distance:  H          O            1.000985
  bond distance:  H          O            0.975641
  bond distance:  H          O            1.037763
  bond distance:  H          O            0.951950
  bond distance:  H          O            1.050365
  bond distance:  H          O            1.014344
  bond distance:  H          O            0.960384
  bond distance:  H          O            0.966451


  Bond angles (degrees):
  ----------------------

                  atom 1     atom 2     atom 3         angle
                  ------     ------     ------         -----
  bond angle:     H          N          H            109.741
  bond angle:     H          N          H            107.427
  bond angle:     H          N          H            111.084
  bond angle:     H          O          H            107.760
  bond angle:     H          O          H            106.691
  bond angle:     H          O          H            111.812
  bond angle:     H          O          H             98.211




 Principal moments of inertia (u*A**2) and principal axes
 --------------------------------------------------------

   IA     481.642370         -0.389027    0.920203   -0.043417
   IB     537.295901          0.871281    0.382834    0.307096
   IC     669.883233         -0.299212   -0.081640    0.950688


 Rotational constants
 --------------------

               A                   B                   C

           1049.2827            940.5972            754.4285 MHz
            0.035000            0.031375            0.025165 cm-1


@  Nuclear repulsion energy :  168.276343140290 Hartree


                     .---------------------------------------.
                     | Starting in Integral Section (HERMIT) |
                     `---------------------------------------'



 ***************************************************************************************
 ****************** Output from **INTEGRALS input processing (HERMIT) ******************
 ***************************************************************************************



    *************************************************************************
    ****************** Output from HERMIT input processing ******************
    *************************************************************************


 Default print level:        1

 * Nuclear model: Point charge

 Calculation of one- and two-electron Hamiltonian integrals.

 The following one-electron property integrals are calculated as requested:
          - overlap integrals
          - dipole length integrals

 Center of mass  (bohr):     -0.131506151155     -0.118891611936      0.312862274193
 Operator center (bohr):      0.000000000000      0.000000000000      0.000000000000
 Gauge origin    (bohr):      0.000000000000      0.000000000000      0.000000000000
 Dipole origin   (bohr):      0.000000000000      0.000000000000      0.000000000000
 
  *********************************** 
  QMMM electrostatic potential: 
  Multipole order                                    0
  Isotropic polarization  
  *********************************** 
 
  ---------------- 
  QMMM information 
  ---------------- 
 
  MM coordinates in au 
  -------------------- 
     1      9.805558      9.093052    -10.316593
     2      9.866479      8.421143    -12.003304
     3      8.217002      9.923086    -10.115783
     4     -6.892808     -8.029210      3.650407
     5     -6.122202     -9.610221      4.098725
     6     -7.031132     -7.092909      5.230792
     7     -7.843726     -4.478207      7.570322
     8     -6.951556     -4.073242      9.246224
     9     -9.646921     -4.273663      7.913166
    10     11.362713      6.788934      8.484056
    11     13.132062      7.407239      8.477884
    12     11.219584      5.006748      8.262389
    13      0.077588     -2.333063     -6.747834
    14     -0.271979     -2.105179     -8.490498
    15     -1.222522     -3.440328     -5.835637
    16      9.357824      5.715397     -6.437800
    17      8.386803      6.619597     -5.138424
    18      9.166343      6.766395     -7.947897
    19     -0.885337     -7.891570    -11.118309
    20     -2.768022     -7.593991    -11.148199
    21     -0.678221     -9.297570    -12.366927
    22      6.123788     -7.951520     10.528688
    23      7.225872     -7.221377     11.819158
    24      4.773259     -6.640420      9.948501
    25     -8.796167      5.448683     -6.404516
    26    -10.593926      5.986339     -6.518247
    27     -8.761470      4.773231     -8.186560
    28     -7.505215     -1.215275     -7.438930
    29     -6.788796     -0.332728     -5.935836
    30     -9.106634     -1.861620     -6.800074
    31     -2.544021     -5.973368     -4.250516
    32     -1.086647     -6.790158     -3.144536
    33     -3.741153     -5.547078     -2.901879
    34     -3.249545      2.761500      9.400813
    35     -3.808208      4.196216     10.510889
    36     -4.775187      2.034409      8.618368
    37     10.748496      1.640893     -1.905785
    38     11.802621      2.667554     -3.126949
    39      9.130465      2.456313     -1.610725
    40    -11.223628     10.205902     -1.908504
    41    -11.672680     11.696764     -0.832215
    42    -11.458615     10.794798     -3.607606
    43      8.012633      8.759901      5.241286
    44      8.432130      9.243384      3.528606
    45      9.553726      7.890281      5.865071
    46     -0.609161     -0.849302     11.515262
    47      0.663789     -2.017846     10.686513
    48     -1.300729      0.381734     10.339451
    49     -7.469042      8.953730      9.034779
    50     -6.152927      8.554459     10.258528
    51     -7.994518     10.602499      9.740811
    52     -9.717123      6.343746      1.819419
    53    -10.074408      7.384400      0.254607
    54     -7.849988      6.120470      1.903759
    55      9.954376     -3.888873      8.206370
    56      9.722197     -2.838059      9.771723
    57      9.174858     -5.469039      8.641001
    58     -0.015868    -10.569998      7.523223
    59      0.655066    -12.097840      6.737042
    60     -0.014585     -9.098795      6.290658
    61     10.619093     -9.981741      6.775736
    62      9.423618    -11.448464      6.756243
    63     11.365164     -9.942448      8.471778
    64      2.113080      6.945566     11.321710
    65      3.118764      8.370553     11.812444
    66      2.124596      5.703450     12.681000
    67      7.355043     -6.606299     -7.638810
    68      7.756851     -4.838553     -7.352357
    69      8.985073     -7.309965     -6.868232
    70      5.828696    -11.290320      1.772637
    71      5.168076    -10.481933      3.355723
    72      4.334418    -11.041216      0.552250
    73      2.365907     -4.840507      9.172967
    74      1.084283     -6.048152      9.922493
    75      2.439321     -5.583714      7.541128
    76     -3.003448      7.329749     11.495710
    77     -3.127391      7.827213     13.370958
    78     -1.074833      7.284042     11.477650
    79     -5.629267      1.998986     -4.001990
    80     -6.538105      3.457709     -4.694960
    81     -3.794028      2.548853     -4.365216
    82      5.230620     -4.611684     -0.380222
    83      6.469069     -4.591033      1.011601
    84      5.501195     -3.263833     -1.688820
    85      4.710987     11.155645    -10.852999
    86      3.878249     11.740177     -9.370472
    87      5.040115     12.692580    -11.829047
    88      1.746389      3.319028     -8.850232
    89      1.201165      1.881676     -9.945725
    90      3.553023      2.881126     -8.529092
    91     -5.862157     -8.788844     -8.108520
    92     -4.905795     -7.739557     -7.017434
    93     -5.452030    -10.587100     -7.435834
    94      7.123580      8.491305     -3.034547
    95      5.758158      9.695567     -3.314302
    96      8.413295      9.204709     -1.981952
    97      4.784896     -0.889012     -4.250363
    98      3.338103     -1.656829     -5.016911
    99      4.143763      0.383805     -3.014699
   100      2.595208     -8.920120     -6.984086
   101      1.177362     -8.409482     -8.131866
   102      4.016074     -7.819214     -7.169474
   103     -3.534209     -2.302877      6.023965
   104     -5.205961     -3.051724      6.288317
   105     -3.935268     -1.040725      4.691591
   106     -9.564301      2.093631    -10.644961
   107     -9.283244      1.886224    -12.526019
   108     -8.681266      0.772310     -9.590143
   109     -0.917700      4.315972      4.824985
   110     -1.630894      4.141715      6.601017
   111      0.297044      5.725781      5.175992
   112     -5.027943     -3.620997    -11.688287
   113     -3.461254     -2.631910    -11.910023
   114     -5.842370     -3.030291    -10.184953
   115     -4.882429      9.230885     -7.072850
   116     -6.398938      8.238688     -6.567203
   117     -3.871198      9.171495     -5.503774
   118    -11.131154     -5.196947     -1.640405
   119     -9.325645     -4.864510     -1.151832
   120    -11.840686     -6.471537     -0.541888
   121      2.708257    -11.655366     -2.679696
   122      1.171899    -12.792308     -3.038685
   123      2.664191    -10.597775     -4.174071
   124    -11.517919     -8.621977     -6.105072
   125    -11.199101     -7.448686     -4.645015
   126     -9.838491     -8.626600     -6.939639
   127     -1.980524      8.959639     -2.718182
   128     -1.037480      7.303557     -3.067471
   129     -2.863064      8.607262     -1.155798
   130      2.276663      8.638840      6.438272
   131      2.626867      8.189614      8.204089
   132      3.879632      8.411776      5.505823
   133     10.860685     -9.358629      1.632374
   134     11.338576     -9.360445      3.497705
   135      8.986687     -9.450774      1.515791
   136     -4.441261      7.147967      1.874361
   137     -3.021468      6.190144      2.603856
   138     -4.664335      8.714807      2.789873
   139      6.812512      1.569949     -7.841823
   140      6.570366      0.553404     -6.106631
   141      7.871811      3.079981     -7.322955
   142    -11.048940      1.663898      2.968015
   143    -10.778051      3.609354      2.967152
   144    -11.496257      1.286408      1.167618
   145      5.766628      3.261253     -1.170020
   146      5.867719      5.020653     -1.648474
   147      5.561747      3.218561      0.709603
   148     -9.615034     -9.899094     11.263149
   149     -8.126716     -9.038197     12.144338
   150    -10.544759    -10.973887     12.364890
   151     -5.873110     -4.653630     -0.271881
   152     -5.604918     -2.859972      0.526126
   153     -5.723247     -5.708742      1.226829
   154      9.568284     -0.575076    -11.513362
   155     11.130944      0.181134    -10.801017
   156      8.266267      0.271043    -10.385672
   157      9.089690      2.156414      6.999587
   158     10.002167      1.326429      5.639619
   159      8.969351      0.951955      8.527469
   160     -0.485784     -6.443722      4.718474
   161     -1.368942     -4.868441      5.006924
   162     -0.375555     -6.518002      2.904963
   163     -4.665443     11.133913      5.232003
   164     -5.835777     10.187113      6.509507
   165     -3.224400     11.705729      6.373421
   166     -8.384528      0.972270      7.855907
   167     -9.812102      1.430122      6.888409
   168     -7.840122     -0.804196      7.571927
   169      4.989009     -7.818640      5.636087
   170      6.000245     -6.435578      5.044284
   171      5.665603     -8.499106      7.208111
   172      7.816280     -2.588823      3.385964
   173      6.332867     -1.509920      3.741542
   174      8.674673     -2.871341      5.012950
   175     11.131636     -2.691569     -5.847962
   176     11.351742     -3.092922     -4.033653
   177      9.894804     -1.338920     -5.888035
 
  MM charges 
  ---------- 
     1     -0.674440
     2      0.337220
     3      0.337220
     4     -0.674440
     5      0.337220
     6      0.337220
     7     -0.674440
     8      0.337220
     9      0.337220
    10     -0.674440
    11      0.337220
    12      0.337220
    13     -0.674440
    14      0.337220
    15      0.337220
    16     -0.674440
    17      0.337220
    18      0.337220
    19     -0.674440
    20      0.337220
    21      0.337220
    22     -0.674440
    23      0.337220
    24      0.337220
    25     -0.674440
    26      0.337220
    27      0.337220
    28     -0.674440
    29      0.337220
    30      0.337220
    31     -0.674440
    32      0.337220
    33      0.337220
    34     -0.674440
    35      0.337220
    36      0.337220
    37     -0.674440
    38      0.337220
    39      0.337220
    40     -0.674440
    41      0.337220
    42      0.337220
    43     -0.674440
    44      0.337220
    45      0.337220
    46     -0.674440
    47      0.337220
    48      0.337220
    49     -0.674440
    50      0.337220
    51      0.337220
    52     -0.674440
    53      0.337220
    54      0.337220
    55     -0.674440
    56      0.337220
    57      0.337220
    58     -0.674440
    59      0.337220
    60      0.337220
    61     -0.674440
    62      0.337220
    63      0.337220
    64     -0.674440
    65      0.337220
    66      0.337220
    67     -0.674440
    68      0.337220
    69      0.337220
    70     -0.674440
    71      0.337220
    72      0.337220
    73     -0.674440
    74      0.337220
    75      0.337220
    76     -0.674440
    77      0.337220
    78      0.337220
    79     -0.674440
    80      0.337220
    81      0.337220
    82     -0.674440
    83      0.337220
    84      0.337220
    85     -0.674440
    86      0.337220
    87      0.337220
    88     -0.674440
    89      0.337220
    90      0.337220
    91     -0.674440
    92      0.337220
    93      0.337220
    94     -0.674440
    95      0.337220
    96      0.337220
    97     -0.674440
    98      0.337220
    99      0.337220
   100     -0.674440
   101      0.337220
   102      0.337220
   103     -0.674440
   104      0.337220
   105      0.337220
   106     -0.674440
   107      0.337220
   108      0.337220
   109     -0.674440
   110      0.337220
   111      0.337220
   112     -0.674440
   113      0.337220
   114      0.337220
   115     -0.674440
   116      0.337220
   117      0.337220
   118     -0.674440
   119      0.337220
   120      0.337220
   121     -0.674440
   122      0.337220
   123      0.337220
   124     -0.674440
   125      0.337220
   126      0.337220
   127     -0.674440
   128      0.337220
   129      0.337220
   130     -0.674440
   131      0.337220
   132      0.337220
   133     -0.674440
   134      0.337220
   135      0.337220
   136     -0.674440
   137      0.337220
   138      0.337220
   139     -0.674440
   140      0.337220
   141      0.337220
   142     -0.674440
   143      0.337220
   144      0.337220
   145     -0.674440
   146      0.337220
   147      0.337220
   148     -0.674440
   149      0.337220
   150      0.337220
   151     -0.674440
   152      0.337220
   153      0.337220
   154     -0.674440
   155      0.337220
   156      0.337220
   157     -0.674440
   158      0.337220
   159      0.337220
   160     -0.674440
   161      0.337220
   162      0.337220
   163     -0.674440
   164      0.337220
   165      0.337220
   166     -0.674440
   167      0.337220
   168      0.337220
   169     -0.674440
   170      0.337220
   171      0.337220
   172     -0.674440
   173      0.337220
   174      0.337220
   175     -0.674440
   176      0.337220
   177      0.337220
 
  MM isotropic polarizabilities in au 
  ----------------------------------- 
     1      5.739350
     2      2.308390
     3      2.308390
     4      5.739350
     5      2.308390
     6      2.308390
     7      5.739350
     8      2.308390
     9      2.308390
    10      5.739350
    11      2.308390
    12      2.308390
    13      5.739350
    14      2.308390
    15      2.308390
    16      5.739350
    17      2.308390
    18      2.308390
    19      5.739350
    20      2.308390
    21      2.308390
    22      5.739350
    23      2.308390
    24      2.308390
    25      5.739350
    26      2.308390
    27      2.308390
    28      5.739350
    29      2.308390
    30      2.308390
    31      5.739350
    32      2.308390
    33      2.308390
    34      5.739350
    35      2.308390
    36      2.308390
    37      5.739350
    38      2.308390
    39      2.308390
    40      5.739350
    41      2.308390
    42      2.308390
    43      5.739350
    44      2.308390
    45      2.308390
    46      5.739350
    47      2.308390
    48      2.308390
    49      5.739350
    50      2.308390
    51      2.308390
    52      5.739350
    53      2.308390
    54      2.308390
    55      5.739350
    56      2.308390
    57      2.308390
    58      5.739350
    59      2.308390
    60      2.308390
    61      5.739350
    62      2.308390
    63      2.308390
    64      5.739350
    65      2.308390
    66      2.308390
    67      5.739350
    68      2.308390
    69      2.308390
    70      5.739350
    71      2.308390
    72      2.308390
    73      5.739350
    74      2.308390
    75      2.308390
    76      5.739350
    77      2.308390
    78      2.308390
    79      5.739350
    80      2.308390
    81      2.308390
    82      5.739350
    83      2.308390
    84      2.308390
    85      5.739350
    86      2.308390
    87      2.308390
    88      5.739350
    89      2.308390
    90      2.308390
    91      5.739350
    92      2.308390
    93      2.308390
    94      5.739350
    95      2.308390
    96      2.308390
    97      5.739350
    98      2.308390
    99      2.308390
   100      5.739350
   101      2.308390
   102      2.308390
   103      5.739350
   104      2.308390
   105      2.308390
   106      5.739350
   107      2.308390
   108      2.308390
   109      5.739350
   110      2.308390
   111      2.308390
   112      5.739350
   113      2.308390
   114      2.308390
   115      5.739350
   116      2.308390
   117      2.308390
   118      5.739350
   119      2.308390
   120      2.308390
   121      5.739350
   122      2.308390
   123      2.308390
   124      5.739350
   125      2.308390
   126      2.308390
   127      5.739350
   128      2.308390
   129      2.308390
   130      5.739350
   131      2.308390
   132      2.308390
   133      5.739350
   134      2.308390
   135      2.308390
   136      5.739350
   137      2.308390
   138      2.308390
   139      5.739350
   140      2.308390
   141      2.308390
   142      5.739350
   143      2.308390
   144      2.308390
   145      5.739350
   146      2.308390
   147      2.308390
   148      5.739350
   149      2.308390
   150      2.308390
   151      5.739350
   152      2.308390
   153      2.308390
   154      5.739350
   155      2.308390
   156      2.308390
   157      5.739350
   158      2.308390
   159      2.308390
   160      5.739350
   161      2.308390
   162      2.308390
   163      5.739350
   164      2.308390
   165      2.308390
   166      5.739350
   167      2.308390
   168      2.308390
   169      5.739350
   170      2.308390
   171      2.308390
   172      5.739350
   173      2.308390
   174      2.308390
   175      5.739350
   176      2.308390
   177      2.308390


     ************************************************************************
     ************************** Output from HERINT **************************
     ************************************************************************



                      Nuclear contribution to dipole moments
                      --------------------------------------

                 au               Debye          C m (/(10**-30)

      x     -5.75614168       -14.63065187       -48.80260152
      y     -6.10766854       -15.52414395       -51.78297030
      z     15.94700949        40.53325248       135.20437688


  Time used in HUCKEL     is       0.26 seconds
  Time used in OVERLAP    is       0.15 seconds
  Time used in POPOVLP    is       0.14 seconds
  Time used in DIPLEN     is       0.21 seconds
  Time used in QUADRUP    is       0.28 seconds
  Time used in KINENE     is       0.17 seconds

 Threshold for neglecting two-electron integrals:  1.00D-12
 HERMIT - Number of two-electron integrals written:    21986773 ( 29.3% )
 HERMIT - Megabytes written:                            251.761

  Time used in TWOINT     is      13.40 seconds
  Total CPU  time used in HERMIT:  14.68 seconds
  Total wall time used in HERMIT:   4.79 seconds


                        .----------------------------------.
                        | End of Integral Section (HERMIT) |
                        `----------------------------------'



                   .--------------------------------------------.
                   | Starting in Wave Function Section (SIRIUS) |
                   `--------------------------------------------'

NCCEXCI for singlet:   15
 CCSD_INPUT: core-val requested
 Requested number of core orbs per sym
                     1
 Indices of requested core orbs
                     1

 *** Output from Huckel module :

     Using EWMO model:          T
     Using EHT  model:          F
     Number of Huckel orbitals each symmetry:   36

 EWMO - Energy Weighted Maximum Overlap - is a Huckel type method,
        which normally is better than Extended Huckel Theory.
 Reference: Linderberg and Ohrn, Propagators in Quantum Chemistry (Wiley, 1973)

 Huckel EWMO eigenvalues for symmetry :  1
          -20.684874     -20.684514     -20.684462     -20.683933     -15.673520
           -1.663448      -1.612678      -1.590655      -1.575280      -1.460593
           -0.826137      -0.801945      -0.796220      -0.766270      -0.714765
           -0.697993      -0.695384      -0.685547      -0.678386      -0.659317
           -0.616727      -0.616195      -0.615619      -0.613195      -0.517462
           -0.260056      -0.246680      -0.242429      -0.232426      -0.191470
           -0.177426      -0.176653      -0.170798      -0.166756      -0.156753
           -0.139238

 **********************************************************************
 *SIRIUS* a direct, restricted step, second order MCSCF program       *
 **********************************************************************

 
     Date and time (Linux)  : Sat Dec 29 19:03:43 2018
     Host name              : n-62-29-5                               

 Title lines from ".mol" input file:
                                                                             
                                                                             

 Print level on unit LUPRI =   2 is   0
 Print level on unit LUW4  =   2 is  11

@    (Integral direct) CC calculation.

@    This is a combination run starting with
@              a restricted, closed shell Hartree-Fock calculation


 Initial molecular orbitals are obtained according to
 ".MOSTART EWMO  " input option

@    QM part is embedded in an environment :

@         Model: QMMM

     Wave function specification
     ============================

     For the specification of the Coupled Cluster: see later.

@    Wave function type        --- CC ---
@    Number of closed shell electrons          50
@    Number of electrons in active shells       0
@    Total charge of the molecule               0

@    Spin multiplicity and 2 M_S                1         0
@    Total number of symmetries                 1 (point group: C1 )
@    Reference state symmetry                   1 (irrep name : A  )

     Orbital specifications
     ======================
@    Abelian symmetry species          All |    1
@                                          |  A  
                                       --- |  ---
@    Occupied SCF orbitals              25 |   25
@    Secondary orbitals                131 |  131
@    Total number of orbitals          156 |  156
@    Number of basis functions         156 |  156

     Optimization information
     ========================
@    Number of configurations                 1
@    Number of orbital rotations           3275
     ------------------------------------------
@    Total number of variables             3276

     Maximum number of Fock   iterations      0
     Maximum number of DIIS   iterations     60
     Maximum number of QC-SCF iterations     60
     Threshold for SCF convergence     1.00D-07


 Changes of defaults for CC:
 ---------------------------


 -Implicit frozen core calculation
 -Excitation energies calculated
 -One-photon absorption strengths will be calculated
 -Oscillator strengths calculated
  
* Read MO coefficients from SIRIUS.RST with label "NEWORB  " and header info: 29Dec18  REORTHO 


 ***********************************************
 ***** DIIS acceleration of SCF iterations *****
 ***********************************************

 C1-DIIS algorithm; max error vectors =    8
 -----------------------------------------------------------------------------

 *** DIIS iteration number    1
 RDSUPM called. NFMAT, ISYMDM(1:NFMAT)                     1
                     1

Calculating AOSUPINT
     (Precalculated two-electron integrals are transformed to P-supermatrix elements.
      Threshold for discarding integrals :  1.00D-12 )
  CPU  time used in FORMSUP    is   5.16 seconds
  WALL time used in FORMSUP    is   6.55 seconds

 ITDIIS, energy, error norm, change in energy, scr.thr., difden:
@ DIIS iter.   1    -359.914335618        3.76111D+00   -3.60D+02  -20    F

 (DIIS_RED) Control Parameters C2DIIS =         F NEVC =    1


 (DIIS_RED) B matrix:

               Column   1
       1      14.14593976
    ==== End of matrix output ====

 DIIS C vector; C2DIIS = F, LAMBDA = -1.41D+01
    1.000000
* Read MO coefficients from SIRIUS.RST with label "NEWORB  " and header info: 29Dec18  DIIS   1
      Virial theorem: -V/T =      1.998762
@      MULPOP N      -0.36; H       0.17; H       0.17; H       0.15; O      -0.63; O      -0.61; O      -0.79; O      -0.65; H       0.30; H       0.33; 
@             H       0.33; H       0.30; H       0.32; H       0.31; H       0.33; H       0.32; 
   1  Level shift: doubly occupied orbital energies shifted by -2.00D-01

 DIIS Fock eigenvalues in symmetry 1
      -20.76112      -20.73153      -20.72269      -20.55962      -15.99256
       -1.58709       -1.55815       -1.55515       -1.44770       -1.43574
       -0.97438       -0.96148       -0.94870       -0.92143       -0.91612
       -0.86018       -0.82919       -0.80947       -0.80699       -0.79400
       -0.76275       -0.75657       -0.75055       -0.69752       -0.66735
        0.08301        0.11596        0.15611        0.19456        0.20114
        0.21980        0.24191        0.25013        0.27029        0.31357
        0.34335        0.42436        0.45306        0.48517        0.51131
        0.54273        0.54542        0.56370        0.57798        0.59080
        0.59725        0.63618        0.83007        0.84759        0.86268
        0.90610        0.94546        0.94960        0.99148        0.99557
        1.01053        1.02070        1.03665        1.06585        1.12155
        1.14101        1.16584        1.22281        1.25151        1.27704
        1.30091        1.32582        1.33919        1.37629        1.40342
        1.43838        1.44635        1.47416        1.49189        1.51007
        1.53380        1.62176        1.63037        1.64765        1.66422
        1.67473        1.70770        1.75615        1.78770        1.81662
        1.82514        1.89507        1.92332        1.95280        2.07144
        2.10009        2.12618        2.19105        2.21615        2.23233
        2.24616        2.27148        2.32302        2.38359        2.45618
        2.50934        2.54466        2.56816        2.62657        2.66342
        2.67934        2.72827        2.74826        2.77702        2.79071
        2.81592        2.84618        2.85090        3.08450        3.24485
        3.33166        3.34489        3.39032        3.44212        3.45591
        3.47209        3.47422        3.48525        3.55929        3.57972
        3.60109        3.62857        3.66927        3.91390        3.94979
        3.98286        4.06781        4.17692        4.18588        4.19114
        4.26201        4.34497        4.90630        5.08230        5.25629
        5.28907        5.29832        5.41504        5.66774        5.69605
        5.70967        5.77694        6.04835        6.08927        6.09767
        6.13947       36.75699       51.50779       51.53605       51.56335
       51.70250
 Time used in FCKEIG, thr_jaco:   4.18D-01  4.20D-02  1.64D-04
 CPU and wall times used in FCKEIG, THR_FCKEIG:   4.18D-01  4.20D-02  3.76D-02
 -----------------------------------------------------------------------------

 *** DIIS iteration number    2
 RDSUPM called. NFMAT, ISYMDM(1:NFMAT)                     1
                     1

 ITDIIS, energy, error norm, change in energy, scr.thr., difden:
@ DIIS iter.   2    -360.695458541        9.21442D-01   -7.81D-01  -20    F

 (DIIS_RED) Control Parameters C2DIIS =         F NEVC =    2


 (DIIS_RED) B matrix:

               Column   1     Column   2
       1      14.14593976
       2       0.96724456     0.84905524
    ==== End of matrix output ====

 DIIS C vector; C2DIIS = F, LAMBDA = -8.48D-01
   -0.009049    1.009049
* Read MO coefficients from SIRIUS.RST with label "NEWORB  " and header info: 29Dec18  DIIS   2
      Virial theorem: -V/T =      2.004231
@      MULPOP N      -0.66; H       0.24; H       0.23; H       0.23; O      -0.59; O      -0.56; O      -0.68; O      -0.64; H       0.31; H       0.29; 
@             H       0.29; H       0.28; H       0.31; H       0.30; H       0.34; H       0.30; 
   2  Level shift: doubly occupied orbital energies shifted by -5.00D-02

 DIIS Fock eigenvalues in symmetry 1
      -20.67640      -20.66342      -20.64189      -20.59275      -15.49880
       -1.43135       -1.40168       -1.38064       -1.35985       -1.15974
       -0.79766       -0.77315       -0.73168       -0.72663       -0.68514
       -0.67350       -0.65937       -0.64215       -0.64182       -0.62531
       -0.61844       -0.59200       -0.57152       -0.56658       -0.46852
        0.12041        0.15383        0.19128        0.21273        0.22030
        0.24706        0.26879        0.28542        0.31641        0.34427
        0.36165        0.47465        0.51034        0.52298        0.55216
        0.57150        0.58555        0.59729        0.61248        0.62136
        0.65201        0.68125        0.91877        0.92440        0.93408
        0.94095        0.97133        0.97894        0.97995        0.98901
        1.03069        1.03459        1.06591        1.07794        1.13729
        1.15403        1.18950        1.27849        1.31193        1.32490
        1.36393        1.37467        1.39547        1.43295        1.46296
        1.48198        1.49380        1.49711        1.53570        1.55803
        1.58087        1.65055        1.67477        1.71004        1.71594
        1.74389        1.76043        1.82266        1.85012        1.87431
        1.90199        1.96709        1.98041        2.02038        2.15471
        2.18298        2.22575        2.23891        2.24014        2.28032
        2.31244        2.33787        2.41269        2.45842        2.51441
        2.56908        2.61411        2.63638        2.70141        2.71103
        2.74977        2.79236        2.81241        2.83156        2.88609
        2.88686        2.99157        2.99736        3.21607        3.36326
        3.37996        3.41107        3.41514        3.47467        3.49240
        3.49575        3.51218        3.52313        3.52479        3.58268
        3.60306        3.62687        3.71203        3.93188        3.98915
        4.00385        4.02378        4.14065        4.19675        4.20828
        4.30088        4.53869        5.12044        5.24808        5.28070
        5.28945        5.30742        5.32253        5.59070        5.66171
        5.69348        5.79844        6.03962        6.05892        6.10322
        6.13725       37.09475       51.44504       51.45401       51.47869
       51.54580
 Time used in FCKEIG, thr_jaco:   3.46D-01  3.50D-02  4.03D-05
 CPU and wall times used in FCKEIG, THR_FCKEIG:   3.46D-01  3.50D-02  9.21D-03
 -----------------------------------------------------------------------------

 *** DIIS iteration number    3
 RDSUPM called. NFMAT, ISYMDM(1:NFMAT)                     1
                     1

 ITDIIS, energy, error norm, change in energy, scr.thr., difden:
@ DIIS iter.   3    -360.756272920        3.40715D-01   -6.08D-02  -20    F

 (DIIS_RED) Control Parameters C2DIIS =         F NEVC =    3


 (DIIS_RED) B matrix:

               Column   1     Column   2     Column   3
       1      14.14593976
       2       0.96724456     0.84905524
       3       0.60723905     0.06321687     0.11608644
    ==== End of matrix output ====

 DIIS C vector; C2DIIS = F, LAMBDA = -9.19D-02
   -0.040265    0.082859    0.957407
* Read MO coefficients from SIRIUS.RST with label "NEWORB  " and header info: 29Dec18  DIIS   3
      Virial theorem: -V/T =      2.002380
@      MULPOP N      -0.59; H       0.22; H       0.21; H       0.21; O      -0.65; O      -0.61; O      -0.77; O      -0.69; H       0.34; H       0.31; 
@             H       0.31; H       0.31; H       0.37; H       0.34; H       0.37; H       0.33; 
   3  Level shift: doubly occupied orbital energies shifted by -2.50D-02

 DIIS Fock eigenvalues in symmetry 1
      -20.61170      -20.57886      -20.55125      -20.50850      -15.60886
       -1.39189       -1.36156       -1.34893       -1.29178       -1.17163
       -0.75772       -0.73340       -0.69332       -0.68053       -0.67130
       -0.64960       -0.63225       -0.61108       -0.60678       -0.57666
       -0.55236       -0.54280       -0.52480       -0.49528       -0.46809
        0.12434        0.15735        0.19374        0.21673        0.22564
        0.24954        0.27311        0.28421        0.31651        0.34656
        0.36639        0.47649        0.51000        0.53081        0.56049
        0.58229        0.59404        0.60663        0.61914        0.62809
        0.65314        0.68632        0.91965        0.91987        0.93445
        0.94162        0.98318        0.99130        1.00669        1.01261
        1.03977        1.04305        1.07051        1.08964        1.15689
        1.16352        1.19537        1.28411        1.31598        1.32977
        1.36654        1.37134        1.39536        1.44078        1.47350
        1.49745        1.50485        1.50901        1.54691        1.57035
        1.58831        1.66717        1.68454        1.71706        1.72643
        1.75413        1.76296        1.82747        1.85587        1.88284
        1.90133        1.97061        1.98521        2.02624        2.15963
        2.17983        2.21633        2.24950        2.25953        2.28752
        2.32489        2.35060        2.41749        2.46687        2.52603
        2.57905        2.62100        2.64336        2.71225        2.71390
        2.75552        2.80034        2.82049        2.84114        2.87952
        2.89211        2.96766        2.97045        3.19455        3.37787
        3.38586        3.43352        3.43448        3.47247        3.49668
        3.51836        3.52605        3.53756        3.55920        3.62503
        3.63020        3.64928        3.72644        3.95337        4.00259
        4.02601        4.07094        4.19339        4.21975        4.23161
        4.31555        4.47700        5.06439        5.24263        5.27797
        5.31401        5.33611        5.37232        5.66636        5.68908
        5.72054        5.81349        6.08611        6.11407        6.13059
        6.15214       36.96380       51.48508       51.51654       51.56272
       51.58271
 Time used in FCKEIG, thr_jaco:   2.89D-01  2.90D-02  1.49D-05
 CPU and wall times used in FCKEIG, THR_FCKEIG:   2.89D-01  3.00D-02  3.41D-03
 -----------------------------------------------------------------------------

 *** DIIS iteration number    4
 RDSUPM called. NFMAT, ISYMDM(1:NFMAT)                     1
                     1

 ITDIIS, energy, error norm, change in energy, scr.thr., difden:
@ DIIS iter.   4    -360.764453017        1.20286D-01   -8.18D-03  -20    F

 (DIIS_RED) Control Parameters C2DIIS =         F NEVC =    4


 (DIIS_RED) B matrix:

               Column   1     Column   2     Column   3     Column   4
       1      14.14593976
       2       0.96724456     0.84905524
       3       0.60723905     0.06321687     0.11608644
       4      -0.00074718     0.08212844    -0.00932767     0.01446878
    ==== End of matrix output ====

 DIIS C vector; C2DIIS = F, LAMBDA = -3.97D-03
    0.000055   -0.097964    0.162457    0.935452
* Read MO coefficients from SIRIUS.RST with label "NEWORB  " and header info: 29Dec18  DIIS   4
      Virial theorem: -V/T =      2.003139
@      MULPOP N      -0.67; H       0.24; H       0.23; H       0.23; O      -0.66; O      -0.62; O      -0.76; O      -0.71; H       0.35; H       0.32; 
@             H       0.32; H       0.31; H       0.37; H       0.33; H       0.38; H       0.34; 
   4  Level shift: doubly occupied orbital energies shifted by -1.25D-02

 DIIS Fock eigenvalues in symmetry 1
      -20.61039      -20.57638      -20.54305      -20.53666      -15.55994
       -1.38418       -1.35311       -1.33908       -1.29236       -1.14743
       -0.74879       -0.72373       -0.68247       -0.67141       -0.65380
       -0.63274       -0.61777       -0.59949       -0.59500       -0.56531
       -0.54914       -0.53083       -0.51081       -0.49250       -0.44342
        0.12395        0.15752        0.19382        0.21594        0.22468
        0.24931        0.27292        0.28682        0.31894        0.34734
        0.36739        0.47903        0.51371        0.53088        0.56029
        0.58028        0.59273        0.60557        0.61855        0.62728
        0.65608        0.68458        0.92479        0.92570        0.93923
        0.94396        0.98422        0.99278        1.00190        1.00935
        1.04014        1.04253        1.07163        1.08836        1.15277
        1.16181        1.19581        1.28425        1.31816        1.32986
        1.36818        1.37577        1.39971        1.43899        1.47128
        1.49461        1.50269        1.50682        1.54532        1.56842
        1.58583        1.66467        1.68235        1.71480        1.72473
        1.75327        1.76708        1.82811        1.85665        1.88176
        1.90575        1.97344        1.98710        2.02437        2.16189
        2.18355        2.22361        2.24734        2.25351        2.28533
        2.32149        2.34860        2.42074        2.46387        2.52680
        2.57703        2.62147        2.64084        2.71168        2.71631
        2.75793        2.79929        2.82008        2.84048        2.88679
        2.88966        2.97906        2.98271        3.20484        3.38199
        3.39224        3.42249        3.43093        3.48566        3.49321
        3.51555        3.52505        3.53643        3.54814        3.61856
        3.62182        3.64661        3.72543        3.94981        4.00129
        4.02293        4.05948        4.18102        4.21638        4.22895
        4.31478        4.49695        5.08360        5.25864        5.27410
        5.30963        5.33433        5.35049        5.64541        5.68367
        5.71585        5.81162        6.07989        6.09353        6.12520
        6.14936       36.99958       51.47416       51.50672       51.54282
       51.55862
 Time used in FCKEIG, thr_jaco:   2.58D-01  2.60D-02  5.25D-06
 CPU and wall times used in FCKEIG, THR_FCKEIG:   2.58D-01  2.60D-02  1.20D-03
 -----------------------------------------------------------------------------

 *** DIIS iteration number    5
 RDSUPM called. NFMAT, ISYMDM(1:NFMAT)                     1
                     1

 ITDIIS, energy, error norm, change in energy, scr.thr., difden:
@ DIIS iter.   5    -360.765613278        2.38878D-02   -1.16D-03  -20    F

 (DIIS_RED) Control Parameters C2DIIS =         F NEVC =    5


 (DIIS_RED) B matrix:

               Column   1     Column   2     Column   3     Column   4     Column   5
       1      14.14593976
       2       0.96724456     0.84905524
       3       0.60723905     0.06321687     0.11608644
       4      -0.00074718     0.08212844    -0.00932767     0.01446878
       5       0.01375811     0.00622272     0.00500926     0.00070764     0.00057063
    ==== End of matrix output ====

 DIIS C vector; C2DIIS = F, LAMBDA = -3.06D-04
    0.001346    0.006911   -0.068768   -0.120104    1.180615
* Read MO coefficients from SIRIUS.RST with label "NEWORB  " and header info: 29Dec18  DIIS   5
      Virial theorem: -V/T =      2.002801
@      MULPOP N      -0.66; H       0.23; H       0.23; H       0.23; O      -0.67; O      -0.63; O      -0.78; O      -0.72; H       0.36; H       0.32; 
@             H       0.32; H       0.32; H       0.38; H       0.34; H       0.39; H       0.34; 

 DIIS Fock eigenvalues in symmetry 1
      -20.59668      -20.56254      -20.53018      -20.51727      -15.54401
       -1.37134       -1.34012       -1.32644       -1.27737       -1.13419
       -0.73645       -0.71129       -0.67028       -0.65768       -0.64091
       -0.62011       -0.60505       -0.58678       -0.58291       -0.55169
       -0.53458       -0.51705       -0.49728       -0.47673       -0.42940
        0.12373        0.15744        0.19368        0.21575        0.22468
        0.24929        0.27286        0.28687        0.31904        0.34726
        0.36769        0.47899        0.51376        0.53081        0.56031
        0.58033        0.59255        0.60554        0.61859        0.62723
        0.65626        0.68417        0.92529        0.92624        0.93981
        0.94465        0.98509        0.99347        1.00353        1.01090
        1.04052        1.04293        1.07162        1.08875        1.15359
        1.16168        1.19587        1.28450        1.31845        1.33006
        1.36822        1.37602        1.40011        1.43858        1.47078
        1.49518        1.50239        1.50659        1.54508        1.56879
        1.58526        1.66522        1.68188        1.71426        1.72435
        1.75334        1.76704        1.82786        1.85651        1.88134
        1.90597        1.97345        1.98716        2.02370        2.16161
        2.18355        2.22376        2.24695        2.25391        2.28470
        2.32105        2.34829        2.42099        2.46326        2.52731
        2.57645        2.62113        2.64016        2.71149        2.71623
        2.75758        2.79862        2.81955        2.84011        2.88708
        2.88881        2.97963        2.98335        3.20538        3.38233
        3.39322        3.42509        3.43142        3.48673        3.49340
        3.51589        3.52503        3.53633        3.55055        3.62098
        3.62208        3.64698        3.72528        3.94998        4.00126
        4.02324        4.06187        4.18366        4.21661        4.22934
        4.31473        4.49866        5.08503        5.25988        5.27501
        5.31062        5.33469        5.35472        5.64930        5.68422
        5.71651        5.81159        6.08024        6.09705        6.12563
        6.14919       37.00293       51.47535       51.50806       51.54958
       51.55900
 Time used in FCKEIG, thr_jaco:   2.66D-01  2.60D-02  1.04D-06
 CPU and wall times used in FCKEIG, THR_FCKEIG:   2.66D-01  2.70D-02  2.39D-04
 -----------------------------------------------------------------------------

 *** DIIS iteration number    6
 RDSUPM called. NFMAT, ISYMDM(1:NFMAT)                     1
                     1

 ITDIIS, energy, error norm, change in energy, scr.thr., difden:
@ DIIS iter.   6    -360.765693843        7.69381D-03   -8.06D-05  -20    F

 (DIIS_RED) Control Parameters C2DIIS =         F NEVC =    6


 (DIIS_RED) B matrix:

               Column   1     Column   2     Column   3     Column   4     Column   5     Column   6
       1      14.14593976
       2       0.96724456     0.84905524
       3       0.60723905     0.06321687     0.11608644
       4      -0.00074718     0.08212844    -0.00932767     0.01446878
       5       0.01375811     0.00622272     0.00500926     0.00070764     0.00057063
       6      -0.00204536    -0.00033222     0.00052970     0.00017442     0.00005941     0.00005919
    ==== End of matrix output ====

 DIIS C vector; C2DIIS = F, LAMBDA = -3.40D-05
    0.000477    0.008087   -0.025142   -0.079757    0.184685    0.911650
* Read MO coefficients from SIRIUS.RST with label "NEWORB  " and header info: 29Dec18  DIIS   6
      Virial theorem: -V/T =      2.002931
@      MULPOP N      -0.66; H       0.23; H       0.23; H       0.22; O      -0.67; O      -0.63; O      -0.78; O      -0.73; H       0.36; H       0.32; 
@             H       0.32; H       0.32; H       0.38; H       0.34; H       0.39; H       0.34; 

 DIIS Fock eigenvalues in symmetry 1
      -20.59701      -20.56283      -20.53020      -20.51966      -15.54741
       -1.37139       -1.34013       -1.32639       -1.27800       -1.13530
       -0.73663       -0.71146       -0.67041       -0.65836       -0.64188
       -0.62065       -0.60563       -0.58706       -0.58308       -0.55162
       -0.53530       -0.51695       -0.49709       -0.47719       -0.43036
        0.12363        0.15733        0.19358        0.21568        0.22458
        0.24914        0.27278        0.28665        0.31882        0.34712
        0.36748        0.47874        0.51345        0.53061        0.56011
        0.58020        0.59243        0.60539        0.61837        0.62708
        0.65592        0.68408        0.92483        0.92566        0.93952
        0.94436        0.98505        0.99358        1.00322        1.01060
        1.04028        1.04266        1.07144        1.08850        1.15319
        1.16153        1.19568        1.28423        1.31817        1.32989
        1.36805        1.37549        1.39960        1.43847        1.47060
        1.49486        1.50223        1.50641        1.54496        1.56849
        1.58510        1.66493        1.68172        1.71413        1.72422
        1.75309        1.76663        1.82756        1.85621        1.88116
        1.90548        1.97309        1.98680        2.02350        2.16124
        2.18300        2.22306        2.24673        2.25350        2.28452
        2.32084        2.34810        2.42050        2.46310        2.52685
        2.57625        2.62085        2.64000        2.71126        2.71581
        2.75726        2.79839        2.81933        2.83993        2.88639
        2.88860        2.97861        2.98226        3.20446        3.38219
        3.39198        3.42431        3.43134        3.48540        3.49327
        3.51579        3.52502        3.53630        3.54976        3.62027
        3.62193        3.64689        3.72526        3.94984        4.00122
        4.02312        4.06108        4.18286        4.21647        4.22923
        4.31470        4.49681        5.08327        5.25850        5.27458
        5.31044        5.33471        5.35347        5.64805        5.68402
        5.71635        5.81156        6.08001        6.09582        6.12545
        6.14913       36.99960       51.47502       51.50776       51.54723
       51.55897
 Time used in FCKEIG, thr_jaco:   2.23D-01  2.20D-02  3.36D-07
 CPU and wall times used in FCKEIG, THR_FCKEIG:   2.23D-01  2.20D-02  7.69D-05
 -----------------------------------------------------------------------------

 *** DIIS iteration number    7
 RDSUPM called. NFMAT, ISYMDM(1:NFMAT)                     1
                     1

 ITDIIS, energy, error norm, change in energy, scr.thr., difden:
@ DIIS iter.   7    -360.765699495        2.44923D-03   -5.65D-06  -20    F

 (DIIS_RED) Control Parameters C2DIIS =         F NEVC =    7


 (DIIS_RED) B matrix:

               Column   1     Column   2     Column   3     Column   4     Column   5     Column   6
       1      14.14593976
       2       0.96724456     0.84905524
       3       0.60723905     0.06321687     0.11608644
       4      -0.00074718     0.08212844    -0.00932767     0.01446878
       5       0.01375811     0.00622272     0.00500926     0.00070764     0.00057063
       6      -0.00204536    -0.00033222     0.00052970     0.00017442     0.00005941     0.00005919
       7       0.00063120    -0.00001993     0.00008187    -0.00000732     0.00003572    -0.00000129

               Column   7
       7       0.00000600
    ==== End of matrix output ====

 DIIS C vector; C2DIIS = F, LAMBDA = -1.17D-06
   -0.000207   -0.001495    0.009966    0.023184   -0.165383    0.036624    1.097311
* Read MO coefficients from SIRIUS.RST with label "NEWORB  " and header info: 29Dec18  DIIS   7
      Virial theorem: -V/T =      2.002901
@      MULPOP N      -0.66; H       0.23; H       0.23; H       0.23; O      -0.67; O      -0.63; O      -0.78; O      -0.73; H       0.36; H       0.32; 
@             H       0.32; H       0.32; H       0.38; H       0.34; H       0.39; H       0.34; 

 DIIS Fock eigenvalues in symmetry 1
      -20.59698      -20.56280      -20.53026      -20.51892      -15.54680
       -1.37134       -1.34007       -1.32636       -1.27766       -1.13510
       -0.73662       -0.71144       -0.67041       -0.65815       -0.64176
       -0.62063       -0.60560       -0.58708       -0.58315       -0.55155
       -0.53507       -0.51686       -0.49703       -0.47681       -0.43013
        0.12364        0.15736        0.19360        0.21569        0.22463
        0.24918        0.27280        0.28667        0.31885        0.34714
        0.36757        0.47878        0.51350        0.53065        0.56015
        0.58025        0.59245        0.60544        0.61842        0.62712
        0.65600        0.68407        0.92491        0.92576        0.93959
        0.94444        0.98511        0.99362        1.00341        1.01078
        1.04034        1.04273        1.07146        1.08859        1.15334
        1.16154        1.19572        1.28430        1.31825        1.32995
        1.36810        1.37555        1.39969        1.43847        1.47058
        1.49499        1.50223        1.50643        1.54496        1.56861
        1.58508        1.66508        1.68170        1.71412        1.72422
        1.75317        1.76666        1.82759        1.85625        1.88117
        1.90554        1.97315        1.98688        2.02350        2.16127
        2.18306        2.22314        2.24673        2.25362        2.28451
        2.32083        2.34811        2.42058        2.46308        2.52698
        2.57623        2.62087        2.63998        2.71134        2.71584
        2.75726        2.79837        2.81933        2.84000        2.88649
        2.88858        2.97877        2.98243        3.20459        3.38223
        3.39219        3.42463        3.43137        3.48564        3.49330
        3.51583        3.52503        3.53631        3.55008        3.62059
        3.62198        3.64694        3.72527        3.94987        4.00123
        4.02316        4.06140        4.18320        4.21652        4.22928
        4.31472        4.49715        5.08356        5.25873        5.27466
        5.31050        5.33470        5.35394        5.64850        5.68405
        5.71638        5.81155        6.08005        6.09626        6.12548
        6.14912       37.00019       51.47505       51.50779       51.54796
       51.55891
 Time used in FCKEIG, thr_jaco:   2.51D-01  2.50D-02  1.07D-07
 CPU and wall times used in FCKEIG, THR_FCKEIG:   2.51D-01  2.50D-02  2.45D-05
 -----------------------------------------------------------------------------

 *** DIIS iteration number    8
 RDSUPM called. NFMAT, ISYMDM(1:NFMAT)                     1
                     1

 ITDIIS, energy, error norm, change in energy, scr.thr., difden:
@ DIIS iter.   8    -360.765700079        3.42495D-04   -5.84D-07  -20    F

 (DIIS_RED) Control Parameters C2DIIS =         F NEVC =    8


 (DIIS_RED) B matrix:

               Column   1     Column   2     Column   3     Column   4     Column   5     Column   6
       1      14.14593976
       2       0.96724456     0.84905524
       3       0.60723905     0.06321687     0.11608644
       4      -0.00074718     0.08212844    -0.00932767     0.01446878
       5       0.01375811     0.00622272     0.00500926     0.00070764     0.00057063
       6      -0.00204536    -0.00033222     0.00052970     0.00017442     0.00005941     0.00005919
       7       0.00063120    -0.00001993     0.00008187    -0.00000732     0.00003572    -0.00000129
       8       0.00006574     0.00000266     0.00000001     0.00000323     0.00000109     0.00000123

               Column   7     Column   8
       7       0.00000600
       8       0.00000030     0.00000012
    ==== End of matrix output ====

 DIIS C vector; C2DIIS = F, LAMBDA = -5.73D-08
    0.000016    0.000094   -0.001151   -0.002485    0.026166   -0.036417   -0.204656    1.218434
* Read MO coefficients from SIRIUS.RST with label "NEWORB  " and header info: 29Dec18  DIIS   8
      Virial theorem: -V/T =      2.002917
@      MULPOP N      -0.66; H       0.23; H       0.23; H       0.23; O      -0.67; O      -0.63; O      -0.78; O      -0.73; H       0.36; H       0.32; 
@             H       0.32; H       0.32; H       0.38; H       0.34; H       0.39; H       0.34; 

 DIIS Fock eigenvalues in symmetry 1
      -20.59695      -20.56276      -20.53023      -20.51896      -15.54683
       -1.37132       -1.34006       -1.32635       -1.27767       -1.13511
       -0.73661       -0.71143       -0.67040       -0.65815       -0.64177
       -0.62064       -0.60561       -0.58709       -0.58316       -0.55153
       -0.53509       -0.51685       -0.49702       -0.47681       -0.43014
        0.12364        0.15736        0.19359        0.21569        0.22463
        0.24918        0.27280        0.28666        0.31884        0.34714
        0.36756        0.47878        0.51350        0.53064        0.56015
        0.58025        0.59245        0.60543        0.61842        0.62712
        0.65599        0.68408        0.92490        0.92576        0.93959
        0.94444        0.98512        0.99362        1.00341        1.01078
        1.04033        1.04273        1.07146        1.08859        1.15334
        1.16155        1.19572        1.28430        1.31824        1.32995
        1.36810        1.37554        1.39969        1.43847        1.47057
        1.49498        1.50223        1.50643        1.54496        1.56860
        1.58508        1.66507        1.68170        1.71412        1.72422
        1.75317        1.76665        1.82758        1.85625        1.88116
        1.90553        1.97314        1.98687        2.02350        2.16126
        2.18305        2.22314        2.24673        2.25362        2.28451
        2.32083        2.34811        2.42056        2.46308        2.52696
        2.57623        2.62086        2.63998        2.71134        2.71583
        2.75725        2.79836        2.81932        2.83999        2.88648
        2.88858        2.97876        2.98242        3.20458        3.38224
        3.39218        3.42462        3.43138        3.48563        3.49331
[...]

 Principal values of diagonalized transition strength matrix:

             a.u.               
 1      -0.00000000
 2       0.00000000
 3       0.00004143

 Principal axis of diagonalized transition strength matrix:


               Column   1     Column   2     Column   3
       1       0.33312391     0.86438729    -0.37664714
       2      -0.35354907     0.48482912     0.79996486
       3       0.87408896    -0.13332418     0.46711150
    ==== End of matrix output ====


 CCSD   oscillator strength matrix for state nr. 13 of symmetry 1
 CCSD  excitation energy:15.17877076


               Column   1     Column   2     Column   3
       1     5.947526D-05  -1.263214D-04  -7.376477D-05
       2    -1.263214D-04   2.682967D-04   1.566665D-04
       3    -7.376477D-05   1.566665D-04   9.146990D-05
    ==== End of matrix output ====

 Principal values of diagonalized oscillator strength matrix:

             a.u.               
 1      -0.00000001
 2      -0.00000000
 3       0.00041925

 Principal axis of diagonalized oscillator strength matrix:


               Column   1     Column   2     Column   3
       1       0.33312391     0.86438729    -0.37664714
       2      -0.35354907     0.48482912     0.79996486
       3       0.87408896    -0.13332418     0.46711150
    ==== End of matrix output ====


 CCSD  Transition strength matrix for state nr. 14 of symmetry 1
 CCSD  excitation energy:15.21143192

 Gauge: length

               Column   1     Column   2     Column   3
       1     2.383120D-06   1.803738D-05  -6.547378D-06
       2     1.803738D-05   1.364277D-04  -4.953135D-05
       3    -6.547378D-06  -4.953135D-05   1.798185D-05
    ==== End of matrix output ====

 Principal values of diagonalized transition strength matrix:

             a.u.               
 1      -0.00000000
 2      -0.00000000
 3       0.00015680

 Principal axis of diagonalized transition strength matrix:


               Column   1     Column   2     Column   3
       1       0.79214577     0.59774295     0.12332251
       2      -0.29808690     0.20258518     0.93279336
       3      -0.53258734     0.77566914    -0.33865633
    ==== End of matrix output ====


 CCSD   oscillator strength matrix for state nr. 14 of symmetry 1
 CCSD  excitation energy:15.21143192


               Column   1     Column   2     Column   3
       1       0.00002417     0.00018292    -0.00006640
       2       0.00018292     0.00138351    -0.00050230
       3      -0.00006640    -0.00050230     0.00018235
    ==== End of matrix output ====

 Principal values of diagonalized oscillator strength matrix:

             a.u.               
 1      -0.00000002
 2      -0.00000000
 3       0.00159005

 Principal axis of diagonalized oscillator strength matrix:


               Column   1     Column   2     Column   3
       1       0.79214577     0.59774295     0.12332251
       2      -0.29808690     0.20258518     0.93279336
       3      -0.53258734     0.77566914    -0.33865633
    ==== End of matrix output ====


 CCSD  Transition strength matrix for state nr. 15 of symmetry 1
 CCSD  excitation energy:15.28957615

 Gauge: length

               Column   1     Column   2     Column   3
       1     1.736919D-06  -1.212552D-05   2.148846D-05
       2    -1.212552D-05   8.460356D-05  -1.499406D-04
       3     2.148846D-05  -1.499406D-04   2.657340D-04
    ==== End of matrix output ====

 Principal values of diagonalized transition strength matrix:

             a.u.               
 1      -0.00000000
 2      -0.00000000
 3       0.00035208

 Principal axis of diagonalized transition strength matrix:


               Column   1     Column   2     Column   3
       1       0.80234493    -0.59271161     0.07025357
       2       0.54525379     0.67999849    -0.49020440
       3       0.24277752     0.43161904     0.86877159
    ==== End of matrix output ====


 CCSD   oscillator strength matrix for state nr. 15 of symmetry 1
 CCSD  excitation energy:15.28957615


               Column   1     Column   2     Column   3
       1       0.00001770    -0.00012360     0.00021903
       2      -0.00012360     0.00086237    -0.00152835
       3       0.00021903    -0.00152835     0.00270864
    ==== End of matrix output ====

 Principal values of diagonalized oscillator strength matrix:

             a.u.               
 1      -0.00000001
 2      -0.00000000
 3       0.00358873

 Principal axis of diagonalized oscillator strength matrix:


               Column   1     Column   2     Column   3
       1       0.80234493    -0.59271161     0.07025357
       2       0.54525379     0.67999849    -0.49020440
       3       0.24277752     0.43161904     0.86877159
    ==== End of matrix output ====

  Total time for    135 linear response residues:     130.84 seconds.
  

 *******************************************************************************
 *******************************************************************************
 *                                                                             *
 *                                                                             *
 *                   SUMMARY OF COUPLED CLUSTER CALCULATION                    *
 *                                                                             *
 *                                                                             *
 *******************************************************************************
 *******************************************************************************

                                                                                
                                                                                
            Total SCF   energy:                  -360.7657000972                
            Total MP2   energy:                  -361.8639399612                
            Total CCSD  energy:                  -361.9045763600                
                                                                                
                                                                                
            Total SCF   energy:                  -360.7657000972                
            Total RSTAR energy:                  -361.9045763600                
            Total CCSD  energy:                  -361.9047139421                
                                                                                
                                                                                
            Total SCF   energy:                  -360.7657000972                
            Total RSTAR energy:                  -361.9047139421                
            Total CCSD  energy:                  -361.9047152886                
                                                                                
                                                                                
            Total SCF   energy:                  -360.7657000972                
            Total RSTAR energy:                  -361.9047152886                
            Total CCSD  energy:                  -361.9047153871                
                                                                                
                                                                                
            Total SCF   energy:                  -360.7657000972                
            Total RSTAR energy:                  -361.9047153871                
            Total CCSD  energy:                  -361.9047153915                
                                                                                
                                                                                
            Total SCF   energy:                  -360.7657000972                
            Total RSTAR energy:                  -361.9047153915                
            Total CCSD  energy:                  -361.9047153916                
            CCSD Total  energy:                  -362.3134684421                
            CCSD E(QM/MM)     :                    -0.4035181819                
                                                                                
                                                                                
                                                                                
 +=============================================================================+
 |  sym. | Exci.  |        CCSD       Excitation energies            | ||T1||  |
 |(spin, |        +------------------------------------------------------------+
 | spat) |        |     Hartree    |       eV.      |     cm-1       |    %    |
 +=============================================================================+
 | ^1A   |    1   |    14.8163113  |     403.17234  |   3251804.437  |  88.16  |
 | ^1A   |    2   |    14.8793763  |     404.88843  |   3265645.600  |  88.63  |
 | ^1A   |    3   |    14.8958715  |     405.33728  |   3269265.867  |  88.77  |
 | ^1A   |    4   |    14.9529938  |     406.89166  |   3281802.770  |  87.95  |
 | ^1A   |    5   |    14.9759315  |     407.51583  |   3286837.010  |  88.27  |
 | ^1A   |    6   |    15.0030345  |     408.25334  |   3292785.443  |  87.88  |
 | ^1A   |    7   |    15.0286148  |     408.94941  |   3298399.655  |  87.82  |
 | ^1A   |    8   |    15.0524020  |     409.59669  |   3303620.354  |  87.95  |
 | ^1A   |    9   |    15.0733527  |     410.16679  |   3308218.489  |  87.84  |
 | ^1A   |   10   |    15.0938099  |     410.72346  |   3312708.342  |  87.92  |
 | ^1A   |   11   |    15.1125253  |     411.23273  |   3316815.880  |  87.87  |
 | ^1A   |   12   |    15.1308772  |     411.73211  |   3320843.657  |  87.87  |
 | ^1A   |   13   |    15.1787708  |     413.03536  |   3331355.086  |  87.66  |
 | ^1A   |   14   |    15.2114319  |     413.92412  |   3338523.383  |  87.63  |
 | ^1A   |   15   |    15.2895762  |     416.05053  |   3355674.059  |  87.97  |
 +=============================================================================+
                                                                                
                                                                                
     Total energies in Hartree:                                                 
             1 ^1A       -347.0936389327                                        
             2 ^1A       -347.0305739519                                        
             3 ^1A       -347.0140788019                                        
             4 ^1A       -346.9569564673                                        
             5 ^1A       -346.9340187831                                        
             6 ^1A       -346.9069157282                                        
             7 ^1A       -346.8813354935                                        
             8 ^1A       -346.8575482398                                        
             9 ^1A       -346.8365975977                                        
            10 ^1A       -346.8161403218                                        
            11 ^1A       -346.7974250010                                        
            12 ^1A       -346.7790730948                                        
            13 ^1A       -346.7311795032                                        
            14 ^1A       -346.6985183390                                        
            15 ^1A       -346.6203741074                                        
                                                                                
                                                                                
 +=============================================================================+
 |  sym. | Exci.  |        CCSD       Length   Gauge Oscillator Strength       |
 |(spin, |        +------------------------------------------------------------+
 | spat) |        | Dipole Strength(a.u.) | Oscillator strength  | Direction   |
 +=============================================================================+
 | ^1A   |    1   |        0.0005842      |      0.0057707       |  (Y,Z)      |
 | ^1A   |    2   |        0.0040402      |      0.0400768       |  (Y,Z)      |
 | ^1A   |    3   |        0.0035650      |      0.0354023       |  (Y,Z)      |
 | ^1A   |    4   |        0.0006245      |      0.0062252       |  (Y,Z)      |
 | ^1A   |    5   |        0.0018223      |      0.0181938       |  (Y,Z)      |
 | ^1A   |    6   |        0.0003591      |      0.0035916       |  (Y,Z)      |
 | ^1A   |    7   |        0.0001201      |      0.0012031       |  (Y,Z)      |
 | ^1A   |    8   |        0.0001373      |      0.0013776       |  (Y,Z)      |
 | ^1A   |    9   |        0.0000730      |      0.0007339       |  (Y,Z)      |
 | ^1A   |   10   |        0.0004386      |      0.0044137       |  (Y,Z)      |
 | ^1A   |   11   |        0.0001822      |      0.0018353       |  (Y,Z)      |
 | ^1A   |   12   |        0.0002544      |      0.0025667       |  (Y,Z)      |
 | ^1A   |   13   |        0.0000414      |      0.0004192       |  (Y,Z)      |
 | ^1A   |   14   |        0.0001568      |      0.0015900       |  (Y,Z)      |
 | ^1A   |   15   |        0.0003521      |      0.0035887       |  (Y,Z)      |
 +=============================================================================+

  1 a.u. =        27.21138 eV.  
  1 a.u. =    219474.62934 cm-1.
  

 *******************************************************************************
 *******************************************************************************
 *                                                                             *
 *                                                                             *
 *                      END OF COUPLED CLUSTER CALCULATION                     *
 *                                                                             *
 *                                                                             *
 *******************************************************************************
 *******************************************************************************


 CPU and wall time for CC :  517432.552   82881.717

 
     Date and time (Linux)  : Sun Dec 30 18:06:56 2018
     Host name              : n-62-29-5                               


                      .-------------------------------------.
                      | End of Coupled Cluster Section (CC) |
                      `-------------------------------------'

  Total CPU  time used in DALTON: 143 hours 54 minutes  0 seconds
  Total wall time used in DALTON:  23 hours  3 minutes 18 seconds

 
     Date and time (Linux)  : Sun Dec 30 18:06:56 2018
     Host name              : n-62-29-5                               
  

 +---------------------------------------------------------+ 
 | List of selected calculated molecular properties (a.u.) | 
 +---------------------------------------------------------+ 

  Properties are read from unit number                      4

 CCSD       properties :
 #  1 1 CCSD/MM  Ground state Energy =    -362.3134684421
 #  2 1 E_QM/MM  Ground state Energy =      -0.4035181819
 #  3 1 Sy: 1 Sp: 1 Exc:  1 E_tot:   -347.0936389327 w:     14.8163113276 E_grs:   -361.9099502602
 #  4 1 Exctot   Excited state Energy =    -347.0936389327
 #  5 1 Sy: 1 Sp: 1 Exc:  2 E_tot:   -347.0305739519 w:     14.8793763083 E_grs:   -361.9099502602
 #  6 1 Exctot   Excited state Energy =    -347.0305739519
 #  7 1 Sy: 1 Sp: 1 Exc:  3 E_tot:   -347.0140788019 w:     14.8958714583 E_grs:   -361.9099502602
 #  8 1 Exctot   Excited state Energy =    -347.0140788019
 #  9 1 Sy: 1 Sp: 1 Exc:  4 E_tot:   -346.9569564673 w:     14.9529937930 E_grs:   -361.9099502602
 # 10 1 Exctot   Excited state Energy =    -346.9569564673
 # 11 1 Sy: 1 Sp: 1 Exc:  5 E_tot:   -346.9340187831 w:     14.9759314772 E_grs:   -361.9099502602
 # 12 1 Exctot   Excited state Energy =    -346.9340187831
 # 13 1 Sy: 1 Sp: 1 Exc:  6 E_tot:   -346.9069157282 w:     15.0030345321 E_grs:   -361.9099502602
 # 14 1 Exctot   Excited state Energy =    -346.9069157282
 # 15 1 Sy: 1 Sp: 1 Exc:  7 E_tot:   -346.8813354935 w:     15.0286147667 E_grs:   -361.9099502602
 # 16 1 Exctot   Excited state Energy =    -346.8813354935
 # 17 1 Sy: 1 Sp: 1 Exc:  8 E_tot:   -346.8575482398 w:     15.0524020205 E_grs:   -361.9099502602
 # 18 1 Exctot   Excited state Energy =    -346.8575482398
 # 19 1 Sy: 1 Sp: 1 Exc:  9 E_tot:   -346.8365975977 w:     15.0733526625 E_grs:   -361.9099502602
 # 20 1 Exctot   Excited state Energy =    -346.8365975977
 # 21 1 Sy: 1 Sp: 1 Exc: 10 E_tot:   -346.8161403218 w:     15.0938099385 E_grs:   -361.9099502602
 # 22 1 Exctot   Excited state Energy =    -346.8161403218
 # 23 1 Sy: 1 Sp: 1 Exc: 11 E_tot:   -346.7974250010 w:     15.1125252593 E_grs:   -361.9099502602
 # 24 1 Exctot   Excited state Energy =    -346.7974250010
 # 25 1 Sy: 1 Sp: 1 Exc: 12 E_tot:   -346.7790730948 w:     15.1308771654 E_grs:   -361.9099502602
 # 26 1 Exctot   Excited state Energy =    -346.7790730948
 # 27 1 Sy: 1 Sp: 1 Exc: 13 E_tot:   -346.7311795032 w:     15.1787707571 E_grs:   -361.9099502602
 # 28 1 Exctot   Excited state Energy =    -346.7311795032
 # 29 1 Sy: 1 Sp: 1 Exc: 14 E_tot:   -346.6985183390 w:     15.2114319213 E_grs:   -361.9099502602
 # 30 1 Exctot   Excited state Energy =    -346.6985183390
 # 31 1 Sy: 1 Sp: 1 Exc: 15 E_tot:   -346.6203741074 w:     15.2895761529 E_grs:   -361.9099502602
 # 32 1 Exctot   Excited state Energy =    -346.6203741074
 # 33 1 |<O|XDIPLEN |i(14.816311)>| =     0.00149447
 # 35 1 |<O|XDIPLEN |i(14.879376)>| =     0.06280065
 # 37 1 |<O|XDIPLEN |i(14.895871)>| =     0.00678338
 # 39 1 |<O|XDIPLEN |i(14.952994)>| =     0.01810196
 # 41 1 |<O|XDIPLEN |i(14.975931)>| =     0.01063083
 # 43 1 |<O|XDIPLEN |i(15.003035)>| =     0.01193165
 # 45 1 |<O|XDIPLEN |i(15.028615)>| =     0.00801177
 # 47 1 |<O|XDIPLEN |i(15.052402)>| =     0.00832170
 # 49 1 |<O|XDIPLEN |i(15.073353)>| =     0.00311552
 # 51 1 |<O|XDIPLEN |i(15.093810)>| =     0.00338556
 # 53 1 |<O|XDIPLEN |i(15.112525)>| =     0.00317919
 # 55 1 |<O|XDIPLEN |i(15.130877)>| =     0.00111685
 # 57 1 |<O|XDIPLEN |i(15.178771)>| =     0.00242435
 # 59 1 |<O|XDIPLEN |i(15.211432)>| =     0.00154374
 # 61 1 |<O|XDIPLEN |i(15.289576)>| =     0.00131792
 # 63 1 |<O|YDIPLEN |i(14.816311)>| =     0.00593561
 # 65 1 |<O|YDIPLEN |i(14.879376)>| =     0.00301157
 # 67 1 |<O|YDIPLEN |i(14.895871)>| =     0.05034400
 # 69 1 |<O|YDIPLEN |i(14.952994)>| =     0.00882327
 # 71 1 |<O|YDIPLEN |i(14.975931)>| =     0.01973027
 # 73 1 |<O|YDIPLEN |i(15.003035)>| =     0.01461023
 # 75 1 |<O|YDIPLEN |i(15.028615)>| =     0.00551420
 # 77 1 |<O|YDIPLEN |i(15.052402)>| =     0.00777671
 # 79 1 |<O|YDIPLEN |i(15.073353)>| =     0.00706235
 # 81 1 |<O|YDIPLEN |i(15.093810)>| =     0.00460929
 # 83 1 |<O|YDIPLEN |i(15.112525)>| =     0.00856853
 # 85 1 |<O|YDIPLEN |i(15.130877)>| =     0.01512400
 # 87 1 |<O|YDIPLEN |i(15.178771)>| =     0.00514914
 # 89 1 |<O|YDIPLEN |i(15.211432)>| =     0.01168023
 # 91 1 |<O|YDIPLEN |i(15.289576)>| =     0.00919802
 # 93 1 |<O|ZDIPLEN |i(14.816311)>| =     0.02338280
 # 95 1 |<O|ZDIPLEN |i(14.879376)>| =     0.00933706
 # 97 1 |<O|ZDIPLEN |i(14.895871)>| =     0.03137585
 # 99 1 |<O|ZDIPLEN |i(14.952994)>| =     0.01479682
 #101 1 |<O|ZDIPLEN |i(14.975931)>| =     0.03633184
 #103 1 |<O|ZDIPLEN |i(15.003035)>| =     0.00180671
 #105 1 |<O|ZDIPLEN |i(15.028615)>| =     0.00504885
 #107 1 |<O|ZDIPLEN |i(15.052402)>| =     0.00274784
 #109 1 |<O|ZDIPLEN |i(15.073353)>| =     0.00366693
 #111 1 |<O|ZDIPLEN |i(15.093810)>| =     0.02014752
 #113 1 |<O|ZDIPLEN |i(15.112525)>| =     0.00993155
 #115 1 |<O|ZDIPLEN |i(15.130877)>| =     0.00494609
 #117 1 |<O|ZDIPLEN |i(15.178771)>| =     0.00300654
 #119 1 |<O|ZDIPLEN |i(15.211432)>| =     0.00424050
 #121 1 |<O|ZDIPLEN |i(15.289576)>| =     0.01630135

 THE_END   
