

     ************************************************************************
     *************** Dalton - An Electronic Structure Program ***************
     ************************************************************************

    This is output from DALTON release Dalton2017.alpha (2016)
         ( Web site: http://daltonprogram.org )

   ----------------------------------------------------------------------------

    NOTE:
     
    Dalton is an experimental code for the evaluation of molecular
    properties using (MC)SCF, DFT, CI, and CC wave functions.
    The authors accept no responsibility for the performance of
    the code or for the correctness of the results.
     
    The code (in whole or part) is provided under a licence and
    is not to be reproduced for further distribution without
    the written permission of the authors or their representatives.
     
    See the home page "http://daltonprogram.org" for further information.
     
    If results obtained with this code are published,
    the appropriate citations would be both of:
     
       K. Aidas, C. Angeli, K. L. Bak, V. Bakken, R. Bast,
       L. Boman, O. Christiansen, R. Cimiraglia, S. Coriani,
       P. Dahle, E. K. Dalskov, U. Ekstroem,
       T. Enevoldsen, J. J. Eriksen, P. Ettenhuber, B. Fernandez,
       L. Ferrighi, H. Fliegl, L. Frediani, K. Hald, A. Halkier,
       C. Haettig, H. Heiberg, T. Helgaker, A. C. Hennum,
       H. Hettema, E. Hjertenaes, S. Hoest, I.-M. Hoeyvik,
       M. F. Iozzi, B. Jansik, H. J. Aa. Jensen, D. Jonsson,
       P. Joergensen, J. Kauczor, S. Kirpekar,
       T. Kjaergaard, W. Klopper, S. Knecht, R. Kobayashi, H. Koch,
       J. Kongsted, A. Krapp, K. Kristensen, A. Ligabue,
       O. B. Lutnaes, J. I. Melo, K. V. Mikkelsen, R. H. Myhre,
       C. Neiss, C. B. Nielsen, P. Norman, J. Olsen,
       J. M. H. Olsen, A. Osted, M. J. Packer, F. Pawlowski,
       T. B. Pedersen, P. F. Provasi, S. Reine, Z. Rinkevicius,
       T. A. Ruden, K. Ruud, V. Rybkin, P. Salek, C. C. M. Samson,
       A. Sanchez de Meras, T. Saue, S. P. A. Sauer,
       B. Schimmelpfennig, K. Sneskov, A. H. Steindal,
       K. O. Sylvester-Hvid, P. R. Taylor, A. M. Teale,
       E. I. Tellgren, D. P. Tew, A. J. Thorvaldsen, L. Thoegersen,
       O. Vahtras, M. A. Watson, D. J. D. Wilson, M. Ziolkowski
       and H. Agren,
       "The Dalton quantum chemistry program system",
       WIREs Comput. Mol. Sci. 2014, 4:269–284 (doi: 10.1002/wcms.1172)
     
    and
     
       Dalton, a Molecular Electronic Structure Program,
       Release Dalton2017.alpha (2016), see http://daltonprogram.org
   ----------------------------------------------------------------------------

    Authors in alphabetical order (major contribution(s) in parenthesis):

  Kestutis Aidas,           Vilnius University,           Lithuania   (QM/MM)
  Celestino Angeli,         University of Ferrara,        Italy       (NEVPT2)
  Keld L. Bak,              UNI-C,                        Denmark     (AOSOPPA, non-adiabatic coupling, magnetic properties)
  Vebjoern Bakken,          University of Oslo,           Norway      (DALTON; geometry optimizer, symmetry detection)
  Radovan Bast,             UiT The Arctic U. of Norway,  Norway      (DALTON installation and execution frameworks)
  Pablo Baudin,             University of Valencia,       Spain       (Cholesky excitation energies)
  Linus Boman,              NTNU,                         Norway      (Cholesky decomposition and subsystems)
  Ove Christiansen,         Aarhus University,            Denmark     (CC module)
  Renzo Cimiraglia,         University of Ferrara,        Italy       (NEVPT2)
  Sonia Coriani,            University of Trieste,        Italy       (CC module, MCD in RESPONS)
  Janusz Cukras,            University of Trieste,        Italy       (MChD in RESPONS)
  Paal Dahle,               University of Oslo,           Norway      (Parallelization)
  Erik K. Dalskov,          UNI-C,                        Denmark     (SOPPA)
  Thomas Enevoldsen,        Univ. of Southern Denmark,    Denmark     (SOPPA)
  Janus J. Eriksen,         Aarhus University,            Denmark     (Polarizable embedding model, TDA)
  Rasmus Faber,             University of Copenhagen,     Denmark     (Vib.avg. NMR with SOPPA, parallel AO-SOPPA)
  Berta Fernandez,          U. of Santiago de Compostela, Spain       (doublet spin, ESR in RESPONS)
  Lara Ferrighi,            Aarhus University,            Denmark     (PCM Cubic response)
  Heike Fliegl,             University of Oslo,           Norway      (CCSD(R12))
  Luca Frediani,            UiT The Arctic U. of Norway,  Norway      (PCM)
  Bin Gao,                  UiT The Arctic U. of Norway,  Norway      (Gen1Int library)
  Christof Haettig,         Ruhr-University Bochum,       Germany     (CC module)
  Kasper Hald,              Aarhus University,            Denmark     (CC module)
  Asger Halkier,            Aarhus University,            Denmark     (CC module)
  Frederik Beyer Hansen,    University of Copenhagen,     Denmark     (Parallel AO-SOPPA)
  Erik D. Hedegaard,        Univ. of Southern Denmark,    Denmark     (Polarizable embedding model, QM/MM)
  Hanne Heiberg,            University of Oslo,           Norway      (geometry analysis, selected one-electron integrals)
  Trygve Helgaker,          University of Oslo,           Norway      (DALTON; ABACUS, ERI, DFT modules, London, and much more)
  Alf Christian Hennum,     University of Oslo,           Norway      (Parity violation)
  Hinne Hettema,            University of Auckland,       New Zealand (quadratic response in RESPONS; SIRIUS supersymmetry)
  Eirik Hjertenaes,         NTNU,                         Norway      (Cholesky decomposition)
  Pi A. B. Haase,           University of Copenhagen,     Denmark     (Triplet AO-SOPPA)
  Maria Francesca Iozzi,    University of Oslo,           Norway      (RPA)
  Brano Jansik              Technical Univ. of Ostrava    Czech Rep.  (DFT cubic response)
  Hans Joergen Aa. Jensen,  Univ. of Southern Denmark,    Denmark     (DALTON; SIRIUS, RESPONS, ABACUS modules, London, and much more)
  Dan Jonsson,              UiT The Arctic U. of Norway,  Norway      (cubic response in RESPONS module)
  Poul Joergensen,          Aarhus University,            Denmark     (RESPONS, ABACUS, and CC modules)
  Maciej Kaminski,          University of Warsaw,         Poland      (CPPh in RESPONS)
  Joanna Kauczor,           Linkoeping University,        Sweden      (Complex polarization propagator (CPP) module)
  Sheela Kirpekar,          Univ. of Southern Denmark,    Denmark     (Mass-velocity & Darwin integrals)
  Wim Klopper,              KIT Karlsruhe,                Germany     (R12 code in CC, SIRIUS, and ABACUS modules)
  Stefan Knecht,            ETH Zurich,                   Switzerland (Parallel CI and MCSCF)
  Rika Kobayashi,           Australian National Univ.,    Australia   (DIIS in CC, London in MCSCF)
  Henrik Koch,              NTNU,                         Norway      (CC module, Cholesky decomposition)
  Jacob Kongsted,           Univ. of Southern Denmark,    Denmark     (Polarizable embedding model, QM/MM)
  Andrea Ligabue,           University of Modena,         Italy       (CTOCD, AOSOPPA)
  Nanna H. List             Univ. of Southern Denmark,    Denmark     (Polarizable embedding model)
  Ola B. Lutnaes,           University of Oslo,           Norway      (DFT Hessian)
  Juan I. Melo,             University of Buenos Aires,   Argentina   (LRESC, Relativistic Effects on NMR Shieldings)
  Kurt V. Mikkelsen,        University of Copenhagen,     Denmark     (MC-SCRF and QM/MM)
  Rolf H. Myhre,            NTNU,                         Norway      (Cholesky, subsystems and ECC2)
  Christian Neiss,          Univ. Erlangen-Nuernberg,     Germany     (CCSD(R12))
  Christian B. Nielsen,     University of Copenhagen,     Denmark     (QM/MM)
  Patrick Norman,           Linkoeping University,        Sweden      (Cubic response and complex frequency response in RESPONS)
  Jeppe Olsen,              Aarhus University,            Denmark     (SIRIUS CI/density modules)
  Jogvan Magnus H. Olsen,   Univ. of Southern Denmark,    Denmark     (Polarizable embedding model, QM/MM)
  Anders Osted,             Copenhagen University,        Denmark     (QM/MM)
  Martin J. Packer,         University of Sheffield,      UK          (SOPPA)
  Filip Pawlowski,          Kazimierz Wielki University,  Poland      (CC3)
  Morten N. Pedersen,       Univ. of Southern Denmark,    Denmark     (Polarizable embedding model)
  Thomas B. Pedersen,       University of Oslo,           Norway      (Cholesky decomposition)
  Patricio F. Provasi,      University of Northeastern,   Argentina   (Analysis of coupling constants in localized orbitals)
  Zilvinas Rinkevicius,     KTH Stockholm,                Sweden      (open-shell DFT, ESR)
  Elias Rudberg,            KTH Stockholm,                Sweden      (DFT grid and basis info)
  Torgeir A. Ruden,         University of Oslo,           Norway      (Numerical derivatives in ABACUS)
  Kenneth Ruud,             UiT The Arctic U. of Norway,  Norway      (DALTON; ABACUS magnetic properties and much more)
  Pawel Salek,              KTH Stockholm,                Sweden      (DALTON; DFT code)
  Claire C. M. Samson       University of Karlsruhe       Germany     (Boys localization, r12 integrals in ERI)
  Alfredo Sanchez de Meras, University of Valencia,       Spain       (CC module, Cholesky decomposition)
  Trond Saue,               Paul Sabatier University,     France      (direct Fock matrix construction)
  Stephan P. A. Sauer,      University of Copenhagen,     Denmark     (SOPPA(CCSD), SOPPA prop., AOSOPPA, vibrational g-factors)
  Bernd Schimmelpfennig,    Forschungszentrum Karlsruhe,  Germany     (AMFI module)
  Kristian Sneskov,         Aarhus University,            Denmark     (Polarizable embedding model, QM/MM)
  Arnfinn H. Steindal,      UiT The Arctic U. of Norway,  Norway      (parallel QM/MM, Polarizable embedding model)
  Casper Steinmann,         Univ. of Southern Denmark,    Denmark     (QFIT, Polarizable embedding model)
  K. O. Sylvester-Hvid,     University of Copenhagen,     Denmark     (MC-SCRF)
  Peter R. Taylor,          VLSCI/Univ. of Melbourne,     Australia   (Symmetry handling ABACUS, integral transformation)
  Andrew M. Teale,          University of Nottingham,     England     (DFT-AC, DFT-D)
  David P. Tew,             University of Bristol,        England     (CCSD(R12))
  Olav Vahtras,             KTH Stockholm,                Sweden      (triplet response, spin-orbit, ESR, TDDFT, open-shell DFT)
  David J. Wilson,          La Trobe University,          Australia   (DFT Hessian and DFT magnetizabilities)
  Hans Agren,               KTH Stockholm,                Sweden      (SIRIUS module, RESPONS, MC-SCRF solvation model)
 --------------------------------------------------------------------------------

     Date and time (Linux)  : Thu Dec 27 21:57:56 2018
     Host name              : n-62-23-22                              

 * Work memory size             :  1280000000 =  9.537 gigabytes.

 * Directories for basis set searches:
   1) /zhome/37/3/129401/NH3NH4/CCSD/AIMD_SAMPLING/nh3_4h2o_nd
   2) /zhome/9a/4/124800/source/dalton/build-mlcc/basis


Compilation information
-----------------------

 Who compiled             | rfaber
 Host                     | hpclogin1
 System                   | Linux-2.6.32-696.1.1.el6.x86_64
 CMake generator          | Unix Makefiles
 Processor                | x86_64
 64-bit integers          | ON
 MPI                      | OFF
 Fortran compiler         | /opt/intel/2016update2/compilers_and_libraries_201
                          | 6.2.181/linux/bin/intel64/ifort
 Fortran compiler version | ifort (IFORT) 16.0.2 20160204
 C compiler               | /opt/intel/2016update2/compilers_and_libraries_201
                          | 6.2.181/linux/bin/intel64/icc
 C compiler version       | icc (ICC) 16.0.2 20160204
 C++ compiler             | /opt/intel/2016update2/compilers_and_libraries_201
                          | 6.2.181/linux/bin/intel64/icpc
 C++ compiler version     | icpc (ICC) 16.0.2 20160204
 Static linking           | OFF
 Last Git revision        | bb4d1599ca5680a9f3980451fc8bbefdba436d59
 Git branch               | mlcc
 Configuration time       | 2017-06-13 16:11:03.928841


   Content of the .dal input file
 ----------------------------------

**DALTON
.RUN WAVE FUNCTIONS
*QMMM
.QMMM
**INTEGRALS
.DIPLEN
**WAVE FUNCTIONS
.CC
*PRINT
!To check the origin of excit
.PRINTL
   0 11
*SCF INP
.THRESH
1.0D-7
*CC INP
.CCSD
.THRLEQ
 1.0D-9
.THRENR
 1.0D-10
.FROIMP
4
0
.PRINT
 1
.MAX IT
 1200
.MAXRED
 1200
.MXLRV
1199
*CCSLV
.CCMM
.MXSLIT
200
.MXINIT
4 5
*CCEXCI
.NCCEXC
 15
.CVSEPARA
1
1
*CCLRSD
.DIPOLE
**END OF DALTON INPUT


   Content of the .mol file
 ----------------------------

ATOMBASIS


Atomtypes=4 Charge=0 Nosymm Angstrom
   7.00000    1    Basis=6-311G**
N          0.000000        0.000000        0.000000
   1.00000    3    Basis=6-311G**
H         -0.992371       -0.098885       -0.068882
H          0.490708       -0.819885        0.426471
H          0.245244        0.907211        0.596179
   8.00000    4    Basis=6-311G**
O          2.409885       -0.795207        2.149951
O          0.860397        0.794746       -2.564067
O         -2.513951        2.055442        0.023683
O          0.317081        2.928233       -0.160079
   1.00000    8    Basis=6-311G**
H          2.377413        0.152485        2.298744
H          2.844539       -1.024767        1.272640
H          1.712575        1.221165       -2.490671
H          0.603089        0.429237       -1.617210
H         -2.632854        1.619421        0.947814
H         -3.241306        2.765624        0.055382
H         -0.639638        2.658623        0.041985
H          0.236747        3.907995        0.064434


       *******************************************************************
       *********** Output from DALTON general input processing ***********
       *******************************************************************

 --------------------------------------------------------------------------------
   Overall default print level:    0
   Print level for DALTON.STAT:    1

    HERMIT 1- and 2-electron integral sections will be executed
    "Old" integral transformation used (limited to max 255 basis functions)
    Wave function sections will be executed (SIRIUS module)
 --------------------------------------------------------------------------------


 Changes of defaults for *QMMM  :
 --------------------------------

 +------------------+
 |  WORD: | CHANGE: |
 +------------------+
 |   QMMM |       T |
 +------------------+
 


   ****************************************************************************
   *************** Output of molecule and basis set information ***************
   ****************************************************************************


    The two title cards from your ".mol" input:
    ------------------------------------------------------------------------
 1:                                                                         
 2:                                                                         
    ------------------------------------------------------------------------

  Coordinates are entered in Angstrom and converted to atomic units.
          - Conversion factor : 1 bohr = 0.52917721 A

  Atomic type no.    1
  --------------------
  Nuclear charge:   7.00000
  Number of symmetry independent centers:    1
  Number of basis sets to read;    2
  The basis set is "6-311G**" from the basis set library.
  Basis set file used for this atomic type with Z =   7 :
     "/zhome/9a/4/124800/source/dalton/build-mlcc/basis/6-311G**"

  Info about the basis set file: your basis has no documentation.
  Basis set: 6-311G**                                                                        

  Atomic type no.    2
  --------------------
  Nuclear charge:   1.00000
  Number of symmetry independent centers:    3
  Number of basis sets to read;    2
  The basis set is "6-311G**" from the basis set library.
  Basis set file used for this atomic type with Z =   1 :
     "/zhome/9a/4/124800/source/dalton/build-mlcc/basis/6-311G**"

  Info about the basis set file: your basis has no documentation.
  Basis set: 6-311G**                                                                        

  Atomic type no.    3
  --------------------
  Nuclear charge:   8.00000
  Number of symmetry independent centers:    4
  Number of basis sets to read;    2
  The basis set is "6-311G**" from the basis set library.
  Basis set file used for this atomic type with Z =   8 :
     "/zhome/9a/4/124800/source/dalton/build-mlcc/basis/6-311G**"

  Info about the basis set file: your basis has no documentation.
  Basis set: 6-311G**                                                                        

  Atomic type no.    4
  --------------------
  Nuclear charge:   1.00000
  Number of symmetry independent centers:    8
  Number of basis sets to read;    2
  The basis set is "6-311G**" from the basis set library.
  Basis set file used for this atomic type with Z =   1 :
     "/zhome/9a/4/124800/source/dalton/build-mlcc/basis/6-311G**"

  Info about the basis set file: your basis has no documentation.
  Basis set: 6-311G**                                                                        


                         SYMGRP: Point group information
                         -------------------------------

@    Point group: C1 


                                 Isotopic Masses
                                 ---------------

                           N          14.003074
                           H           1.007825
                           H           1.007825
                           H           1.007825
                           O          15.994915
                           O          15.994915
                           O          15.994915
                           O          15.994915
                           H           1.007825
                           H           1.007825
                           H           1.007825
                           H           1.007825
                           H           1.007825
                           H           1.007825
                           H           1.007825
                           H           1.007825

                       Total mass:    89.068809 amu
                       Natural abundance:  98.514 %

 Center-of-mass coordinates (a.u.):    0.385740    1.941647   -0.154171


  Atoms and basis sets
  --------------------

  Number of atom types :    4
  Total number of atoms:   16

  label    atoms   charge   prim   cont     basis
  ----------------------------------------------------------------------
  N           1    7.0000    31    18      [11s5p1d|4s3p1d]                                   
  H           3    1.0000     8     6      [5s1p|3s1p]                                        
  O           4    8.0000    31    18      [11s5p1d|4s3p1d]                                   
  H           8    1.0000     8     6      [5s1p|3s1p]                                        
  ----------------------------------------------------------------------
  total:     16   50.0000   243   156
  ----------------------------------------------------------------------
  Spherical harmonic basis used.

  Threshold for neglecting AO integrals:  1.00D-12


  Cartesian Coordinates (a.u.)
  ----------------------------

  Total number of coordinates:   48
  N       :     1  x   0.0000000000    2  y   0.0000000000    3  z   0.0000000000
  H       :     4  x  -1.8753094044    5  y  -0.1868655679    6  z  -0.1301681149
  H       :     7  x   0.9273037273    8  y  -1.5493581040    9  z   0.8059133903
  H       :    10  x   0.4634439938   11  y   1.7143803276   12  z   1.1266150315
  O       :    13  x   4.5540226427   14  y  -1.5027234427   15  z   4.0628185722
  O       :    16  x   1.6259146888   17  y   1.5018522789   18  z  -4.8453843961
  O       :    19  x  -4.7506788817   20  y   3.8842224458   21  z   0.0447543838
  O       :    22  x   0.5991962494   23  y   5.5335584002   24  z  -0.3025054684
  H       :    25  x   4.4926594560   26  y   0.2881548882   27  z   4.3439965915
  H       :    28  x   5.3753996619   29  y  -1.9365289719   30  z   2.4049410557
  H       :    31  x   3.2362977185   32  y   2.3076674034   33  z  -4.7066860575
  H       :    34  x   1.1396730390   35  y   0.8111403727   36  z  -3.0560839866
  H       :    37  x  -4.9753729871   38  y   3.0602621711   39  z   1.7911088774
  H       :    40  x  -6.1251806273   41  y   5.2262719247   42  z   0.1046568123
  H       :    43  x  -1.2087406391   44  y   5.0240693396   45  z   0.0793401514
  H       :    46  x   0.4473869909   47  y   7.3850402478   48  z   0.1217626131


   Interatomic separations (in Angstrom):
   --------------------------------------

            N           H           H           H           O           O     
            ------      ------      ------      ------      ------      ------
 N     :    0.000000
 H     :    0.999662    0.000000
 H     :    1.046367    1.721842    0.000000
 H     :    1.112927    1.728070    1.752688    0.000000
 O     :    3.325987    4.121096    2.579580    3.161978    0.000000
 O     :    2.818926    3.233771    3.418628    3.221524    5.210646    0.000000
 O     :    3.247361    2.639109    4.178244    3.042917    6.073827    4.435316
 O     :    2.949697    3.299458    3.797707    2.159078    4.855932    3.259773
 H     :    3.310524    4.126049    2.830294    2.830986    0.959851    5.134274
 H     :    3.280421    4.168791    2.509681    3.308545    1.005632    4.686979
 H     :    3.260000    3.863202    3.764115    3.432240    5.107580    0.955734
 H     :    1.778575    2.285109    2.397826    2.292510    4.353766    1.047064
 H     :    3.233078    2.584073    3.997331    2.985689    5.718809    5.021573
 H     :    4.261198    3.643976    5.188594    3.987755    7.000193    5.250699
 H     :    2.734808    2.782187    3.677707    2.039017    5.066760    3.537746
 H     :    3.915690    4.193279    4.748517    3.047545    5.584982    4.121926

            O           O           H           H           H           H     
            ------      ------      ------      ------      ------      ------
 O     :    0.000000
 O     :    2.968211    0.000000
 H     :    5.720366    4.242117    0.000000
 H     :    6.305632    4.905806    1.630036    0.000000
 H     :    4.988138    3.208293    4.952028    4.526374    0.000000
 H     :    3.879821    2.906890    4.308075    3.935665    1.618964    0.000000
 H     :    1.028723    3.412116    5.392559    6.090901    5.555586    4.297350
 H     :    1.017059    3.568611    6.590233    7.272296    5.780024    4.799546
 H     :    1.969064    1.014313    4.525073    5.217410    3.743466    3.044250
 H     :    3.316618    1.008362    4.866050    5.708983    3.990700    3.881223

            H           H           H           H     
            ------      ------      ------      ------
 H     :    0.000000
 H     :    1.574938    0.000000
 H     :    2.423505    2.603902    0.000000
 H     :    3.775254    3.660867    1.526265    0.000000


  Max    interatomic separation is    7.2723 Angstrom (   13.7426 Bohr)
  between atoms   14 and   10, "H     " and "H     ".

  Min HX interatomic separation is    0.9557 Angstrom (    1.8061 Bohr)

  Min YX interatomic separation is    2.8189 Angstrom (    5.3270 Bohr)


  Bond distances (Angstrom):
  --------------------------

                  atom 1     atom 2       distance
                  ------     ------       --------
  bond distance:  H          N            0.999662
  bond distance:  H          N            1.046367
  bond distance:  H          N            1.112927
  bond distance:  H          O            0.959851
  bond distance:  H          O            1.005632
  bond distance:  H          O            0.955734
  bond distance:  H          O            1.047064
  bond distance:  H          O            1.028723
  bond distance:  H          O            1.017059
  bond distance:  H          O            1.014313
  bond distance:  H          O            1.008362


  Bond angles (degrees):
  ----------------------

                  atom 1     atom 2     atom 3         angle
                  ------     ------     ------         -----
  bond angle:     H          N          H            114.590
  bond angle:     H          N          H            109.652
  bond angle:     H          N          H            108.485
  bond angle:     H          O          H            112.039
  bond angle:     H          O          H            107.783
  bond angle:     H          O          H            100.679
  bond angle:     H          O          H             97.977




 Principal moments of inertia (u*A**2) and principal axes
 --------------------------------------------------------

   IA     239.870277          0.712157   -0.566786    0.414230
   IB     438.798736         -0.452476    0.080555    0.888131
   IC     530.366578          0.536748    0.819918    0.199089


 Rotational constants
 --------------------

               A                   B                   C

           2106.8847           1151.7330            952.8862 MHz
            0.070278            0.038418            0.031785 cm-1


@  Nuclear repulsion energy :  190.809665638547 Hartree


                     .---------------------------------------.
                     | Starting in Integral Section (HERMIT) |
                     `---------------------------------------'



 ***************************************************************************************
 ****************** Output from **INTEGRALS input processing (HERMIT) ******************
 ***************************************************************************************



    *************************************************************************
    ****************** Output from HERMIT input processing ******************
    *************************************************************************


 Default print level:        1

 * Nuclear model: Point charge

 Calculation of one- and two-electron Hamiltonian integrals.

 The following one-electron property integrals are calculated as requested:
          - overlap integrals
          - dipole length integrals

 Center of mass  (bohr):      0.385739634625      1.941646964120     -0.154170759533
 Operator center (bohr):      0.000000000000      0.000000000000      0.000000000000
 Gauge origin    (bohr):      0.000000000000      0.000000000000      0.000000000000
 Dipole origin   (bohr):      0.000000000000      0.000000000000      0.000000000000
 
  *********************************** 
  QMMM electrostatic potential: 
  Multipole order                                    0
  Isotropic polarization  
  *********************************** 
 
  ---------------- 
  QMMM information 
  ---------------- 
 
  MM coordinates in au 
  -------------------- 
     1     -9.450900     -0.482619     10.323185
     2    -10.741130     -0.408442      8.938240
     3    -10.387855      0.426443     11.702853
     4     -5.103804     10.368676      4.806996
     5     -3.944854      9.238236      5.599098
     6     -5.502455     11.617088      6.123096
     7     -0.460761     -2.246172     10.518212
     8      0.237523     -3.068498      9.028049
     9     -1.240069     -3.304950     11.724356
    10     -7.250324      3.688881      8.388560
    11     -8.095207      2.208330      9.221399
    12     -8.705048      4.856999      7.775531
    13     -3.299318    -10.233186     -0.205835
    14     -3.985198    -10.334812      1.513327
    15     -2.413097     -8.565461     -0.210980
    16      5.358608     -3.874184     -0.922989
    17      6.964714     -3.116504     -1.470592
    18      5.557711     -5.702309     -0.714974
    19    -11.686960     -0.641190     -5.252567
    20     -9.973455     -0.538976     -4.462267
    21    -11.703510     -2.283781     -6.164757
    22      3.621061      8.591475     11.526309
    23      2.604301     10.163077     11.907300
    24      3.861791      8.789411      9.670543
    25    -11.502385     10.121381     10.833543
    26    -12.358285     11.721068     10.231686
    27    -12.869504      9.240783     11.881638
    28     -2.431065     -4.661015     -8.665982
    29     -2.785590     -2.934250     -8.121128
    30     -3.977673     -5.675239     -8.386933
    31      0.149245     -6.884448     -1.747568
    32      0.883430     -7.964370     -3.133689
    33      0.786007     -5.178343     -2.185217
    34      6.613733     -9.041548     -2.079311
    35      8.096490    -10.197590     -2.333901
    36      5.247068    -10.065679     -2.794599
    37     -2.866996      0.896222     -7.292880
    38     -2.472763      1.513707     -8.998294
    39     -1.291743      1.114942     -6.341547
    40     -7.812551     -2.640562      1.062313
    41     -7.251444     -1.987291     -0.521838
    42     -8.407068     -1.280108      2.179330
    43     -7.583938      8.133268      0.390185
    44     -6.385024      9.028352      1.622177
    45     -6.750678      8.467834     -1.227269
    46     10.000565      0.272000      6.806431
    47      9.028596      1.675312      7.404121
    48      8.821071     -1.137286      6.782093
    49      7.349519     -8.332007     -7.312233
    50      5.813457     -7.321574     -6.875978
    51      8.032288     -8.678323     -5.562354
    52     -4.997101      9.103425     10.548398
    53     -3.639864      8.048665      9.705167
    54     -5.632514      7.925379     11.787509
    55    -10.731044      2.066886      2.278675
    56    -11.311802      3.840730      2.223163
    57    -11.397522      1.294561      3.816160
    58     -3.489942     -9.986012    -11.405408
    59     -4.412134     -8.782727    -10.348429
    60     -4.340340    -11.508440    -11.604680
    61      3.004060      9.713325      5.679870
    62      3.655335      8.141120      4.811764
    63      4.154765     11.146119      5.163919
    64      9.477749     -8.349024      4.431927
    65     10.426016     -9.066375      3.028681
    66      7.721275     -8.577792      3.858396
    67      3.948707      2.221558     11.221893
    68      2.853982      2.880358     12.637668
    69      4.292881      0.371384     11.759076
    70    -10.334275      7.517741      6.876048
    71     -8.902980      8.492337      6.116562
    72    -10.494195      8.272637      8.516174
    73      9.227325      6.029417      3.141579
    74      9.469629      7.656951      2.080324
    75      9.990867      6.590046      4.748288
    76      1.542173     -4.913309      6.539407
    77      2.658412     -5.738108      7.717386
    78      2.480439     -3.647302      5.576200
    79     -1.043244      7.382807     -5.260635
    80     -0.024882      6.995439     -6.823814
    81     -0.460936      6.392390     -3.780452
    82      2.311129     -3.830418     -6.056054
    83      0.739299     -4.413667     -6.843815
    84      2.078283     -1.945539     -5.721728
    85     -9.232015     -7.879665     -0.312559
    86     -7.420221     -8.302920     -0.842168
    87     -8.859577     -6.136493      0.294741
    88      7.475244      4.516204      8.543934
    89      6.098885      3.822840      9.656807
    90      8.930598      5.154028      9.477731
    91      5.475859     -2.933299    -10.272680
    92      7.252007     -3.272027    -10.118520
    93      4.930864     -3.197468     -8.466234
    94      2.555276    -11.367217     -4.747599
    95      2.711014    -10.940297     -6.543723
    96      1.488156    -12.796709     -4.608454
    97    -10.974233      2.902916     -9.107201
    98    -11.407795      1.678154     -7.763305
    99    -12.619449      3.817876     -9.228510
   100      8.594480      1.225886     -1.163742
   101      9.414376      0.409409     -2.692446
   102      9.951880      1.191627      0.147368
   103      8.503507      6.972768     -9.852397
   104      6.589224      7.159337     -9.949550
   105      8.949815      7.599101     -8.125114
   106      1.014252     10.598414      0.303585
   107      1.557777     11.045574      1.987718
   108     -0.797357     11.414581      0.115874
   109      1.757835    -10.055947     -9.968795
   110      2.801413     -9.099247    -11.200955
   111      0.018419    -10.233749    -10.517756
   112     11.337465    -10.434644     -3.408537
   113     12.444504     -9.013748     -2.834776
   114     12.204656    -11.028532     -4.910680
   115     -4.589430      1.204118      4.556092
   116     -5.930136      2.058146      5.724538
   117     -3.071799      0.983559      5.545275
   118      0.572904      5.315490     -9.811430
   119      1.553104      6.520241    -10.793090
   120     -0.659008      4.451329    -11.041840
   121     -6.114284      8.441322     -4.793827
   122     -6.488754      6.957425     -5.950591
   123     -4.264413      8.590629     -4.823216
   124      8.165979      8.816311     -5.334219
   125      7.485139      7.465578     -4.223487
   126      6.846285     10.050087     -5.312544
   127     -6.421433     -0.089736     -3.355069
   128     -6.063596      1.391009     -2.122731
   129     -5.255774      0.395894     -4.692558
   130      4.326479      4.750263      3.652578
   131      3.463201      5.263668      2.036707
   132      6.296418      4.878094      3.312199
   133      4.631819     -7.140942     10.105462
   134      6.282323     -7.844125      9.728440
   135      4.910635     -5.554980     11.042443
   136     11.109399     10.544653      1.391795
   137     12.766888      9.745567      1.294028
   138     11.088694     11.219827     -0.337777
   139      0.963027      2.611554      6.767525
   140      2.186991      3.319534      5.570964
   141      2.013639      2.396025      8.373284
   142     10.091481     -4.360912     -8.349371
   143      9.074682     -5.958076     -7.840177
   144     11.125377     -4.807042     -9.939101
   145     -3.142885     -5.201885      3.902534
   146     -4.108471     -3.638917      3.433753
   147     -1.426730     -4.730517      4.397147
   148      5.681189      5.055186     -2.697272
   149      4.079461      5.107663     -1.717965
   150      6.991153      3.703527     -2.171191
   151     -6.208839      5.371478     -8.921459
   152     -5.360592      3.882316     -8.431656
   153     -7.985499      4.727190     -9.215100
   154     -6.982867     -7.135687     -8.314296
   155     -8.013644     -6.675786     -9.819531
   156     -7.924049     -8.651079     -7.603772
   157      9.790571     -8.566435      9.652570
   158     11.133323     -7.237621      9.967325
   159      9.791873     -8.784991      7.817685
   160      4.366103     -9.323387      3.206637
   161      3.354704     -7.797428      3.808896
   162      3.970560     -9.324961      1.425024
   163     -1.217065      7.095241      7.473632
   164     -0.713434      5.343323      7.091902
   165      0.450717      7.982146      7.448150
   166     -3.044475      2.182076     11.457183
   167     -2.246788      0.589859     10.708906
   168     -4.437117      3.017694     10.419007
   169     -5.739835     -8.330071      7.477174
   170     -4.756184     -7.371905      6.110764
   171     -4.817057     -8.334424      9.097631
   172     -9.325018     -5.638451     10.451036
   173     -8.337668     -6.451034      9.030618
   174     -9.023945     -3.800538     10.281561
   175     -9.013060     11.631827     -7.450113
   176     -7.687678     10.511966     -6.544027
   177     -9.710356     10.759040     -9.031882
 
  MM charges 
  ---------- 
     1     -0.674440
     2      0.337220
     3      0.337220
     4     -0.674440
     5      0.337220
     6      0.337220
     7     -0.674440
     8      0.337220
     9      0.337220
    10     -0.674440
    11      0.337220
    12      0.337220
    13     -0.674440
    14      0.337220
    15      0.337220
    16     -0.674440
    17      0.337220
    18      0.337220
    19     -0.674440
    20      0.337220
    21      0.337220
    22     -0.674440
    23      0.337220
    24      0.337220
    25     -0.674440
    26      0.337220
    27      0.337220
    28     -0.674440
    29      0.337220
    30      0.337220
    31     -0.674440
    32      0.337220
    33      0.337220
    34     -0.674440
    35      0.337220
    36      0.337220
    37     -0.674440
    38      0.337220
    39      0.337220
    40     -0.674440
    41      0.337220
    42      0.337220
    43     -0.674440
    44      0.337220
    45      0.337220
    46     -0.674440
    47      0.337220
    48      0.337220
    49     -0.674440
    50      0.337220
    51      0.337220
    52     -0.674440
    53      0.337220
    54      0.337220
    55     -0.674440
    56      0.337220
    57      0.337220
    58     -0.674440
    59      0.337220
    60      0.337220
    61     -0.674440
    62      0.337220
    63      0.337220
    64     -0.674440
    65      0.337220
    66      0.337220
    67     -0.674440
    68      0.337220
    69      0.337220
    70     -0.674440
    71      0.337220
    72      0.337220
    73     -0.674440
    74      0.337220
    75      0.337220
    76     -0.674440
    77      0.337220
    78      0.337220
    79     -0.674440
    80      0.337220
    81      0.337220
    82     -0.674440
    83      0.337220
    84      0.337220
    85     -0.674440
    86      0.337220
    87      0.337220
    88     -0.674440
    89      0.337220
    90      0.337220
    91     -0.674440
    92      0.337220
    93      0.337220
    94     -0.674440
    95      0.337220
    96      0.337220
    97     -0.674440
    98      0.337220
    99      0.337220
   100     -0.674440
   101      0.337220
   102      0.337220
   103     -0.674440
   104      0.337220
   105      0.337220
   106     -0.674440
   107      0.337220
   108      0.337220
   109     -0.674440
   110      0.337220
   111      0.337220
   112     -0.674440
   113      0.337220
   114      0.337220
   115     -0.674440
   116      0.337220
   117      0.337220
   118     -0.674440
   119      0.337220
   120      0.337220
   121     -0.674440
   122      0.337220
   123      0.337220
   124     -0.674440
   125      0.337220
   126      0.337220
   127     -0.674440
   128      0.337220
   129      0.337220
   130     -0.674440
   131      0.337220
   132      0.337220
   133     -0.674440
   134      0.337220
   135      0.337220
   136     -0.674440
   137      0.337220
   138      0.337220
   139     -0.674440
   140      0.337220
   141      0.337220
   142     -0.674440
   143      0.337220
   144      0.337220
   145     -0.674440
   146      0.337220
   147      0.337220
   148     -0.674440
   149      0.337220
   150      0.337220
   151     -0.674440
   152      0.337220
   153      0.337220
   154     -0.674440
   155      0.337220
   156      0.337220
   157     -0.674440
   158      0.337220
   159      0.337220
   160     -0.674440
   161      0.337220
   162      0.337220
   163     -0.674440
   164      0.337220
   165      0.337220
   166     -0.674440
   167      0.337220
   168      0.337220
   169     -0.674440
   170      0.337220
   171      0.337220
   172     -0.674440
   173      0.337220
   174      0.337220
   175     -0.674440
   176      0.337220
   177      0.337220
 
  MM isotropic polarizabilities in au 
  ----------------------------------- 
     1      5.739350
     2      2.308390
     3      2.308390
     4      5.739350
     5      2.308390
     6      2.308390
     7      5.739350
     8      2.308390
     9      2.308390
    10      5.739350
    11      2.308390
    12      2.308390
    13      5.739350
    14      2.308390
    15      2.308390
    16      5.739350
    17      2.308390
    18      2.308390
    19      5.739350
    20      2.308390
    21      2.308390
    22      5.739350
    23      2.308390
    24      2.308390
    25      5.739350
    26      2.308390
    27      2.308390
    28      5.739350
    29      2.308390
    30      2.308390
    31      5.739350
    32      2.308390
    33      2.308390
    34      5.739350
    35      2.308390
    36      2.308390
    37      5.739350
    38      2.308390
    39      2.308390
    40      5.739350
    41      2.308390
    42      2.308390
    43      5.739350
    44      2.308390
    45      2.308390
    46      5.739350
    47      2.308390
    48      2.308390
    49      5.739350
    50      2.308390
    51      2.308390
    52      5.739350
    53      2.308390
    54      2.308390
    55      5.739350
    56      2.308390
    57      2.308390
    58      5.739350
    59      2.308390
    60      2.308390
    61      5.739350
    62      2.308390
    63      2.308390
    64      5.739350
    65      2.308390
    66      2.308390
    67      5.739350
    68      2.308390
    69      2.308390
    70      5.739350
    71      2.308390
    72      2.308390
    73      5.739350
    74      2.308390
    75      2.308390
    76      5.739350
    77      2.308390
    78      2.308390
    79      5.739350
    80      2.308390
    81      2.308390
    82      5.739350
    83      2.308390
    84      2.308390
    85      5.739350
    86      2.308390
    87      2.308390
    88      5.739350
    89      2.308390
    90      2.308390
    91      5.739350
    92      2.308390
    93      2.308390
    94      5.739350
    95      2.308390
    96      2.308390
    97      5.739350
    98      2.308390
    99      2.308390
   100      5.739350
   101      2.308390
   102      2.308390
   103      5.739350
   104      2.308390
   105      2.308390
   106      5.739350
   107      2.308390
   108      2.308390
   109      5.739350
   110      2.308390
   111      2.308390
   112      5.739350
   113      2.308390
   114      2.308390
   115      5.739350
   116      2.308390
   117      2.308390
   118      5.739350
   119      2.308390
   120      2.308390
   121      5.739350
   122      2.308390
   123      2.308390
   124      5.739350
   125      2.308390
   126      2.308390
   127      5.739350
   128      2.308390
   129      2.308390
   130      5.739350
   131      2.308390
   132      2.308390
   133      5.739350
   134      2.308390
   135      2.308390
   136      5.739350
   137      2.308390
   138      2.308390
   139      5.739350
   140      2.308390
   141      2.308390
   142      5.739350
   143      2.308390
   144      2.308390
   145      5.739350
   146      2.308390
   147      2.308390
   148      5.739350
   149      2.308390
   150      2.308390
   151      5.739350
   152      2.308390
   153      2.308390
   154      5.739350
   155      2.308390
   156      2.308390
   157      5.739350
   158      2.308390
   159      2.308390
   160      5.739350
   161      2.308390
   162      2.308390
   163      5.739350
   164      2.308390
   165      2.308390
   166      5.739350
   167      2.308390
   168      2.308390
   169      5.739350
   170      2.308390
   171      2.308390
   172      5.739350
   173      2.308390
   174      2.308390
   175      5.739350
   176      2.308390
   177      2.308390


     ************************************************************************
     ************************** Output from HERINT **************************
     ************************************************************************



                      Nuclear contribution to dipole moments
                      --------------------------------------

                 au               Debye          C m (/(10**-30)

      x     18.12519852        46.06965642       153.67183261
      y     97.47951149       247.76818841       826.46571584
      z     -5.43713890       -13.81982773       -46.09798334


  Time used in HUCKEL     is       0.12 seconds
  Time used in OVERLAP    is       0.13 seconds
  Time used in POPOVLP    is       0.22 seconds
  Time used in DIPLEN     is       0.18 seconds
  Time used in QUADRUP    is       0.41 seconds
  Time used in KINENE     is       0.23 seconds

 Threshold for neglecting two-electron integrals:  1.00D-12
 HERMIT - Number of two-electron integrals written:    32558467 ( 43.4% )
 HERMIT - Megabytes written:                            372.815

  Time used in TWOINT     is      16.88 seconds
  Total CPU  time used in HERMIT:  18.25 seconds
  Total wall time used in HERMIT:   7.42 seconds


                        .----------------------------------.
                        | End of Integral Section (HERMIT) |
                        `----------------------------------'



                   .--------------------------------------------.
                   | Starting in Wave Function Section (SIRIUS) |
                   `--------------------------------------------'

NCCEXCI for singlet:   15
 CCSD_INPUT: core-val requested
 Requested number of core orbs per sym
                     1
 Indices of requested core orbs
                     1

 *** Output from Huckel module :

     Using EWMO model:          T
     Using EHT  model:          F
     Number of Huckel orbitals each symmetry:   36

 EWMO - Energy Weighted Maximum Overlap - is a Huckel type method,
        which normally is better than Extended Huckel Theory.
 Reference: Linderberg and Ohrn, Propagators in Quantum Chemistry (Wiley, 1973)

 Huckel EWMO eigenvalues for symmetry :  1
          -20.684768     -20.684595     -20.684321     -20.683603     -15.673116
           -1.730428      -1.613128      -1.589274      -1.526386      -1.441997
           -0.829670      -0.800793      -0.790695      -0.779807      -0.744013
           -0.715008      -0.690574      -0.679153      -0.673993      -0.661884
           -0.623151      -0.604982      -0.594880      -0.593727      -0.509776
           -0.270487      -0.246348      -0.233092      -0.221375      -0.190306
           -0.188951      -0.176655      -0.174317      -0.166754      -0.159986
           -0.143807

 **********************************************************************
 *SIRIUS* a direct, restricted step, second order MCSCF program       *
 **********************************************************************

 
     Date and time (Linux)  : Thu Dec 27 21:58:04 2018
     Host name              : n-62-23-22                              

 Title lines from ".mol" input file:
                                                                             
                                                                             

 Print level on unit LUPRI =   2 is   0
 Print level on unit LUW4  =   2 is  11

@    (Integral direct) CC calculation.

@    This is a combination run starting with
@              a restricted, closed shell Hartree-Fock calculation


 Initial molecular orbitals are obtained according to
 ".MOSTART EWMO  " input option

@    QM part is embedded in an environment :

@         Model: QMMM

     Wave function specification
     ============================

     For the specification of the Coupled Cluster: see later.

@    Wave function type        --- CC ---
@    Number of closed shell electrons          50
@    Number of electrons in active shells       0
@    Total charge of the molecule               0

@    Spin multiplicity and 2 M_S                1         0
@    Total number of symmetries                 1 (point group: C1 )
@    Reference state symmetry                   1 (irrep name : A  )

     Orbital specifications
     ======================
@    Abelian symmetry species          All |    1
@                                          |  A  
                                       --- |  ---
@    Occupied SCF orbitals              25 |   25
@    Secondary orbitals                131 |  131
@    Total number of orbitals          156 |  156
@    Number of basis functions         156 |  156

     Optimization information
     ========================
@    Number of configurations                 1
@    Number of orbital rotations           3275
     ------------------------------------------
@    Total number of variables             3276

     Maximum number of Fock   iterations      0
     Maximum number of DIIS   iterations     60
     Maximum number of QC-SCF iterations     60
     Threshold for SCF convergence     1.00D-07


 Changes of defaults for CC:
 ---------------------------


 -Implicit frozen core calculation
 -Excitation energies calculated
 -One-photon absorption strengths will be calculated
 -Oscillator strengths calculated
  
* Read MO coefficients from SIRIUS.RST with label "NEWORB  " and header info: 27Dec18  REORTHO 


 ***********************************************
 ***** DIIS acceleration of SCF iterations *****
 ***********************************************

 C1-DIIS algorithm; max error vectors =    8
 -----------------------------------------------------------------------------

 *** DIIS iteration number    1
 RDSUPM called. NFMAT, ISYMDM(1:NFMAT)                     1
                     1

Calculating AOSUPINT
     (Precalculated two-electron integrals are transformed to P-supermatrix elements.
      Threshold for discarding integrals :  1.00D-12 )
  CPU  time used in FORMSUP    is   7.09 seconds
  WALL time used in FORMSUP    is   8.45 seconds

 ITDIIS, energy, error norm, change in energy, scr.thr., difden:
@ DIIS iter.   1    -359.917306702        3.72085D+00   -3.60D+02  -20    F

 (DIIS_RED) Control Parameters C2DIIS =         F NEVC =    1


 (DIIS_RED) B matrix:

               Column   1
       1      13.84471500
    ==== End of matrix output ====

 DIIS C vector; C2DIIS = F, LAMBDA = -1.38D+01
    1.000000
* Read MO coefficients from SIRIUS.RST with label "NEWORB  " and header info: 27Dec18  DIIS   1
      Virial theorem: -V/T =      1.998176
@      MULPOP N      -0.31; H       0.17; H       0.15; H       0.16; O      -0.65; O      -0.84; O      -0.56; O      -0.68; H       0.34; H       0.33; 
@             H       0.32; H       0.31; H       0.33; H       0.31; H       0.33; H       0.31; 
   1  Level shift: doubly occupied orbital energies shifted by -2.00D-01

 DIIS Fock eigenvalues in symmetry 1
      -20.74524      -20.74456      -20.67814      -20.55406      -16.00298
       -1.57076       -1.54455       -1.53647       -1.47848       -1.43150
       -0.96743       -0.96208       -0.94114       -0.90463       -0.89705
       -0.89120       -0.81877       -0.81139       -0.79488       -0.77826
       -0.77008       -0.75234       -0.74568       -0.70715       -0.67651
        0.08692        0.13326        0.16600        0.18028        0.19351
        0.20881        0.24318        0.25223        0.28675        0.31673
        0.32631        0.40574        0.43991        0.46795        0.50293
        0.51627        0.54055        0.55583        0.57585        0.58312
        0.59100        0.61686        0.80182        0.82732        0.83829
        0.91900        0.93867        0.96706        0.98450        1.00978
        1.04860        1.05608        1.06489        1.08325        1.12761
        1.13515        1.16767        1.21360        1.25957        1.27317
        1.29326        1.34569        1.36319        1.38838        1.43013
        1.46750        1.47646        1.49215        1.51267        1.54286
        1.55289        1.61017        1.62527        1.66361        1.68662
        1.70778        1.71052        1.73986        1.77420        1.79503
        1.83503        1.88240        1.92219        1.92867        2.06959
        2.11903        2.13773        2.18126        2.18647        2.26073
        2.27628        2.29265        2.31483        2.39051        2.43171
        2.51375        2.58642        2.61603        2.64805        2.67032
        2.69933        2.72815        2.74825        2.79691        2.82544
        2.83498        2.85237        2.87108        3.08124        3.24114
        3.26893        3.36616        3.39780        3.42576        3.43892
        3.45133        3.47246        3.48639        3.57248        3.57884
        3.58601        3.61452        3.68542        3.91551        3.94736
        3.99175        4.00575        4.12178        4.18020        4.20190
        4.26721        4.39113        4.83686        5.04139        5.33372
        5.35047        5.35683        5.43670        5.61933        5.74884
        5.76347        5.81588        5.94913        6.04811        6.11023
        6.23694       36.71053       51.49614       51.52914       51.60106
       51.74683
 Time used in FCKEIG, thr_jaco:   4.13D-01  4.20D-02  1.63D-04
 CPU and wall times used in FCKEIG, THR_FCKEIG:   4.14D-01  4.20D-02  3.72D-02
 -----------------------------------------------------------------------------

 *** DIIS iteration number    2
 RDSUPM called. NFMAT, ISYMDM(1:NFMAT)                     1
                     1

 ITDIIS, energy, error norm, change in energy, scr.thr., difden:
@ DIIS iter.   2    -360.679293404        9.36794D-01   -7.62D-01  -20    F

 (DIIS_RED) Control Parameters C2DIIS =         F NEVC =    2


 (DIIS_RED) B matrix:

               Column   1     Column   2
       1      13.84471500
       2       0.84204298     0.87758372
    ==== End of matrix output ====

 DIIS C vector; C2DIIS = F, LAMBDA = -8.77D-01
    0.002726    0.997274
* Read MO coefficients from SIRIUS.RST with label "NEWORB  " and header info: 27Dec18  DIIS   2
      Virial theorem: -V/T =      2.005268
@      MULPOP N      -0.66; H       0.24; H       0.24; H       0.23; O      -0.58; O      -0.67; O      -0.60; O      -0.60; H       0.28; H       0.31; 
@             H       0.25; H       0.32; H       0.33; H       0.33; H       0.29; H       0.29; 
   2  Level shift: doubly occupied orbital energies shifted by -1.00D-01

 DIIS Fock eigenvalues in symmetry 1
      -20.73873      -20.73224      -20.69825      -20.67330      -15.55140
       -1.46310       -1.46080       -1.45160       -1.41971       -1.19943
       -0.84015       -0.82069       -0.81297       -0.76902       -0.74043
       -0.72634       -0.71307       -0.71085       -0.68714       -0.68195
       -0.65602       -0.64607       -0.64113       -0.62246       -0.51463
        0.13050        0.16482        0.19394        0.20283        0.22888
        0.23597        0.28541        0.28925        0.31619        0.33658
        0.34946        0.46650        0.49018        0.51613        0.52809
        0.54808        0.57704        0.59533        0.61418        0.61722
        0.63694        0.66378        0.85432        0.90869        0.91465
        0.94178        0.95944        0.97957        1.00960        1.02458
        1.06611        1.07220        1.08345        1.10459        1.11415
        1.13567        1.20358        1.27332        1.29153        1.31992
        1.36623        1.39598        1.42405        1.44364        1.48816
        1.49862        1.53184        1.53507        1.55643        1.57833
        1.59938        1.61764        1.67303        1.71767        1.73628
        1.75376        1.77837        1.81106        1.83408        1.86456
        1.90000        1.94885        1.98472        1.98638        2.16972
        2.19906        2.21971        2.23335        2.24136        2.31298
        2.32724        2.33999        2.41108        2.44982        2.48344
        2.57954        2.64829        2.65254        2.70978        2.73166
        2.77833        2.80007        2.81039        2.87864        2.89892
        2.94865        2.97507        2.99840        3.20905        3.38286
        3.38729        3.41966        3.42967        3.43557        3.44332
        3.45294        3.46308        3.50763        3.51351        3.59725
        3.60802        3.62734        3.63249        3.92602        3.95270
        3.96467        4.01958        4.14794        4.15543        4.22213
        4.24627        4.55624        5.05854        5.24779        5.27621
        5.32083        5.34598        5.36921        5.61845        5.63232
        5.71968        5.80253        5.97691        6.01413        6.12459
        6.12963       37.05595       51.42680       51.46745       51.47984
       51.49347
 Time used in FCKEIG, thr_jaco:   2.82D-01  2.80D-02  4.09D-05
 CPU and wall times used in FCKEIG, THR_FCKEIG:   2.82D-01  2.80D-02  9.37D-03
 -----------------------------------------------------------------------------

 *** DIIS iteration number    3
 RDSUPM called. NFMAT, ISYMDM(1:NFMAT)                     1
                     1

 ITDIIS, energy, error norm, change in energy, scr.thr., difden:
@ DIIS iter.   3    -360.739315673        3.54787D-01   -6.00D-02  -20    F

 (DIIS_RED) Control Parameters C2DIIS =         F NEVC =    3


 (DIIS_RED) B matrix:

               Column   1     Column   2     Column   3
       1      13.84471500
       2       0.84204298     0.87758372
       3       0.68789585     0.05201385     0.12587366
    ==== End of matrix output ====

 DIIS C vector; C2DIIS = F, LAMBDA = -9.29D-02
   -0.046323    0.093861    0.952461
* Read MO coefficients from SIRIUS.RST with label "NEWORB  " and header info: 27Dec18  DIIS   3
      Virial theorem: -V/T =      2.002614
@      MULPOP N      -0.60; H       0.22; H       0.22; H       0.21; O      -0.62; O      -0.75; O      -0.67; O      -0.68; H       0.30; H       0.34; 
@             H       0.30; H       0.36; H       0.36; H       0.36; H       0.33; H       0.33; 
   3  Level shift: doubly occupied orbital energies shifted by -5.00D-02

 DIIS Fock eigenvalues in symmetry 1
      -20.61778      -20.60252      -20.59910      -20.55456      -15.63149
       -1.39920       -1.38534       -1.35930       -1.35674       -1.18509
       -0.77743       -0.74084       -0.73388       -0.71138       -0.69713
       -0.67192       -0.64524       -0.64207       -0.62174       -0.61827
       -0.57668       -0.57235       -0.55367       -0.53957       -0.48625
        0.13461        0.17014        0.20069        0.20478        0.23125
        0.23856        0.28545        0.28977        0.31876        0.34417
        0.35769        0.46776        0.49568        0.52421        0.53968
        0.55686        0.58513        0.60317        0.62224        0.62830
        0.63999        0.66798        0.86490        0.91124        0.91231
        0.95088        0.97902        0.98244        1.02047        1.03759
        1.08104        1.08288        1.10053        1.11507        1.13832
        1.15348        1.20940        1.27508        1.29768        1.33202
        1.36466        1.40739        1.42974        1.45252        1.49869
        1.51048        1.54379        1.54612        1.56959        1.58993
        1.60891        1.63672        1.68510        1.72878        1.74737
        1.76570        1.78209        1.81527        1.84248        1.86776
        1.90678        1.95450        1.99154        1.99364        2.16502
        2.20437        2.22742        2.23630        2.24535        2.33693
        2.34040        2.35146        2.41272        2.46292        2.49851
        2.58875        2.65886        2.66696        2.71876        2.74030
        2.78156        2.81089        2.81434        2.88561        2.90638
        2.93985        2.95700        2.98286        3.19068        3.37651
        3.39550        3.42756        3.44821        3.46120        3.46508
        3.47375        3.47969        3.53198        3.56021        3.62726
        3.63194        3.65136        3.67789        3.95861        3.97251
        4.00987        4.03834        4.16843        4.20163        4.24546
        4.28191        4.50754        5.00338        5.20943        5.32694
        5.36403        5.38446        5.39505        5.64131        5.70862
        5.76376        5.83037        5.99767        6.05920        6.15295
        6.20049       36.92976       51.48240       51.50947       51.54165
       51.60126
 Time used in FCKEIG, thr_jaco:   2.58D-01  2.60D-02  1.55D-05
 CPU and wall times used in FCKEIG, THR_FCKEIG:   2.59D-01  2.60D-02  3.55D-03
 -----------------------------------------------------------------------------

 *** DIIS iteration number    4
 RDSUPM called. NFMAT, ISYMDM(1:NFMAT)                     1
                     1

 ITDIIS, energy, error norm, change in energy, scr.thr., difden:
@ DIIS iter.   4    -360.748288662        1.11592D-01   -8.97D-03  -20    F

 (DIIS_RED) Control Parameters C2DIIS =         F NEVC =    4


 (DIIS_RED) B matrix:

               Column   1     Column   2     Column   3     Column   4
       1      13.84471500
       2       0.84204298     0.87758372
       3       0.68789585     0.05201385     0.12587366
       4       0.01055616     0.08226752    -0.00498152     0.01245266
    ==== End of matrix output ====

 DIIS C vector; C2DIIS = F, LAMBDA = -3.96D-03
   -0.000238   -0.094026    0.110557    0.983707
* Read MO coefficients from SIRIUS.RST with label "NEWORB  " and header info: 27Dec18  DIIS   4
      Virial theorem: -V/T =      2.003624
@      MULPOP N      -0.67; H       0.24; H       0.24; H       0.22; O      -0.63; O      -0.74; O      -0.69; O      -0.69; H       0.30; H       0.34; 
@             H       0.30; H       0.36; H       0.37; H       0.37; H       0.33; H       0.34; 
   4  Level shift: doubly occupied orbital energies shifted by -2.50D-02

 DIIS Fock eigenvalues in symmetry 1
      -20.59936      -20.59660      -20.57915      -20.56382      -15.57592
       -1.37745       -1.36692       -1.34264       -1.33715       -1.15016
       -0.75521       -0.72010       -0.71579       -0.68589       -0.66639
       -0.64610       -0.62081       -0.61445       -0.60256       -0.59486
       -0.55121       -0.55004       -0.52814       -0.52190       -0.45101
        0.13456        0.16879        0.19951        0.20499        0.23125
        0.23799        0.28751        0.29084        0.31929        0.34475
        0.35780        0.47104        0.49714        0.52564        0.53910
        0.55637        0.58458        0.60219        0.62066        0.62609
        0.64063        0.66890        0.86659        0.91429        0.91722
        0.95283        0.97649        0.98432        1.02117        1.03818
        1.08038        1.08197        1.09925        1.11439        1.13379
        1.15216        1.21013        1.27698        1.29751        1.32989
        1.36941        1.40584        1.43201        1.45169        1.49693
        1.50967        1.54164        1.54483        1.56723        1.58816
        1.60783        1.63442        1.68289        1.72832        1.74624
        1.76354        1.78534        1.81726        1.84143        1.87053
        1.90654        1.95517        1.99140        1.99511        2.16996
        2.20324        2.23173        2.23531        2.24317        2.33181
        2.33781        2.34826        2.41671        2.46089        2.49887
        2.58786        2.65741        2.66497        2.71721        2.73878
        2.78360        2.81186        2.81685        2.88447        2.90531
        2.94729        2.96493        2.99087        3.19903        3.38661
        3.39815        3.43572        3.44548        3.45346        3.46077
        3.46864        3.47829        3.53038        3.55023        3.62485
        3.62835        3.64895        3.66874        3.95425        3.96958
        4.00210        4.03640        4.16675        4.19412        4.24346
        4.27613        4.52172        5.02000        5.22497        5.31479
        5.35877        5.37586        5.38869        5.63844        5.69200
        5.75596        5.82575        5.99441        6.04995        6.14925
        6.18355       36.95986       51.47215       51.50307       51.52820
       51.56783
 Time used in FCKEIG, thr_jaco:   2.38D-01  2.40D-02  4.87D-06
 CPU and wall times used in FCKEIG, THR_FCKEIG:   2.38D-01  2.40D-02  1.12D-03
 -----------------------------------------------------------------------------

 *** DIIS iteration number    5
 RDSUPM called. NFMAT, ISYMDM(1:NFMAT)                     1
                     1

 ITDIIS, energy, error norm, change in energy, scr.thr., difden:
@ DIIS iter.   5    -360.749443810        2.40483D-02   -1.16D-03  -20    F

 (DIIS_RED) Control Parameters C2DIIS =         F NEVC =    5


 (DIIS_RED) B matrix:

               Column   1     Column   2     Column   3     Column   4     Column   5
       1      13.84471500
       2       0.84204298     0.87758372
       3       0.68789585     0.05201385     0.12587366
       4       0.01055616     0.08226752    -0.00498152     0.01245266
       5       0.01279863     0.00647706     0.00491811     0.00107492     0.00057832
    ==== End of matrix output ====

 DIIS C vector; C2DIIS = F, LAMBDA = -2.80D-04
    0.001699    0.010774   -0.067190   -0.183960    1.238678
* Read MO coefficients from SIRIUS.RST with label "NEWORB  " and header info: 27Dec18  DIIS   5
      Virial theorem: -V/T =      2.003280
@      MULPOP N      -0.67; H       0.24; H       0.24; H       0.22; O      -0.64; O      -0.76; O      -0.70; O      -0.70; H       0.31; H       0.35; 
@             H       0.31; H       0.37; H       0.37; H       0.38; H       0.34; H       0.34; 

 DIIS Fock eigenvalues in symmetry 1
      -20.57357      -20.56969      -20.55450      -20.53347      -15.54796
       -1.35217       -1.34113       -1.31561       -1.31243       -1.12458
       -0.73055       -0.69468       -0.69001       -0.66147       -0.64137
       -0.62092       -0.59577       -0.58903       -0.57593       -0.57068
       -0.52502       -0.52345       -0.50256       -0.49422       -0.42472
        0.13446        0.16848        0.19955        0.20484        0.23106
        0.23780        0.28755        0.29075        0.31912        0.34486
        0.35782        0.47111        0.49713        0.52563        0.53915
        0.55623        0.58452        0.60199        0.62020        0.62601
        0.64039        0.66885        0.86723        0.91464        0.91807
        0.95351        0.97775        0.98455        1.02154        1.03873
        1.08053        1.08219        1.09966        1.11420        1.13464
        1.15256        1.21009        1.27723        1.29766        1.32994
        1.36960        1.40563        1.43230        1.45129        1.49649
        1.50994        1.54089        1.54491        1.56693        1.58789
        1.60756        1.63502        1.68252        1.72819        1.74604
        1.76300        1.78539        1.81724        1.84100        1.87076
        1.90605        1.95482        1.99099        1.99509        2.16991
        2.20251        2.23142        2.23545        2.24254        2.33209
        2.33741        2.34752        2.41687        2.46052        2.49920
        2.58745        2.65690        2.66486        2.71644        2.73801
        2.78329        2.81163        2.81667        2.88363        2.90450
        2.94766        2.96528        2.99130        3.19950        3.38745
        3.39855        3.43629        3.44551        3.45533        3.46114
        3.46914        3.47774        3.53051        3.55216        3.62508
        3.62872        3.64867        3.67052        3.95463        3.96937
        4.00398        4.03647        4.16691        4.19581        4.24325
        4.27682        4.52319        5.02130        5.22611        5.31693
        5.35992        5.37736        5.38896        5.63879        5.69495
        5.75662        5.82570        5.99380        6.05063        6.14937
        6.18623       36.96275       51.47278       51.50385       51.52914
       51.57305
 Time used in FCKEIG, thr_jaco:   2.26D-01  2.20D-02  1.05D-06
 CPU and wall times used in FCKEIG, THR_FCKEIG:   2.27D-01  2.20D-02  2.40D-04
 -----------------------------------------------------------------------------

 *** DIIS iteration number    6
 RDSUPM called. NFMAT, ISYMDM(1:NFMAT)                     1
                     1

 ITDIIS, energy, error norm, change in energy, scr.thr., difden:
@ DIIS iter.   6    -360.749538300        7.11316D-03   -9.45D-05  -20    F

 (DIIS_RED) Control Parameters C2DIIS =         F NEVC =    6


 (DIIS_RED) B matrix:

               Column   1     Column   2     Column   3     Column   4     Column   5     Column   6
       1      13.84471500
       2       0.84204298     0.87758372
       3       0.68789585     0.05201385     0.12587366
       4       0.01055616     0.08226752    -0.00498152     0.01245266
       5       0.01279863     0.00647706     0.00491811     0.00107492     0.00057832
       6      -0.00134755    -0.00039949     0.00052296     0.00016351     0.00007941     0.00005060
    ==== End of matrix output ====

 DIIS C vector; C2DIIS = F, LAMBDA = -3.40D-05
    0.000428    0.007089   -0.016301   -0.073372    0.111747    0.970409
* Read MO coefficients from SIRIUS.RST with label "NEWORB  " and header info: 27Dec18  DIIS   6
      Virial theorem: -V/T =      2.003391
@      MULPOP N      -0.66; H       0.24; H       0.24; H       0.22; O      -0.65; O      -0.76; O      -0.71; O      -0.70; H       0.31; H       0.35; 
@             H       0.31; H       0.37; H       0.37; H       0.38; H       0.34; H       0.35; 

 DIIS Fock eigenvalues in symmetry 1
      -20.57378      -20.57007      -20.55436      -20.53537      -15.55110
       -1.35217       -1.34112       -1.31603       -1.31238       -1.12560
       -0.73071       -0.69491       -0.69040       -0.66170       -0.64220
       -0.62134       -0.59594       -0.58961       -0.57644       -0.57089
       -0.52492       -0.52335       -0.50234       -0.49450       -0.42555
        0.13438        0.16842        0.19949        0.20472        0.23096
        0.23767        0.28736        0.29060        0.31898        0.34480
        0.35772        0.47085        0.49695        0.52541        0.53907
        0.55616        0.58438        0.60188        0.62012        0.62584
        0.64014        0.66861        0.86685        0.91425        0.91759
        0.95322        0.97750        0.98427        1.02146        1.03871
        1.08043        1.08212        1.09959        1.11411        1.13437
        1.15246        1.20985        1.27688        1.29753        1.32985
        1.36916        1.40548        1.43198        1.45110        1.49634
        1.50970        1.54066        1.54474        1.56681        1.58777
        1.60742        1.63481        1.68241        1.72801        1.74591
        1.76287        1.78508        1.81694        1.84084        1.87039
        1.90583        1.95453        1.99079        1.99489        2.16941
        2.20221        2.23123        2.23477        2.24239        2.33180
        2.33725        2.34732        2.41643        2.46033        2.49890
        2.58726        2.65673        2.66472        2.71619        2.73780
        2.78294        2.81153        2.81635        2.88337        2.90424
        2.94700        2.96451        2.99051        3.19873        3.38640
        3.39822        3.43538        3.44545        3.45475        3.46109
        3.46906        3.47772        3.53043        3.55162        3.62503
        3.62862        3.64863        3.67004        3.95455        3.96933
        4.00337        4.03638        4.16685        4.19526        4.24320
        4.27669        4.52161        5.01967        5.22454        5.31641
        5.35968        5.37705        5.38890        5.63868        5.69400
        5.75650        5.82567        5.99379        6.05046        6.14924
        6.18530       36.95967       51.47269       51.50364       51.52896
       51.57119
 Time used in FCKEIG, thr_jaco:   2.22D-01  2.20D-02  3.11D-07
 CPU and wall times used in FCKEIG, THR_FCKEIG:   2.22D-01  2.20D-02  7.11D-05
 -----------------------------------------------------------------------------

 *** DIIS iteration number    7
 RDSUPM called. NFMAT, ISYMDM(1:NFMAT)                     1
                     1

 ITDIIS, energy, error norm, change in energy, scr.thr., difden:
@ DIIS iter.   7    -360.749543918        2.55578D-03   -5.62D-06  -20    F

 (DIIS_RED) Control Parameters C2DIIS =         F NEVC =    7


 (DIIS_RED) B matrix:

               Column   1     Column   2     Column   3     Column   4     Column   5     Column   6
       1      13.84471500
       2       0.84204298     0.87758372
       3       0.68789585     0.05201385     0.12587366
       4       0.01055616     0.08226752    -0.00498152     0.01245266
       5       0.01279863     0.00647706     0.00491811     0.00107492     0.00057832
       6      -0.00134755    -0.00039949     0.00052296     0.00016351     0.00007941     0.00005060
       7       0.00081023    -0.00000716     0.00007403     0.00000388     0.00003318    -0.00000020

               Column   7
       7       0.00000653
    ==== End of matrix output ====

 DIIS C vector; C2DIIS = F, LAMBDA = -1.48D-06
   -0.000258   -0.001360    0.008707    0.025948   -0.173305    0.113841    1.026427
* Read MO coefficients from SIRIUS.RST with label "NEWORB  " and header info: 27Dec18  DIIS   7
      Virial theorem: -V/T =      2.003369
@      MULPOP N      -0.67; H       0.24; H       0.24; H       0.22; O      -0.65; O      -0.76; O      -0.71; O      -0.71; H       0.31; H       0.35; 
@             H       0.31; H       0.37; H       0.38; H       0.38; H       0.34; H       0.35; 

 DIIS Fock eigenvalues in symmetry 1
      -20.57375      -20.56990      -20.55456      -20.53459      -15.55034
       -1.35213       -1.34101       -1.31569       -1.31243       -1.12535
       -0.73071       -0.69480       -0.69019       -0.66174       -0.64207
       -0.62128       -0.59598       -0.58950       -0.57620       -0.57102
       -0.52484       -0.52319       -0.50231       -0.49415       -0.42526
        0.13441        0.16843        0.19955        0.20475        0.23097
        0.23769        0.28740        0.29062        0.31899        0.34486
        0.35778        0.47092        0.49702        0.52550        0.53915
        0.55620        0.58444        0.60190        0.62012        0.62589
        0.64017        0.66869        0.86698        0.91434        0.91775
        0.95334        0.97768        0.98434        1.02151        1.03876
        1.08047        1.08218        1.09965        1.11412        1.13455
        1.15254        1.20990        1.27702        1.29759        1.32991
        1.36925        1.40551        1.43211        1.45110        1.49634
        1.50981        1.54061        1.54484        1.56684        1.58778
        1.60743        1.63498        1.68242        1.72807        1.74596
        1.76287        1.78515        1.81703        1.84085        1.87049
        1.90585        1.95455        1.99082        1.99499        2.16948
        2.20217        2.23125        2.23490        2.24239        2.33194
        2.33725        2.34726        2.41651        2.46034        2.49905
        2.58729        2.65674        2.66483        2.71616        2.73779
        2.78297        2.81161        2.81643        2.88335        2.90423
        2.94718        2.96469        2.99070        3.19890        3.38667
        3.39831        3.43560        3.44545        3.45508        3.46115
        3.46914        3.47765        3.53046        3.55196        3.62507
        3.62869        3.64861        3.67036        3.95461        3.96930
        4.00371        4.03641        4.16689        4.19557        4.24319
        4.27682        4.52204        5.02006        5.22491        5.31670
        5.35980        5.37722        5.38889        5.63871        5.69447
        5.75657        5.82564        5.99368        6.05056        6.14927
        6.18576       36.96041       51.47266       51.50366       51.52898
       51.57196
 Time used in FCKEIG, thr_jaco:   2.24D-01  2.30D-02  1.12D-07
 CPU and wall times used in FCKEIG, THR_FCKEIG:   2.24D-01  2.30D-02  2.56D-05
 -----------------------------------------------------------------------------

 *** DIIS iteration number    8
 RDSUPM called. NFMAT, ISYMDM(1:NFMAT)                     1
                     1

 ITDIIS, energy, error norm, change in energy, scr.thr., difden:
@ DIIS iter.   8    -360.749544540        3.90913D-04   -6.22D-07  -20    F

 (DIIS_RED) Control Parameters C2DIIS =         F NEVC =    8


 (DIIS_RED) B matrix:

               Column   1     Column   2     Column   3     Column   4     Column   5     Column   6
       1      13.84471500
       2       0.84204298     0.87758372
       3       0.68789585     0.05201385     0.12587366
       4       0.01055616     0.08226752    -0.00498152     0.01245266
       5       0.01279863     0.00647706     0.00491811     0.00107492     0.00057832
       6      -0.00134755    -0.00039949     0.00052296     0.00016351     0.00007941     0.00005060
       7       0.00081023    -0.00000716     0.00007403     0.00000388     0.00003318    -0.00000020
       8       0.00002943     0.00000232    -0.00000505     0.00000460     0.00000107     0.00000153

               Column   7     Column   8
       7       0.00000653
       8       0.00000022     0.00000015
    ==== End of matrix output ====

 DIIS C vector; C2DIIS = F, LAMBDA = -8.34D-08
    0.000012    0.000014   -0.000630   -0.001869    0.021411   -0.054697   -0.130955    1.166714
* Read MO coefficients from SIRIUS.RST with label "NEWORB  " and header info: 27Dec18  DIIS   8
      Virial theorem: -V/T =      2.003385
@      MULPOP N      -0.67; H       0.24; H       0.24; H       0.22; O      -0.65; O      -0.76; O      -0.71; O      -0.71; H       0.31; H       0.35; 
@             H       0.31; H       0.37; H       0.38; H       0.38; H       0.34; H       0.35; 

 DIIS Fock eigenvalues in symmetry 1
      -20.57374      -20.56990      -20.55450      -20.53464      -15.55039
       -1.35212       -1.34102       -1.31570       -1.31241       -1.12537
       -0.73070       -0.69480       -0.69020       -0.66173       -0.64208
       -0.62130       -0.59599       -0.58952       -0.57622       -0.57103
       -0.52483       -0.52318       -0.50229       -0.49416       -0.42528
        0.13441        0.16842        0.19955        0.20474        0.23097
        0.23768        0.28739        0.29061        0.31899        0.34485
        0.35777        0.47091        0.49701        0.52548        0.53914
        0.55620        0.58443        0.60189        0.62012        0.62589
        0.64016        0.66867        0.86697        0.91433        0.91774
        0.95333        0.97767        0.98433        1.02150        1.03876
        1.08048        1.08218        1.09964        1.11412        1.13455
        1.15253        1.20990        1.27701        1.29759        1.32990
        1.36924        1.40550        1.43210        1.45109        1.49634
        1.50980        1.54061        1.54483        1.56683        1.58778
        1.60743        1.63497        1.68242        1.72807        1.74595
        1.76286        1.78514        1.81702        1.84085        1.87048
        1.90584        1.95454        1.99081        1.99497        2.16947
        2.20217        2.23125        2.23489        2.24238        2.33194
        2.33725        2.34726        2.41650        2.46033        2.49903
        2.58728        2.65674        2.66483        2.71616        2.73778
        2.78297        2.81158        2.81641        2.88334        2.90422
        2.94716        2.96467        2.99068        3.19888        3.38665
        3.39830        3.43558        3.44546        3.45505        3.46115
[...]

 Principal values of diagonalized transition strength matrix:

             a.u.               
 1      -0.00000000
 2      -0.00000000
 3       0.00019963

 Principal axis of diagonalized transition strength matrix:


               Column   1     Column   2     Column   3
       1      -0.37264743    -0.35199767     0.85862188
       2       0.91855104    -0.00840078     0.39521312
       3      -0.13190100     0.93596317     0.32645836
    ==== End of matrix output ====


 CCSD   oscillator strength matrix for state nr. 13 of symmetry 1
 CCSD  excitation energy:15.16932306


               Column   1     Column   2     Column   3
       1       0.00148837     0.00068508     0.00056589
       2       0.00068508     0.00031532     0.00026048
       3       0.00056589     0.00026048     0.00021516
    ==== End of matrix output ====

 Principal values of diagonalized oscillator strength matrix:

             a.u.               
 1      -0.00000001
 2      -0.00000000
 3       0.00201886

 Principal axis of diagonalized oscillator strength matrix:


               Column   1     Column   2     Column   3
       1      -0.37264743    -0.35199767     0.85862188
       2       0.91855104    -0.00840078     0.39521312
       3      -0.13190100     0.93596317     0.32645836
    ==== End of matrix output ====


 CCSD  Transition strength matrix for state nr. 14 of symmetry 1
 CCSD  excitation energy:15.18692901

 Gauge: length

               Column   1     Column   2     Column   3
       1     5.390228D-07   8.648332D-07   1.804931D-06
       2     8.648332D-07   1.384311D-06   2.888659D-06
       3     1.804931D-06   2.888659D-06   6.027741D-06
    ==== End of matrix output ====

 Principal values of diagonalized transition strength matrix:

             a.u.               
 1      -0.00000000
 2      -0.00000000
 3       0.00000795

 Principal axis of diagonalized transition strength matrix:


               Column   1     Column   2     Column   3
       1       0.96142635    -0.08788812     0.26064354
       2      -0.03007727     0.90830640     0.41722277
       3      -0.27341312    -0.40896841     0.87062627
    ==== End of matrix output ====


 CCSD   oscillator strength matrix for state nr. 14 of symmetry 1
 CCSD  excitation energy:15.18692901


               Column   1     Column   2     Column   3
       1     5.457401D-06   8.756107D-06   1.827424D-05
       2     8.756107D-06   1.401563D-05   2.924657D-05
       3     1.827424D-05   2.924657D-05   6.102858D-05
    ==== End of matrix output ====

 Principal values of diagonalized oscillator strength matrix:

             a.u.               
 1      -0.00000001
 2      -0.00000000
 3       0.00008052

 Principal axis of diagonalized oscillator strength matrix:


               Column   1     Column   2     Column   3
       1       0.96142635    -0.08788812     0.26064354
       2      -0.03007727     0.90830640     0.41722277
       3      -0.27341312    -0.40896841     0.87062627
    ==== End of matrix output ====


 CCSD  Transition strength matrix for state nr. 15 of symmetry 1
 CCSD  excitation energy:15.26189710

 Gauge: length

               Column   1     Column   2     Column   3
       1     1.783676D-05   6.827193D-05  -9.213882D-05
       2     6.827193D-05   2.612961D-04  -3.526533D-04
       3    -9.213882D-05  -3.526533D-04   4.759453D-04
    ==== End of matrix output ====

 Principal values of diagonalized transition strength matrix:

             a.u.               
 1      -0.00000000
 2       0.00000000
 3       0.00075508

 Principal axis of diagonalized transition strength matrix:


               Column   1     Column   2     Column   3
       1      -0.49225649     0.85677316    -0.15369873
       2       0.74225959     0.32093316    -0.58826236
       3       0.45468039     0.40366032     0.79392953
    ==== End of matrix output ====


 CCSD   oscillator strength matrix for state nr. 15 of symmetry 1
 CCSD  excitation energy:15.26189710


               Column   1     Column   2     Column   3
       1       0.00018148     0.00069464    -0.00093748
       2       0.00069464     0.00265858    -0.00358811
       3      -0.00093748    -0.00358811     0.00484255
    ==== End of matrix output ====

 Principal values of diagonalized oscillator strength matrix:

             a.u.               
 1      -0.00000003
 2      -0.00000000
 3       0.00768265

 Principal axis of diagonalized oscillator strength matrix:


               Column   1     Column   2     Column   3
       1      -0.49225649     0.85677316    -0.15369873
       2       0.74225959     0.32093316    -0.58826236
       3       0.45468039     0.40366032     0.79392953
    ==== End of matrix output ====

  Total time for    135 linear response residues:     286.09 seconds.
  

 *******************************************************************************
 *******************************************************************************
 *                                                                             *
 *                                                                             *
 *                   SUMMARY OF COUPLED CLUSTER CALCULATION                    *
 *                                                                             *
 *                                                                             *
 *******************************************************************************
 *******************************************************************************

                                                                                
                                                                                
            Total SCF   energy:                  -360.7495445626                
            Total MP2   energy:                  -361.8598110698                
            Total CCSD  energy:                  -361.8983183363                
                                                                                
                                                                                
            Total SCF   energy:                  -360.7495445626                
            Total RSTAR energy:                  -361.8983183363                
            Total CCSD  energy:                  -361.8984650463                
                                                                                
                                                                                
            Total SCF   energy:                  -360.7495445626                
            Total RSTAR energy:                  -361.8984650463                
            Total CCSD  energy:                  -361.8984661790                
                                                                                
                                                                                
            Total SCF   energy:                  -360.7495445626                
            Total RSTAR energy:                  -361.8984661790                
            Total CCSD  energy:                  -361.8984662713                
                                                                                
                                                                                
            Total SCF   energy:                  -360.7495445626                
            Total RSTAR energy:                  -361.8984662713                
            Total CCSD  energy:                  -361.8984662742                
                                                                                
                                                                                
            Total SCF   energy:                  -360.7495445626                
            Total RSTAR energy:                  -361.8984662742                
            Total CCSD  energy:                  -361.8984662742                
            CCSD Total  energy:                  -362.3005769307                
            CCSD E(QM/MM)     :                    -0.3970801994                
                                                                                
                                                                                
                                                                                
 +=============================================================================+
 |  sym. | Exci.  |        CCSD       Excitation energies            | ||T1||  |
 |(spin, |        +------------------------------------------------------------+
 | spat) |        |     Hartree    |       eV.      |     cm-1       |    %    |
 +=============================================================================+
 | ^1A   |    1   |    14.8210215  |     403.30051  |   3252838.189  |  87.96  |
 | ^1A   |    2   |    14.8727303  |     404.70758  |   3264186.971  |  88.47  |
 | ^1A   |    3   |    14.8984541  |     405.40756  |   3269832.687  |  88.65  |
 | ^1A   |    4   |    14.9549204  |     406.94409  |   3282225.620  |  87.91  |
 | ^1A   |    5   |    14.9591986  |     407.06050  |   3283164.570  |  87.75  |
 | ^1A   |    6   |    14.9849199  |     407.76041  |   3288809.751  |  87.64  |
 | ^1A   |    7   |    15.0383306  |     409.21379  |   3300532.029  |  87.70  |
 | ^1A   |    8   |    15.0421799  |     409.31854  |   3301376.853  |  87.69  |
 | ^1A   |    9   |    15.0587244  |     409.76874  |   3305007.956  |  87.93  |
 | ^1A   |   10   |    15.1017852  |     410.94048  |   3314458.700  |  87.61  |
 | ^1A   |   11   |    15.1056966  |     411.04691  |   3315317.161  |  87.63  |
 | ^1A   |   12   |    15.1198341  |     411.43162  |   3318419.992  |  87.65  |
 | ^1A   |   13   |    15.1693231  |     412.77828  |   3329281.557  |  87.46  |
 | ^1A   |   14   |    15.1869290  |     413.25736  |   3333145.615  |  87.58  |
 | ^1A   |   15   |    15.2618971  |     415.29735  |   3349599.210  |  87.88  |
 +=============================================================================+
                                                                                
                                                                                
     Total energies in Hartree:                                                 
             1 ^1A       -347.0824752809                                        
             2 ^1A       -347.0307664261                                        
             3 ^1A       -347.0050426509                                        
             4 ^1A       -346.9485762933                                        
             5 ^1A       -346.9442981233                                        
             6 ^1A       -346.9185767835                                        
             7 ^1A       -346.8651661558                                        
             8 ^1A       -346.8613168553                                        
             9 ^1A       -346.8447723330                                        
            10 ^1A       -346.8017115719                                        
            11 ^1A       -346.7978001391                                        
            12 ^1A       -346.7836625969                                        
            13 ^1A       -346.7341736681                                        
            14 ^1A       -346.7165677214                                        
            15 ^1A       -346.6415996287                                        
                                                                                
                                                                                
 +=============================================================================+
 |  sym. | Exci.  |        CCSD       Length   Gauge Oscillator Strength       |
 |(spin, |        +------------------------------------------------------------+
 | spat) |        | Dipole Strength(a.u.) | Oscillator strength  | Direction   |
 +=============================================================================+
 | ^1A   |    1   |        0.0007186      |      0.0071000       |  (Y,Z)      |
 | ^1A   |    2   |        0.0039764      |      0.0394264       |  (Y,Z)      |
 | ^1A   |    3   |        0.0036106      |      0.0358615       |  (Y,Z)      |
 | ^1A   |    4   |        0.0012775      |      0.0127364       |  (Y,Z)      |
 | ^1A   |    5   |        0.0004210      |      0.0041982       |  (Y,Z)      |
 | ^1A   |    6   |        0.0001657      |      0.0016553       |  (Y,Z)      |
 | ^1A   |    7   |        0.0002405      |      0.0024115       |  (Y,Z)      |
 | ^1A   |    8   |        0.0002234      |      0.0022405       |  (Y,Z)      |
 | ^1A   |    9   |        0.0011015      |      0.0110578       |  (Y,Z)      |
 | ^1A   |   10   |        0.0001257      |      0.0012659       |  (Y,Z)      |
 | ^1A   |   11   |        0.0000393      |      0.0003958       |  (Y,Z)      |
 | ^1A   |   12   |        0.0000048      |      0.0000486       |  (Y,Z)      |
 | ^1A   |   13   |        0.0001996      |      0.0020188       |  (Y,Z)      |
 | ^1A   |   14   |        0.0000080      |      0.0000805       |  (Y,Z)      |
 | ^1A   |   15   |        0.0007551      |      0.0076826       |  (Y,Z)      |
 +=============================================================================+

  1 a.u. =        27.21138 eV.  
  1 a.u. =    219474.62934 cm-1.
  

 *******************************************************************************
 *******************************************************************************
 *                                                                             *
 *                                                                             *
 *                      END OF COUPLED CLUSTER CALCULATION                     *
 *                                                                             *
 *                                                                             *
 *******************************************************************************
 *******************************************************************************


 CPU and wall time for CC :  498949.692   55630.804

 
     Date and time (Linux)  : Fri Dec 28 13:27:28 2018
     Host name              : n-62-23-22                              


                      .-------------------------------------.
                      | End of Coupled Cluster Section (CC) |
                      `-------------------------------------'

  Total CPU  time used in DALTON: 138 hours 48 minutes  6 seconds
  Total wall time used in DALTON:  15 hours 29 minutes 32 seconds

 
     Date and time (Linux)  : Fri Dec 28 13:27:28 2018
     Host name              : n-62-23-22                              
  

 +---------------------------------------------------------+ 
 | List of selected calculated molecular properties (a.u.) | 
 +---------------------------------------------------------+ 

  Properties are read from unit number                      4

 CCSD       properties :
 #  1 1 CCSD/MM  Ground state Energy =    -362.3005769307
 #  2 1 E_QM/MM  Ground state Energy =      -0.3970801994
 #  3 1 Sy: 1 Sp: 1 Exc:  1 E_tot:   -347.0824752809 w:     14.8210214504 E_grs:   -361.9034967313
 #  4 1 Exctot   Excited state Energy =    -347.0824752809
 #  5 1 Sy: 1 Sp: 1 Exc:  2 E_tot:   -347.0307664261 w:     14.8727303052 E_grs:   -361.9034967313
 #  6 1 Exctot   Excited state Energy =    -347.0307664261
 #  7 1 Sy: 1 Sp: 1 Exc:  3 E_tot:   -347.0050426509 w:     14.8984540804 E_grs:   -361.9034967313
 #  8 1 Exctot   Excited state Energy =    -347.0050426509
 #  9 1 Sy: 1 Sp: 1 Exc:  4 E_tot:   -346.9485762933 w:     14.9549204380 E_grs:   -361.9034967313
 # 10 1 Exctot   Excited state Energy =    -346.9485762933
 # 11 1 Sy: 1 Sp: 1 Exc:  5 E_tot:   -346.9442981233 w:     14.9591986079 E_grs:   -361.9034967313
 # 12 1 Exctot   Excited state Energy =    -346.9442981233
 # 13 1 Sy: 1 Sp: 1 Exc:  6 E_tot:   -346.9185767835 w:     14.9849199478 E_grs:   -361.9034967313
 # 14 1 Exctot   Excited state Energy =    -346.9185767835
 # 15 1 Sy: 1 Sp: 1 Exc:  7 E_tot:   -346.8651661558 w:     15.0383305755 E_grs:   -361.9034967313
 # 16 1 Exctot   Excited state Energy =    -346.8651661558
 # 17 1 Sy: 1 Sp: 1 Exc:  8 E_tot:   -346.8613168553 w:     15.0421798760 E_grs:   -361.9034967313
 # 18 1 Exctot   Excited state Energy =    -346.8613168553
 # 19 1 Sy: 1 Sp: 1 Exc:  9 E_tot:   -346.8447723330 w:     15.0587243982 E_grs:   -361.9034967313
 # 20 1 Exctot   Excited state Energy =    -346.8447723330
 # 21 1 Sy: 1 Sp: 1 Exc: 10 E_tot:   -346.8017115719 w:     15.1017851594 E_grs:   -361.9034967313
 # 22 1 Exctot   Excited state Energy =    -346.8017115719
 # 23 1 Sy: 1 Sp: 1 Exc: 11 E_tot:   -346.7978001391 w:     15.1056965922 E_grs:   -361.9034967313
 # 24 1 Exctot   Excited state Energy =    -346.7978001391
 # 25 1 Sy: 1 Sp: 1 Exc: 12 E_tot:   -346.7836625969 w:     15.1198341344 E_grs:   -361.9034967313
 # 26 1 Exctot   Excited state Energy =    -346.7836625969
 # 27 1 Sy: 1 Sp: 1 Exc: 13 E_tot:   -346.7341736681 w:     15.1693230632 E_grs:   -361.9034967313
 # 28 1 Exctot   Excited state Energy =    -346.7341736681
 # 29 1 Sy: 1 Sp: 1 Exc: 14 E_tot:   -346.7165677214 w:     15.1869290099 E_grs:   -361.9034967313
 # 30 1 Exctot   Excited state Energy =    -346.7165677214
 # 31 1 Sy: 1 Sp: 1 Exc: 15 E_tot:   -346.6415996287 w:     15.2618971026 E_grs:   -361.9034967313
 # 32 1 Exctot   Excited state Energy =    -346.6415996287
 # 33 1 |<O|XDIPLEN |i(14.821021)>| =     0.00054712
 # 35 1 |<O|XDIPLEN |i(14.872730)>| =     0.01235685
 # 37 1 |<O|XDIPLEN |i(14.898454)>| =     0.05434459
 # 39 1 |<O|XDIPLEN |i(14.954920)>| =     0.00490842
 # 41 1 |<O|XDIPLEN |i(14.959199)>| =     0.01881459
 # 43 1 |<O|XDIPLEN |i(14.984920)>| =     0.00522083
 # 45 1 |<O|XDIPLEN |i(15.038331)>| =     0.01018306
 # 47 1 |<O|XDIPLEN |i(15.042180)>| =     0.00274693
 # 49 1 |<O|XDIPLEN |i(15.058724)>| =     0.01404249
 # 51 1 |<O|XDIPLEN |i(15.101785)>| =     0.00633937
 # 53 1 |<O|XDIPLEN |i(15.105697)>| =     0.00086475
 # 55 1 |<O|XDIPLEN |i(15.119834)>| =     0.00209833
 # 57 1 |<O|XDIPLEN |i(15.169323)>| =     0.01213158
 # 59 1 |<O|XDIPLEN |i(15.186929)>| =     0.00073418
 # 61 1 |<O|XDIPLEN |i(15.261897)>| =     0.00422336
 # 63 1 |<O|YDIPLEN |i(14.821021)>| =     0.00773039
 # 65 1 |<O|YDIPLEN |i(14.872730)>| =     0.05999457
 # 67 1 |<O|YDIPLEN |i(14.898454)>| =     0.01860783
 # 69 1 |<O|YDIPLEN |i(14.954920)>| =     0.00567173
 # 71 1 |<O|YDIPLEN |i(14.959199)>| =     0.00347291
 # 73 1 |<O|YDIPLEN |i(14.984920)>| =     0.00992097
 # 75 1 |<O|YDIPLEN |i(15.038331)>| =     0.01128191
 # 77 1 |<O|YDIPLEN |i(15.042180)>| =     0.01421819
 # 79 1 |<O|YDIPLEN |i(15.058724)>| =     0.00653701
 # 81 1 |<O|YDIPLEN |i(15.101785)>| =     0.00663266
 # 83 1 |<O|YDIPLEN |i(15.105697)>| =     0.00301075
 # 85 1 |<O|YDIPLEN |i(15.119834)>| =     0.00003578
 # 87 1 |<O|YDIPLEN |i(15.169323)>| =     0.00558393
 # 89 1 |<O|YDIPLEN |i(15.186929)>| =     0.00117657
 # 91 1 |<O|YDIPLEN |i(15.261897)>| =     0.01616466
 # 93 1 |<O|ZDIPLEN |i(14.821021)>| =     0.02566162
 # 95 1 |<O|ZDIPLEN |i(14.872730)>| =     0.01497792
 # 97 1 |<O|ZDIPLEN |i(14.898454)>| =     0.01763553
 # 99 1 |<O|ZDIPLEN |i(14.954920)>| =     0.03494595
 #101 1 |<O|ZDIPLEN |i(14.959199)>| =     0.00741066
 #103 1 |<O|ZDIPLEN |i(14.984920)>| =     0.00632570
 #105 1 |<O|ZDIPLEN |i(15.038331)>| =     0.00309244
 #107 1 |<O|ZDIPLEN |i(15.042180)>| =     0.00370407
 #109 1 |<O|ZDIPLEN |i(15.058724)>| =     0.02935211
 #111 1 |<O|ZDIPLEN |i(15.101785)>| =     0.00644668
 #113 1 |<O|ZDIPLEN |i(15.105697)>| =     0.00543059
 #115 1 |<O|ZDIPLEN |i(15.119834)>| =     0.00064315
 #117 1 |<O|ZDIPLEN |i(15.169323)>| =     0.00461257
 #119 1 |<O|ZDIPLEN |i(15.186929)>| =     0.00245515
 #121 1 |<O|ZDIPLEN |i(15.261897)>| =     0.02181617

 THE_END   
