

     ************************************************************************
     *************** Dalton - An Electronic Structure Program ***************
     ************************************************************************

    This is output from DALTON release Dalton2017.alpha (2016)
         ( Web site: http://daltonprogram.org )

   ----------------------------------------------------------------------------

    NOTE:
     
    Dalton is an experimental code for the evaluation of molecular
    properties using (MC)SCF, DFT, CI, and CC wave functions.
    The authors accept no responsibility for the performance of
    the code or for the correctness of the results.
     
    The code (in whole or part) is provided under a licence and
    is not to be reproduced for further distribution without
    the written permission of the authors or their representatives.
     
    See the home page "http://daltonprogram.org" for further information.
     
    If results obtained with this code are published,
    the appropriate citations would be both of:
     
       K. Aidas, C. Angeli, K. L. Bak, V. Bakken, R. Bast,
       L. Boman, O. Christiansen, R. Cimiraglia, S. Coriani,
       P. Dahle, E. K. Dalskov, U. Ekstroem,
       T. Enevoldsen, J. J. Eriksen, P. Ettenhuber, B. Fernandez,
       L. Ferrighi, H. Fliegl, L. Frediani, K. Hald, A. Halkier,
       C. Haettig, H. Heiberg, T. Helgaker, A. C. Hennum,
       H. Hettema, E. Hjertenaes, S. Hoest, I.-M. Hoeyvik,
       M. F. Iozzi, B. Jansik, H. J. Aa. Jensen, D. Jonsson,
       P. Joergensen, J. Kauczor, S. Kirpekar,
       T. Kjaergaard, W. Klopper, S. Knecht, R. Kobayashi, H. Koch,
       J. Kongsted, A. Krapp, K. Kristensen, A. Ligabue,
       O. B. Lutnaes, J. I. Melo, K. V. Mikkelsen, R. H. Myhre,
       C. Neiss, C. B. Nielsen, P. Norman, J. Olsen,
       J. M. H. Olsen, A. Osted, M. J. Packer, F. Pawlowski,
       T. B. Pedersen, P. F. Provasi, S. Reine, Z. Rinkevicius,
       T. A. Ruden, K. Ruud, V. Rybkin, P. Salek, C. C. M. Samson,
       A. Sanchez de Meras, T. Saue, S. P. A. Sauer,
       B. Schimmelpfennig, K. Sneskov, A. H. Steindal,
       K. O. Sylvester-Hvid, P. R. Taylor, A. M. Teale,
       E. I. Tellgren, D. P. Tew, A. J. Thorvaldsen, L. Thoegersen,
       O. Vahtras, M. A. Watson, D. J. D. Wilson, M. Ziolkowski
       and H. Agren,
       "The Dalton quantum chemistry program system",
       WIREs Comput. Mol. Sci. 2014, 4:269–284 (doi: 10.1002/wcms.1172)
     
    and
     
       Dalton, a Molecular Electronic Structure Program,
       Release Dalton2017.alpha (2016), see http://daltonprogram.org
   ----------------------------------------------------------------------------

    Authors in alphabetical order (major contribution(s) in parenthesis):

  Kestutis Aidas,           Vilnius University,           Lithuania   (QM/MM)
  Celestino Angeli,         University of Ferrara,        Italy       (NEVPT2)
  Keld L. Bak,              UNI-C,                        Denmark     (AOSOPPA, non-adiabatic coupling, magnetic properties)
  Vebjoern Bakken,          University of Oslo,           Norway      (DALTON; geometry optimizer, symmetry detection)
  Radovan Bast,             UiT The Arctic U. of Norway,  Norway      (DALTON installation and execution frameworks)
  Pablo Baudin,             University of Valencia,       Spain       (Cholesky excitation energies)
  Linus Boman,              NTNU,                         Norway      (Cholesky decomposition and subsystems)
  Ove Christiansen,         Aarhus University,            Denmark     (CC module)
  Renzo Cimiraglia,         University of Ferrara,        Italy       (NEVPT2)
  Sonia Coriani,            University of Trieste,        Italy       (CC module, MCD in RESPONS)
  Janusz Cukras,            University of Trieste,        Italy       (MChD in RESPONS)
  Paal Dahle,               University of Oslo,           Norway      (Parallelization)
  Erik K. Dalskov,          UNI-C,                        Denmark     (SOPPA)
  Thomas Enevoldsen,        Univ. of Southern Denmark,    Denmark     (SOPPA)
  Janus J. Eriksen,         Aarhus University,            Denmark     (Polarizable embedding model, TDA)
  Rasmus Faber,             University of Copenhagen,     Denmark     (Vib.avg. NMR with SOPPA, parallel AO-SOPPA)
  Berta Fernandez,          U. of Santiago de Compostela, Spain       (doublet spin, ESR in RESPONS)
  Lara Ferrighi,            Aarhus University,            Denmark     (PCM Cubic response)
  Heike Fliegl,             University of Oslo,           Norway      (CCSD(R12))
  Luca Frediani,            UiT The Arctic U. of Norway,  Norway      (PCM)
  Bin Gao,                  UiT The Arctic U. of Norway,  Norway      (Gen1Int library)
  Christof Haettig,         Ruhr-University Bochum,       Germany     (CC module)
  Kasper Hald,              Aarhus University,            Denmark     (CC module)
  Asger Halkier,            Aarhus University,            Denmark     (CC module)
  Frederik Beyer Hansen,    University of Copenhagen,     Denmark     (Parallel AO-SOPPA)
  Erik D. Hedegaard,        Univ. of Southern Denmark,    Denmark     (Polarizable embedding model, QM/MM)
  Hanne Heiberg,            University of Oslo,           Norway      (geometry analysis, selected one-electron integrals)
  Trygve Helgaker,          University of Oslo,           Norway      (DALTON; ABACUS, ERI, DFT modules, London, and much more)
  Alf Christian Hennum,     University of Oslo,           Norway      (Parity violation)
  Hinne Hettema,            University of Auckland,       New Zealand (quadratic response in RESPONS; SIRIUS supersymmetry)
  Eirik Hjertenaes,         NTNU,                         Norway      (Cholesky decomposition)
  Pi A. B. Haase,           University of Copenhagen,     Denmark     (Triplet AO-SOPPA)
  Maria Francesca Iozzi,    University of Oslo,           Norway      (RPA)
  Brano Jansik              Technical Univ. of Ostrava    Czech Rep.  (DFT cubic response)
  Hans Joergen Aa. Jensen,  Univ. of Southern Denmark,    Denmark     (DALTON; SIRIUS, RESPONS, ABACUS modules, London, and much more)
  Dan Jonsson,              UiT The Arctic U. of Norway,  Norway      (cubic response in RESPONS module)
  Poul Joergensen,          Aarhus University,            Denmark     (RESPONS, ABACUS, and CC modules)
  Maciej Kaminski,          University of Warsaw,         Poland      (CPPh in RESPONS)
  Joanna Kauczor,           Linkoeping University,        Sweden      (Complex polarization propagator (CPP) module)
  Sheela Kirpekar,          Univ. of Southern Denmark,    Denmark     (Mass-velocity & Darwin integrals)
  Wim Klopper,              KIT Karlsruhe,                Germany     (R12 code in CC, SIRIUS, and ABACUS modules)
  Stefan Knecht,            ETH Zurich,                   Switzerland (Parallel CI and MCSCF)
  Rika Kobayashi,           Australian National Univ.,    Australia   (DIIS in CC, London in MCSCF)
  Henrik Koch,              NTNU,                         Norway      (CC module, Cholesky decomposition)
  Jacob Kongsted,           Univ. of Southern Denmark,    Denmark     (Polarizable embedding model, QM/MM)
  Andrea Ligabue,           University of Modena,         Italy       (CTOCD, AOSOPPA)
  Nanna H. List             Univ. of Southern Denmark,    Denmark     (Polarizable embedding model)
  Ola B. Lutnaes,           University of Oslo,           Norway      (DFT Hessian)
  Juan I. Melo,             University of Buenos Aires,   Argentina   (LRESC, Relativistic Effects on NMR Shieldings)
  Kurt V. Mikkelsen,        University of Copenhagen,     Denmark     (MC-SCRF and QM/MM)
  Rolf H. Myhre,            NTNU,                         Norway      (Cholesky, subsystems and ECC2)
  Christian Neiss,          Univ. Erlangen-Nuernberg,     Germany     (CCSD(R12))
  Christian B. Nielsen,     University of Copenhagen,     Denmark     (QM/MM)
  Patrick Norman,           Linkoeping University,        Sweden      (Cubic response and complex frequency response in RESPONS)
  Jeppe Olsen,              Aarhus University,            Denmark     (SIRIUS CI/density modules)
  Jogvan Magnus H. Olsen,   Univ. of Southern Denmark,    Denmark     (Polarizable embedding model, QM/MM)
  Anders Osted,             Copenhagen University,        Denmark     (QM/MM)
  Martin J. Packer,         University of Sheffield,      UK          (SOPPA)
  Filip Pawlowski,          Kazimierz Wielki University,  Poland      (CC3)
  Morten N. Pedersen,       Univ. of Southern Denmark,    Denmark     (Polarizable embedding model)
  Thomas B. Pedersen,       University of Oslo,           Norway      (Cholesky decomposition)
  Patricio F. Provasi,      University of Northeastern,   Argentina   (Analysis of coupling constants in localized orbitals)
  Zilvinas Rinkevicius,     KTH Stockholm,                Sweden      (open-shell DFT, ESR)
  Elias Rudberg,            KTH Stockholm,                Sweden      (DFT grid and basis info)
  Torgeir A. Ruden,         University of Oslo,           Norway      (Numerical derivatives in ABACUS)
  Kenneth Ruud,             UiT The Arctic U. of Norway,  Norway      (DALTON; ABACUS magnetic properties and much more)
  Pawel Salek,              KTH Stockholm,                Sweden      (DALTON; DFT code)
  Claire C. M. Samson       University of Karlsruhe       Germany     (Boys localization, r12 integrals in ERI)
  Alfredo Sanchez de Meras, University of Valencia,       Spain       (CC module, Cholesky decomposition)
  Trond Saue,               Paul Sabatier University,     France      (direct Fock matrix construction)
  Stephan P. A. Sauer,      University of Copenhagen,     Denmark     (SOPPA(CCSD), SOPPA prop., AOSOPPA, vibrational g-factors)
  Bernd Schimmelpfennig,    Forschungszentrum Karlsruhe,  Germany     (AMFI module)
  Kristian Sneskov,         Aarhus University,            Denmark     (Polarizable embedding model, QM/MM)
  Arnfinn H. Steindal,      UiT The Arctic U. of Norway,  Norway      (parallel QM/MM, Polarizable embedding model)
  Casper Steinmann,         Univ. of Southern Denmark,    Denmark     (QFIT, Polarizable embedding model)
  K. O. Sylvester-Hvid,     University of Copenhagen,     Denmark     (MC-SCRF)
  Peter R. Taylor,          VLSCI/Univ. of Melbourne,     Australia   (Symmetry handling ABACUS, integral transformation)
  Andrew M. Teale,          University of Nottingham,     England     (DFT-AC, DFT-D)
  David P. Tew,             University of Bristol,        England     (CCSD(R12))
  Olav Vahtras,             KTH Stockholm,                Sweden      (triplet response, spin-orbit, ESR, TDDFT, open-shell DFT)
  David J. Wilson,          La Trobe University,          Australia   (DFT Hessian and DFT magnetizabilities)
  Hans Agren,               KTH Stockholm,                Sweden      (SIRIUS module, RESPONS, MC-SCRF solvation model)
 --------------------------------------------------------------------------------

     Date and time (Linux)  : Sat Dec 22 15:38:08 2018
     Host name              : n-62-29-32                              

 * Work memory size             :  1280000000 =  9.537 gigabytes.

 * Directories for basis set searches:
   1) /zhome/37/3/129401/NH3NH4/CCSD/AIMD_SAMPLING/nh3_4h2o_nd
   2) /zhome/9a/4/124800/source/dalton/build-mlcc/basis


Compilation information
-----------------------

 Who compiled             | rfaber
 Host                     | hpclogin1
 System                   | Linux-2.6.32-696.1.1.el6.x86_64
 CMake generator          | Unix Makefiles
 Processor                | x86_64
 64-bit integers          | ON
 MPI                      | OFF
 Fortran compiler         | /opt/intel/2016update2/compilers_and_libraries_201
                          | 6.2.181/linux/bin/intel64/ifort
 Fortran compiler version | ifort (IFORT) 16.0.2 20160204
 C compiler               | /opt/intel/2016update2/compilers_and_libraries_201
                          | 6.2.181/linux/bin/intel64/icc
 C compiler version       | icc (ICC) 16.0.2 20160204
 C++ compiler             | /opt/intel/2016update2/compilers_and_libraries_201
                          | 6.2.181/linux/bin/intel64/icpc
 C++ compiler version     | icpc (ICC) 16.0.2 20160204
 Static linking           | OFF
 Last Git revision        | bb4d1599ca5680a9f3980451fc8bbefdba436d59
 Git branch               | mlcc
 Configuration time       | 2017-06-13 16:11:03.928841


   Content of the .dal input file
 ----------------------------------

**DALTON
.RUN WAVE FUNCTIONS
*QMMM
.QMMM
**INTEGRALS
.DIPLEN
**WAVE FUNCTIONS
.CC
*PRINT
!To check the origin of excit
.PRINTL
   0 11
*SCF INP
.THRESH
1.0D-7
*CC INP
.CCSD
.THRLEQ
 1.0D-9
.THRENR
 1.0D-10
.FROIMP
4
0
.PRINT
 1
.MAX IT
 1200
.MAXRED
 1200
.MXLRV
1199
*CCSLV
.CCMM
.MXSLIT
200
.MXINIT
4 5
*CCEXCI
.NCCEXC
 15
.CVSEPARA
1
1
*CCLRSD
.DIPOLE
**END OF DALTON INPUT


   Content of the .mol file
 ----------------------------

ATOMBASIS


Atomtypes=4 Charge=0 Nosymm Angstrom
   7.00000    1    Basis=6-311G**
N          0.000000        0.000000        0.000000
   1.00000    3    Basis=6-311G**
H          0.643453        0.619270        0.481205
H         -0.886090        0.049144        0.441553
H          0.343831       -0.962399        0.098581
   8.00000    4    Basis=6-311G**
O         -1.069741        0.844320       -2.254273
O          0.639811       -3.063048       -0.135520
O          1.068048        2.206333        2.342063
O         -1.733058        0.367845        2.602379
   1.00000    8    Basis=6-311G**
H         -0.845756        0.513617       -3.144196
H         -0.360847        0.466362       -1.669788
H          1.601182       -3.242722       -0.265918
H          0.198540       -3.391797       -0.955737
H          1.059180        2.494500        3.262983
H          1.948270        2.404811        1.967904
H         -1.877602        1.194977        2.087532
H         -2.080347       -0.336597        2.072410


       *******************************************************************
       *********** Output from DALTON general input processing ***********
       *******************************************************************

 --------------------------------------------------------------------------------
   Overall default print level:    0
   Print level for DALTON.STAT:    1

    HERMIT 1- and 2-electron integral sections will be executed
    "Old" integral transformation used (limited to max 255 basis functions)
    Wave function sections will be executed (SIRIUS module)
 --------------------------------------------------------------------------------


 Changes of defaults for *QMMM  :
 --------------------------------

 +------------------+
 |  WORD: | CHANGE: |
 +------------------+
 |   QMMM |       T |
 +------------------+
 


   ****************************************************************************
   *************** Output of molecule and basis set information ***************
   ****************************************************************************


    The two title cards from your ".mol" input:
    ------------------------------------------------------------------------
 1:                                                                         
 2:                                                                         
    ------------------------------------------------------------------------

  Coordinates are entered in Angstrom and converted to atomic units.
          - Conversion factor : 1 bohr = 0.52917721 A

  Atomic type no.    1
  --------------------
  Nuclear charge:   7.00000
  Number of symmetry independent centers:    1
  Number of basis sets to read;    2
  The basis set is "6-311G**" from the basis set library.
  Basis set file used for this atomic type with Z =   7 :
     "/zhome/9a/4/124800/source/dalton/build-mlcc/basis/6-311G**"

  Info about the basis set file: your basis has no documentation.
  Basis set: 6-311G**                                                                        

  Atomic type no.    2
  --------------------
  Nuclear charge:   1.00000
  Number of symmetry independent centers:    3
  Number of basis sets to read;    2
  The basis set is "6-311G**" from the basis set library.
  Basis set file used for this atomic type with Z =   1 :
     "/zhome/9a/4/124800/source/dalton/build-mlcc/basis/6-311G**"

  Info about the basis set file: your basis has no documentation.
  Basis set: 6-311G**                                                                        

  Atomic type no.    3
  --------------------
  Nuclear charge:   8.00000
  Number of symmetry independent centers:    4
  Number of basis sets to read;    2
  The basis set is "6-311G**" from the basis set library.
  Basis set file used for this atomic type with Z =   8 :
     "/zhome/9a/4/124800/source/dalton/build-mlcc/basis/6-311G**"

  Info about the basis set file: your basis has no documentation.
  Basis set: 6-311G**                                                                        

  Atomic type no.    4
  --------------------
  Nuclear charge:   1.00000
  Number of symmetry independent centers:    8
  Number of basis sets to read;    2
  The basis set is "6-311G**" from the basis set library.
  Basis set file used for this atomic type with Z =   1 :
     "/zhome/9a/4/124800/source/dalton/build-mlcc/basis/6-311G**"

  Info about the basis set file: your basis has no documentation.
  Basis set: 6-311G**                                                                        


                         SYMGRP: Point group information
                         -------------------------------

@    Point group: C1 


                                 Isotopic Masses
                                 ---------------

                           N          14.003074
                           H           1.007825
                           H           1.007825
                           H           1.007825
                           O          15.994915
                           O          15.994915
                           O          15.994915
                           O          15.994915
                           H           1.007825
                           H           1.007825
                           H           1.007825
                           H           1.007825
                           H           1.007825
                           H           1.007825
                           H           1.007825
                           H           1.007825

                       Total mass:    89.068809 amu
                       Natural abundance:  98.514 %

 Center-of-mass coordinates (a.u.):   -0.377052    0.116543    0.960516


  Atoms and basis sets
  --------------------

  Number of atom types :    4
  Total number of atoms:   16

  label    atoms   charge   prim   cont     basis
  ----------------------------------------------------------------------
  N           1    7.0000    31    18      [11s5p1d|4s3p1d]                                   
  H           3    1.0000     8     6      [5s1p|3s1p]                                        
  O           4    8.0000    31    18      [11s5p1d|4s3p1d]                                   
  H           8    1.0000     8     6      [5s1p|3s1p]                                        
  ----------------------------------------------------------------------
  total:     16   50.0000   243   156
  ----------------------------------------------------------------------
  Spherical harmonic basis used.

  Threshold for neglecting AO integrals:  1.00D-12


  Cartesian Coordinates (a.u.)
  ----------------------------

  Total number of coordinates:   48
  N       :     1  x   0.0000000000    2  y   0.0000000000    3  z   0.0000000000
  H       :     4  x   1.2159499443    5  y   1.1702506974    6  z   0.9093456600
  H       :     7  x  -1.6744674221    8  y   0.0928687007    9  z   0.8344142397
  H       :    10  x   0.6497464233   11  y  -1.8186705330   12  z   0.1862910911
  O       :    13  x  -2.0215175147   14  y   1.5955335619   15  z  -4.2599585810
  O       :    16  x   1.2090675618   17  y  -5.7883218277   18  z  -0.2560956845
  O       :    19  x   2.0183182083   20  y   4.1693651105   21  z   4.4258576375
  O       :    22  x  -3.2750049787   23  y   0.6951263064   24  z   4.9177835834
  H       :    25  x  -1.5982472086   26  y   0.9705954631   27  z  -5.9416693233
  H       :    28  x  -0.6819020030   29  y   0.8812964551   30  z  -3.1554420068
  H       :    31  x   3.0257954563   32  y  -6.1278564795   33  z  -0.5025121917
  H       :    34  x   0.3751862249   35  y  -6.4095674016   36  z  -1.8060811775
  H       :    37  x   2.0015601171   38  y   4.7139218188   39  z   6.1661442205
  H       :    40  x   3.6816967175   41  y   4.5444341724   42  z   3.7187996003
  H       :    43  x  -3.5481535517   44  y   2.2581792557   45  z   3.9448637572
  H       :    46  x  -3.9312860750   47  y  -0.6360761445   48  z   3.9162873187


   Interatomic separations (in Angstrom):
   --------------------------------------

            N           H           H           H           O           O     
            ------      ------      ------      ------      ------      ------
 N     :    0.000000
 H     :    1.014438    0.000000
 H     :    0.991231    1.632825    0.000000
 H     :    1.026718    1.654645    1.628974    0.000000
 O     :    2.634192    3.235509    2.816649    3.286083    0.000000
 O     :    3.132090    3.733608    3.513848    2.134276    4.762269    0.000000
 O     :    3.390264    2.482306    3.476213    3.949502    5.248955    5.838508
 O     :    3.148202    3.195371    2.342668    3.514544    4.924844    4.989752
 H     :    3.296221    3.920770    3.615931    3.756241    0.975447    4.904240
 H     :    1.770846    2.378817    2.215336    2.380138    0.993482    3.976434
 H     :    3.626257    4.048508    4.186098    2.629385    5.271745    0.986671
 H     :    3.529467    4.283854    3.868968    2.652295    4.608624    0.987700
 H     :    4.241633    3.380474    4.210025    4.740814    6.139667    6.527789
 H     :    3.667631    2.664766    3.989049    4.172133    5.419437    6.002828
 H     :    3.051418    3.044248    2.237247    3.680348    4.430222    5.423108
 H     :    2.955677    3.296165    2.057849    3.188145    4.597399    4.439341

            O           O           H           H           H           H     
            ------      ------      ------      ------      ------      ------
 O     :    0.000000
 O     :    3.360654    0.000000
 H     :    6.052022    5.816501    0.000000
 H     :    4.600455    4.488216    1.552820    0.000000
 H     :    6.064487    5.690385    5.327483    4.424671    0.000000
 H     :    6.555196    5.525049    4.596974    3.963354    1.570184    0.000000
 H     :    0.964994    3.571506    6.971701    5.519244    6.757413    7.292928
 H     :    0.976821    4.254875    6.125093    4.724660    6.083178    6.723830
 H     :    3.124817    0.984940    5.375866    4.116902    6.110142    5.883056
 H     :    4.056057    0.947478    5.427712    4.195887    5.240897    4.867982

            H           H           H           H     
            ------      ------      ------      ------
 H     :    0.000000
 H     :    1.573453    0.000000
 H     :    3.419815    4.014387    0.000000
 H     :    4.391948    4.874012    1.545009    0.000000


  Max    interatomic separation is    7.2929 Angstrom (   13.7816 Bohr)
  between atoms   13 and   12, "H     " and "H     ".

  Min HX interatomic separation is    0.9475 Angstrom (    1.7905 Bohr)

  Min YX interatomic separation is    2.6342 Angstrom (    4.9779 Bohr)


  Bond distances (Angstrom):
  --------------------------

                  atom 1     atom 2       distance
                  ------     ------       --------
  bond distance:  H          N            1.014438
  bond distance:  H          N            0.991231
  bond distance:  H          N            1.026718
  bond distance:  H          O            0.975447
  bond distance:  H          O            0.993482
  bond distance:  H          O            0.986671
  bond distance:  H          O            0.987700
  bond distance:  H          O            0.964994
  bond distance:  H          O            0.976821
  bond distance:  H          O            0.984940
  bond distance:  H          O            0.947478


  Bond angles (degrees):
  ----------------------

                  atom 1     atom 2     atom 3         angle
                  ------     ------     ------         -----
  bond angle:     H          N          H            108.992
  bond angle:     H          N          H            108.316
  bond angle:     H          N          H            107.642
  bond angle:     H          O          H            104.118
  bond angle:     H          O          H            105.364
  bond angle:     H          O          H            108.249
  bond angle:     H          O          H            106.153




 Principal moments of inertia (u*A**2) and principal axes
 --------------------------------------------------------

   IA     302.406988         -0.002218    0.680042    0.733170
   IB     473.309855         -0.236884    0.711947   -0.661074
   IC     576.802206          0.971536    0.175142   -0.159512


 Rotational constants
 --------------------

               A                   B                   C

           1671.1883           1067.7551            876.1738 MHz
            0.055745            0.035616            0.029226 cm-1


@  Nuclear repulsion energy :  183.677374017037 Hartree


                     .---------------------------------------.
                     | Starting in Integral Section (HERMIT) |
                     `---------------------------------------'



 ***************************************************************************************
 ****************** Output from **INTEGRALS input processing (HERMIT) ******************
 ***************************************************************************************



    *************************************************************************
    ****************** Output from HERMIT input processing ******************
    *************************************************************************


 Default print level:        1

 * Nuclear model: Point charge

 Calculation of one- and two-electron Hamiltonian integrals.

 The following one-electron property integrals are calculated as requested:
          - overlap integrals
          - dipole length integrals

 Center of mass  (bohr):     -0.377052034449      0.116543479653      0.960515823205
 Operator center (bohr):      0.000000000000      0.000000000000      0.000000000000
 Gauge origin    (bohr):      0.000000000000      0.000000000000      0.000000000000
 Dipole origin   (bohr):      0.000000000000      0.000000000000      0.000000000000
 
  *********************************** 
  QMMM electrostatic potential: 
  Multipole order                                    0
  Isotropic polarization  
  *********************************** 
 
  ---------------- 
  QMMM information 
  ---------------- 
 
  MM coordinates in au 
  -------------------- 
     1     10.353981      8.570677    -11.686629
     2     10.974622      7.170893    -12.754945
     3      8.714978      9.046359    -12.308259
     4     -8.089135    -10.202263      2.545484
     5     -6.855186    -11.591414      2.820501
     6     -7.980094     -9.156396      4.156245
     7     -8.581819     -7.601327      7.248048
     8     -9.229360     -9.058221      8.256699
     9    -10.293032     -6.802853      6.800255
    10    -10.987225      5.821496      8.221391
    11     -9.149502      6.234188      8.279119
    12    -10.962897      4.047155      7.986848
    13     -5.547178     -2.547050      1.542619
    14     -6.634284     -2.729294      3.030047
    15     -6.293149     -1.526519      0.231204
    16      0.285889     -4.195143     -6.429513
    17     -0.466630     -3.078290     -7.806640
    18     -1.005854     -4.739700     -5.235159
    19      8.359289      5.294051     -7.779071
    20      7.211131      6.222823     -6.658588
    21      8.978469      6.472399     -9.022940
    22     -1.774982    -11.055491    -10.829571
    23     -2.932048     -9.757469    -10.361278
    24     -0.927313    -10.349399    -12.364688
    25      6.861040     -7.957676     10.298025
    26      6.821600     -7.725484     12.110935
    27      5.433494     -6.843246      9.774291
    28    -10.694304      2.731369     -5.888844
    29    -12.277947      3.673783     -6.059481
    30    -10.261360      2.080768     -7.553470
    31     -7.298421     -3.146122     -7.148651
    32     -6.509498     -2.055894     -5.854402
    33     -8.722878     -3.997377     -6.084446
    34     -2.639724     -7.461240     -3.492080
    35     -1.937468     -9.198231     -3.456063
    36     -4.173337     -7.393364     -2.517761
    37     -5.125064      1.781900     10.062106
    38     -4.019179      3.128697     10.694043
    39     -4.589485      1.381703      8.342593
    40     10.987544     -0.917233     -2.191901
    41     11.404798      0.402107     -3.422882
    42      9.079575     -0.694202     -1.912027
    43     -9.863571      6.575276     -0.357621
    44    -10.606211      8.369637     -0.229341
    45     -9.301752      6.665574     -2.086035
    46      7.446796      4.714396      3.791216
    47      7.922866      5.037630      2.095861
    48      8.009415      3.007019      4.288522
    49     -1.263728      0.096376     -8.864962
    50      0.203062      0.709411     -9.999868
    51     -2.839935      0.358812     -9.774419
    52     -6.159817      8.159157      8.091747
    53     -4.979219      7.667439      9.511311
    54     -7.050069      9.679376      8.929867
    55     -7.726448      3.849633      3.632424
    56     -8.700318      4.765727      2.411154
    57     -6.356030      5.072783      3.933612
    58     10.417312     -5.623536      7.309661
    59      9.980282     -4.220233      8.570233
    60      9.647623     -7.140425      8.098954
    61     -0.047355    -10.340802      7.894442
    62      1.103914    -11.683496      7.241102
    63     -0.771384     -9.555850      6.431923
    64      8.807569      9.218330      5.369052
    65      8.380404      7.537456      4.539829
    66     10.352632      8.809871      6.206308
    67      1.653862      7.072585      9.789275
    68      2.598561      8.570293     10.603125
    69      2.539705      5.636473     10.442923
    70      6.484521     -8.131856     -7.649702
    71      6.104033     -6.542957     -6.691299
    72      7.671166     -8.996002     -6.470330
    73      2.726731      9.190018     -0.031232
    74      1.335297     10.082895     -0.862964
    75      2.768481      9.598310      1.765229
    76      2.433359     -5.698711      7.961237
    77      1.321799     -7.158798      8.157882
    78      3.088810     -5.950755      6.213011
    79     -3.209246      7.042631    -11.632105
    80     -2.748573      7.816758    -10.086449
    81     -1.684464      7.271409    -12.631071
    82     -6.403020     -0.038155     -2.710905
    83     -7.808275      0.870593     -3.500871
    84     -4.848937      0.918851     -3.253557
    85      6.776291     -6.897519     -1.239711
    86      7.976916     -5.565844     -1.367113
    87      7.810414     -8.397359     -1.884208
    88      5.193918     10.320775     11.233793
    89      4.529020     10.448090     13.105895
    90      5.513404     12.154711     10.698046
    91      5.153603     -1.930327      2.689213
    92      6.576060     -1.255500      3.773314
    93      3.621371     -1.557767      3.750124
    94      2.341091      1.646439     11.159700
    95      2.251274      0.850866      9.520654
    96      4.160561      1.533227     11.856486
    97     -8.572266    -10.638172     -7.476834
    98     -7.143960     -9.386079     -7.595756
    99     -7.675862    -12.266607     -7.086469
   100      8.901683      4.724644     -1.342872
   101      8.599095      6.290579     -2.408993
   102     10.711807      4.966455     -0.870567
   103      4.999276     -3.439396     -5.475627
   104      3.188973     -3.678352     -5.500985
   105      5.386029     -2.307826     -4.052026
   106      2.626659    -11.500801     -7.812553
   107      1.130277    -11.338444     -8.812103
   108      3.820798    -10.078650     -7.947978
   109     -5.239396     -3.897948      6.937315
   110     -6.299449     -4.932682      8.034293
   111     -4.740650     -2.371204      7.823500
   112     -9.018707      0.431302    -10.239995
   113     -7.984034      1.127974    -11.730849
   114     -8.264148     -0.999559     -9.399991
   115      1.537309     -0.610782      6.581417
   116     -0.111603      0.168273      5.986359
   117      1.024780     -2.222960      7.271199
   118     -4.679206     -7.404164     -8.518368
   119     -5.117890     -5.594415     -8.461332
   120     -3.616828     -7.818683     -7.124405
   121     -7.461682      7.331283     -4.839823
   122     -8.087051      5.715539     -5.559474
   123     -5.655977      7.111281     -4.275804
   124      9.795851    -10.628496     -3.691200
   125     10.818537     -9.252757     -4.196624
   126     10.510885    -11.346173     -2.032826
   127     -0.458827     11.072465     -3.882384
   128     -1.024611      9.379062     -4.340901
   129      0.941016     11.440678     -4.988775
   130      6.456960      8.623841     -3.922546
   131      5.080136      9.298537     -2.771321
   132      7.407564     10.073316     -4.273398
   133     -2.736055      6.317732     -2.921229
   134     -2.025214      4.671305     -3.463363
   135     -2.631755      6.338262     -1.093866
   136     11.292297     10.969403      1.060579
   137     12.783081     11.844824      1.698287
   138     10.336598     10.287979      2.548978
   139     -2.475409      6.000258      2.710640
   140     -0.792460      5.534294      3.097426
   141     -2.470964      7.805393      3.412021
   142      6.461877      0.684763     -9.438458
   143      5.911122     -0.594551     -8.263944
   144      7.305874      2.028031     -8.487488
   145    -10.149723     -0.584186      3.012084
   146     -9.140942      0.851254      3.591589
   147    -10.247945      0.014666      1.187239
   148      5.959314      0.394858     -1.688650
   149      6.176284      2.225759     -1.293104
   150      5.425918     -0.606107     -0.094413
   151     -9.356580    -11.454726     10.501936
   152     -8.930422    -10.840998     12.256977
   153    -10.832558    -12.518649     10.802831
   154     -6.723313     -6.731157     -1.058415
   155     -6.219582     -5.235807      0.106496
   156     -7.184724     -8.044464      0.235879
   157      9.954907     -1.464969     10.380857
   158     11.732346     -1.199825     10.862405
   159      9.035824     -1.663567     11.997588
   160      9.032868      0.376080      5.362279
   161     10.724708     -0.029788      4.383798
   162      9.072193     -0.370730      7.088822
   163     -2.054448     -8.202621      3.374299
   164     -3.008057     -6.768619      4.136272
   165     -1.068461     -7.506816      1.990097
   166     -4.322420     10.456410      4.022675
   167     -4.902581     10.139983      5.842765
   168     -3.340395     12.091490      3.804406
   169      3.553830     10.728043      5.645859
   170      4.302940     12.344865      5.181404
   171      5.036063      9.900164      6.512495
   172      5.522870     -7.826435      4.268888
   173      6.185718     -7.560738      2.523245
   174      6.912962     -6.899570      5.050512
   175    -10.647582     -5.875397     -4.234689
   176     -9.412953     -6.359633     -2.846134
   177    -11.135049     -4.121950     -3.460391
 
  MM charges 
  ---------- 
     1     -0.674440
     2      0.337220
     3      0.337220
     4     -0.674440
     5      0.337220
     6      0.337220
     7     -0.674440
     8      0.337220
     9      0.337220
    10     -0.674440
    11      0.337220
    12      0.337220
    13     -0.674440
    14      0.337220
    15      0.337220
    16     -0.674440
    17      0.337220
    18      0.337220
    19     -0.674440
    20      0.337220
    21      0.337220
    22     -0.674440
    23      0.337220
    24      0.337220
    25     -0.674440
    26      0.337220
    27      0.337220
    28     -0.674440
    29      0.337220
    30      0.337220
    31     -0.674440
    32      0.337220
    33      0.337220
    34     -0.674440
    35      0.337220
    36      0.337220
    37     -0.674440
    38      0.337220
    39      0.337220
    40     -0.674440
    41      0.337220
    42      0.337220
    43     -0.674440
    44      0.337220
    45      0.337220
    46     -0.674440
    47      0.337220
    48      0.337220
    49     -0.674440
    50      0.337220
    51      0.337220
    52     -0.674440
    53      0.337220
    54      0.337220
    55     -0.674440
    56      0.337220
    57      0.337220
    58     -0.674440
    59      0.337220
    60      0.337220
    61     -0.674440
    62      0.337220
    63      0.337220
    64     -0.674440
    65      0.337220
    66      0.337220
    67     -0.674440
    68      0.337220
    69      0.337220
    70     -0.674440
    71      0.337220
    72      0.337220
    73     -0.674440
    74      0.337220
    75      0.337220
    76     -0.674440
    77      0.337220
    78      0.337220
    79     -0.674440
    80      0.337220
    81      0.337220
    82     -0.674440
    83      0.337220
    84      0.337220
    85     -0.674440
    86      0.337220
    87      0.337220
    88     -0.674440
    89      0.337220
    90      0.337220
    91     -0.674440
    92      0.337220
    93      0.337220
    94     -0.674440
    95      0.337220
    96      0.337220
    97     -0.674440
    98      0.337220
    99      0.337220
   100     -0.674440
   101      0.337220
   102      0.337220
   103     -0.674440
   104      0.337220
   105      0.337220
   106     -0.674440
   107      0.337220
   108      0.337220
   109     -0.674440
   110      0.337220
   111      0.337220
   112     -0.674440
   113      0.337220
   114      0.337220
   115     -0.674440
   116      0.337220
   117      0.337220
   118     -0.674440
   119      0.337220
   120      0.337220
   121     -0.674440
   122      0.337220
   123      0.337220
   124     -0.674440
   125      0.337220
   126      0.337220
   127     -0.674440
   128      0.337220
   129      0.337220
   130     -0.674440
   131      0.337220
   132      0.337220
   133     -0.674440
   134      0.337220
   135      0.337220
   136     -0.674440
   137      0.337220
   138      0.337220
   139     -0.674440
   140      0.337220
   141      0.337220
   142     -0.674440
   143      0.337220
   144      0.337220
   145     -0.674440
   146      0.337220
   147      0.337220
   148     -0.674440
   149      0.337220
   150      0.337220
   151     -0.674440
   152      0.337220
   153      0.337220
   154     -0.674440
   155      0.337220
   156      0.337220
   157     -0.674440
   158      0.337220
   159      0.337220
   160     -0.674440
   161      0.337220
   162      0.337220
   163     -0.674440
   164      0.337220
   165      0.337220
   166     -0.674440
   167      0.337220
   168      0.337220
   169     -0.674440
   170      0.337220
   171      0.337220
   172     -0.674440
   173      0.337220
   174      0.337220
   175     -0.674440
   176      0.337220
   177      0.337220
 
  MM isotropic polarizabilities in au 
  ----------------------------------- 
     1      5.739350
     2      2.308390
     3      2.308390
     4      5.739350
     5      2.308390
     6      2.308390
     7      5.739350
     8      2.308390
     9      2.308390
    10      5.739350
    11      2.308390
    12      2.308390
    13      5.739350
    14      2.308390
    15      2.308390
    16      5.739350
    17      2.308390
    18      2.308390
    19      5.739350
    20      2.308390
    21      2.308390
    22      5.739350
    23      2.308390
    24      2.308390
    25      5.739350
    26      2.308390
    27      2.308390
    28      5.739350
    29      2.308390
    30      2.308390
    31      5.739350
    32      2.308390
    33      2.308390
    34      5.739350
    35      2.308390
    36      2.308390
    37      5.739350
    38      2.308390
    39      2.308390
    40      5.739350
    41      2.308390
    42      2.308390
    43      5.739350
    44      2.308390
    45      2.308390
    46      5.739350
    47      2.308390
    48      2.308390
    49      5.739350
    50      2.308390
    51      2.308390
    52      5.739350
    53      2.308390
    54      2.308390
    55      5.739350
    56      2.308390
    57      2.308390
    58      5.739350
    59      2.308390
    60      2.308390
    61      5.739350
    62      2.308390
    63      2.308390
    64      5.739350
    65      2.308390
    66      2.308390
    67      5.739350
    68      2.308390
    69      2.308390
    70      5.739350
    71      2.308390
    72      2.308390
    73      5.739350
    74      2.308390
    75      2.308390
    76      5.739350
    77      2.308390
    78      2.308390
    79      5.739350
    80      2.308390
    81      2.308390
    82      5.739350
    83      2.308390
    84      2.308390
    85      5.739350
    86      2.308390
    87      2.308390
    88      5.739350
    89      2.308390
    90      2.308390
    91      5.739350
    92      2.308390
    93      2.308390
    94      5.739350
    95      2.308390
    96      2.308390
    97      5.739350
    98      2.308390
    99      2.308390
   100      5.739350
   101      2.308390
   102      2.308390
   103      5.739350
   104      2.308390
   105      2.308390
   106      5.739350
   107      2.308390
   108      2.308390
   109      5.739350
   110      2.308390
   111      2.308390
   112      5.739350
   113      2.308390
   114      2.308390
   115      5.739350
   116      2.308390
   117      2.308390
   118      5.739350
   119      2.308390
   120      2.308390
   121      5.739350
   122      2.308390
   123      2.308390
   124      5.739350
   125      2.308390
   126      2.308390
   127      5.739350
   128      2.308390
   129      2.308390
   130      5.739350
   131      2.308390
   132      2.308390
   133      5.739350
   134      2.308390
   135      2.308390
   136      5.739350
   137      2.308390
   138      2.308390
   139      5.739350
   140      2.308390
   141      2.308390
   142      5.739350
   143      2.308390
   144      2.308390
   145      5.739350
   146      2.308390
   147      2.308390
   148      5.739350
   149      2.308390
   150      2.308390
   151      5.739350
   152      2.308390
   153      2.308390
   154      5.739350
   155      2.308390
   156      2.308390
   157      5.739350
   158      2.308390
   159      2.308390
   160      5.739350
   161      2.308390
   162      2.308390
   163      5.739350
   164      2.308390
   165      2.308390
   166      5.739350
   167      2.308390
   168      2.308390
   169      5.739350
   170      2.308390
   171      2.308390
   172      5.739350
   173      2.308390
   174      2.308390
   175      5.739350
   176      2.308390
   177      2.308390


     ************************************************************************
     ************************** Output from HERINT **************************
     ************************************************************************



                      Nuclear contribution to dipole moments
                      --------------------------------------

                 au               Debye          C m (/(10**-30)

      x    -17.03721516       -43.30427874      -144.44752555
      y      5.01300121        12.74177733        42.50199425
      z     46.89113683       119.18537391       397.55961408


  Time used in HUCKEL     is       0.15 seconds
  Time used in OVERLAP    is       0.34 seconds
  Time used in POPOVLP    is       0.21 seconds
  Time used in DIPLEN     is       0.41 seconds
  Time used in QUADRUP    is       2.35 seconds
  Time used in KINENE     is       0.30 seconds

 Threshold for neglecting two-electron integrals:  1.00D-12
 HERMIT - Number of two-electron integrals written:    28550724 ( 38.1% )
 HERMIT - Megabytes written:                            326.922

  Time used in TWOINT     is      14.76 seconds
  Total CPU  time used in HERMIT:  18.58 seconds
  Total wall time used in HERMIT:   6.56 seconds


                        .----------------------------------.
                        | End of Integral Section (HERMIT) |
                        `----------------------------------'



                   .--------------------------------------------.
                   | Starting in Wave Function Section (SIRIUS) |
                   `--------------------------------------------'

NCCEXCI for singlet:   15
 CCSD_INPUT: core-val requested
 Requested number of core orbs per sym
                     1
 Indices of requested core orbs
                     1

 *** Output from Huckel module :

     Using EWMO model:          T
     Using EHT  model:          F
     Number of Huckel orbitals each symmetry:   36

 EWMO - Energy Weighted Maximum Overlap - is a Huckel type method,
        which normally is better than Extended Huckel Theory.
 Reference: Linderberg and Ohrn, Propagators in Quantum Chemistry (Wiley, 1973)

 Huckel EWMO eigenvalues for symmetry :  1
          -20.684966     -20.684652     -20.684582     -20.684531     -15.674209
           -1.734721      -1.615761      -1.597537      -1.595017      -1.452606
           -0.806573      -0.795789      -0.792415      -0.778362      -0.753125
           -0.727742      -0.696475      -0.682746      -0.666265      -0.660867
           -0.620483      -0.614176      -0.601925      -0.586228      -0.502522
           -0.252282      -0.241608      -0.229175      -0.223120      -0.177575
           -0.176665      -0.171662      -0.169829      -0.156175      -0.145788
           -0.137648

 **********************************************************************
 *SIRIUS* a direct, restricted step, second order MCSCF program       *
 **********************************************************************

 
     Date and time (Linux)  : Sat Dec 22 15:38:16 2018
     Host name              : n-62-29-32                              

 Title lines from ".mol" input file:
                                                                             
                                                                             

 Print level on unit LUPRI =   2 is   0
 Print level on unit LUW4  =   2 is  11

@    (Integral direct) CC calculation.

@    This is a combination run starting with
@              a restricted, closed shell Hartree-Fock calculation


 Initial molecular orbitals are obtained according to
 ".MOSTART EWMO  " input option

@    QM part is embedded in an environment :

@         Model: QMMM

     Wave function specification
     ============================

     For the specification of the Coupled Cluster: see later.

@    Wave function type        --- CC ---
@    Number of closed shell electrons          50
@    Number of electrons in active shells       0
@    Total charge of the molecule               0

@    Spin multiplicity and 2 M_S                1         0
@    Total number of symmetries                 1 (point group: C1 )
@    Reference state symmetry                   1 (irrep name : A  )

     Orbital specifications
     ======================
@    Abelian symmetry species          All |    1
@                                          |  A  
                                       --- |  ---
@    Occupied SCF orbitals              25 |   25
@    Secondary orbitals                131 |  131
@    Total number of orbitals          156 |  156
@    Number of basis functions         156 |  156

     Optimization information
     ========================
@    Number of configurations                 1
@    Number of orbital rotations           3275
     ------------------------------------------
@    Total number of variables             3276

     Maximum number of Fock   iterations      0
     Maximum number of DIIS   iterations     60
     Maximum number of QC-SCF iterations     60
     Threshold for SCF convergence     1.00D-07


 Changes of defaults for CC:
 ---------------------------


 -Implicit frozen core calculation
 -Excitation energies calculated
 -One-photon absorption strengths will be calculated
 -Oscillator strengths calculated
  
* Read MO coefficients from SIRIUS.RST with label "NEWORB  " and header info: 22Dec18  REORTHO 


 ***********************************************
 ***** DIIS acceleration of SCF iterations *****
 ***********************************************

 C1-DIIS algorithm; max error vectors =    8
 -----------------------------------------------------------------------------

 *** DIIS iteration number    1
 RDSUPM called. NFMAT, ISYMDM(1:NFMAT)                     1
                     1

Calculating AOSUPINT
     (Precalculated two-electron integrals are transformed to P-supermatrix elements.
      Threshold for discarding integrals :  1.00D-12 )
  CPU  time used in FORMSUP    is   6.28 seconds
  WALL time used in FORMSUP    is  10.54 seconds

 ITDIIS, energy, error norm, change in energy, scr.thr., difden:
@ DIIS iter.   1    -359.916647358        3.83858D+00   -3.60D+02  -20    F

 (DIIS_RED) Control Parameters C2DIIS =         F NEVC =    1


 (DIIS_RED) B matrix:

               Column   1
       1      14.73473340
    ==== End of matrix output ====

 DIIS C vector; C2DIIS = F, LAMBDA = -1.47D+01
    1.000000
* Read MO coefficients from SIRIUS.RST with label "NEWORB  " and header info: 22Dec18  DIIS   1
      Virial theorem: -V/T =      1.997825
@      MULPOP N      -0.38; H       0.15; H       0.19; H       0.15; O      -0.81; O      -0.61; O      -0.61; O      -0.66; H       0.32; H       0.32; 
@             H       0.33; H       0.33; H       0.31; H       0.32; H       0.33; H       0.34; 
   1  Level shift: doubly occupied orbital energies shifted by -2.00D-01

 DIIS Fock eigenvalues in symmetry 1
      -20.72366      -20.71986      -20.70025      -20.57906      -15.95365
       -1.56064       -1.55129       -1.52206       -1.49513       -1.42538
       -0.94440       -0.94208       -0.93481       -0.91982       -0.90287
       -0.89197       -0.80650       -0.79201       -0.77053       -0.76532
       -0.75844       -0.74817       -0.72466       -0.71268       -0.69730
        0.11819        0.16091        0.17679        0.20421        0.22310
        0.26165        0.26597        0.28015        0.30384        0.33107
        0.33738        0.44723        0.45913        0.52260        0.52806
        0.56372        0.56816        0.57803        0.60804        0.61023
        0.62094        0.65224        0.82759        0.89953        0.93359
        0.95277        0.96199        0.98048        0.99350        0.99683
        1.02979        1.07114        1.08038        1.10519        1.12075
        1.13210        1.13743        1.22752        1.26627        1.28053
        1.31286        1.37242        1.40325        1.43632        1.45052
        1.46358        1.47991        1.49437        1.50674        1.51829
        1.52337        1.57012        1.66614        1.67835        1.68892
        1.70625        1.73977        1.80625        1.84873        1.86482
        1.88105        1.91210        1.95837        2.07823        2.14593
        2.15911        2.20261        2.21250        2.22646        2.27797
        2.30848        2.32774        2.34735        2.43248        2.47221
        2.56408        2.58968        2.61767        2.62999        2.64333
        2.69025        2.73698        2.76889        2.77833        2.81344
        2.88336        2.90569        2.91394        3.12193        3.33954
        3.37974        3.41896        3.42660        3.45172        3.49092
        3.50378        3.50644        3.50760        3.55231        3.64774
        3.65767        3.66601        3.71287        3.98295        3.99521
        4.00049        4.04250        4.19033        4.20658        4.21941
        4.26647        4.41686        5.07060        5.11853        5.30589
        5.37737        5.39373        5.40673        5.71630        5.74293
        5.78769        5.83138        6.09918        6.14334        6.14713
        6.19724       36.84228       51.55963       51.57056       51.57309
       51.70533
 Time used in FCKEIG, thr_jaco:   4.72D-01  4.80D-02  1.68D-04
 CPU and wall times used in FCKEIG, THR_FCKEIG:   4.72D-01  4.80D-02  3.84D-02
 -----------------------------------------------------------------------------

 *** DIIS iteration number    2
 RDSUPM called. NFMAT, ISYMDM(1:NFMAT)                     1
                     1

 ITDIIS, energy, error norm, change in energy, scr.thr., difden:
@ DIIS iter.   2    -360.727762530        9.27675D-01   -8.11D-01  -20    F

 (DIIS_RED) Control Parameters C2DIIS =         F NEVC =    2


 (DIIS_RED) B matrix:

               Column   1     Column   2
       1      14.73473340
       2       1.06419853     0.86058120
    ==== End of matrix output ====

 DIIS C vector; C2DIIS = F, LAMBDA = -8.58D-01
   -0.015120    1.015120
* Read MO coefficients from SIRIUS.RST with label "NEWORB  " and header info: 22Dec18  DIIS   2
      Virial theorem: -V/T =      2.003243
@      MULPOP N      -0.66; H       0.22; H       0.21; H       0.24; O      -0.70; O      -0.56; O      -0.55; O      -0.58; H       0.29; H       0.31; 
@             H       0.30; H       0.29; H       0.28; H       0.29; H       0.30; H       0.30; 
   2  Level shift: doubly occupied orbital energies shifted by -5.00D-02

 DIIS Fock eigenvalues in symmetry 1
      -20.66676      -20.62830      -20.61412      -20.60202      -15.45892
       -1.40091       -1.39780       -1.38675       -1.36181       -1.14283
       -0.76535       -0.76032       -0.75655       -0.72485       -0.66655
       -0.66135       -0.65067       -0.64021       -0.62851       -0.60752
       -0.59204       -0.58211       -0.56994       -0.54597       -0.44286
        0.15868        0.19240        0.21156        0.22358        0.24761
        0.28424        0.28774        0.30048        0.34558        0.36274
        0.38332        0.51264        0.51554        0.55657        0.57438
        0.60147        0.61076        0.61509        0.64449        0.65117
        0.65446        0.71255        0.90749        0.94411        0.96389
        0.97352        0.97955        1.00584        1.03758        1.04472
        1.06516        1.09062        1.10648        1.12262        1.14460
        1.15745        1.17213        1.28481        1.30308        1.33828
        1.37827        1.42192        1.44095        1.45435        1.51243
        1.52340        1.54051        1.54239        1.55956        1.56451
        1.56988        1.62153        1.71496        1.74084        1.74556
        1.75818        1.83224        1.87913        1.92489        1.92658
        1.94699        1.98132        2.03301        2.14419        2.24777
        2.25331        2.26515        2.27568        2.29258        2.29988
        2.37749        2.39263        2.41465        2.50469        2.55555
        2.62504        2.65287        2.67059        2.71432        2.72341
        2.76333        2.80301        2.83562        2.84677        2.86440
        2.99643        3.05645        3.06512        3.25668        3.44392
        3.44609        3.45025        3.47043        3.50120        3.52476
        3.52828        3.53471        3.53608        3.56616        3.67519
        3.68211        3.68625        3.69815        3.99843        4.00984
        4.02319        4.02987        4.21617        4.22706        4.23317
        4.24868        4.60965        5.27471        5.29516        5.30997
        5.34431        5.38082        5.40159        5.68527        5.71692
        5.74882        5.83381        6.11501        6.11832        6.16520
        6.17063       37.18101       51.47295       51.51376       51.52202
       51.52508
 Time used in FCKEIG, thr_jaco:   3.38D-01  3.40D-02  4.05D-05
 CPU and wall times used in FCKEIG, THR_FCKEIG:   3.38D-01  3.40D-02  9.28D-03
 -----------------------------------------------------------------------------

 *** DIIS iteration number    3
 RDSUPM called. NFMAT, ISYMDM(1:NFMAT)                     1
                     1

 ITDIIS, energy, error norm, change in energy, scr.thr., difden:
@ DIIS iter.   3    -360.789175231        3.31668D-01   -6.14D-02  -20    F

 (DIIS_RED) Control Parameters C2DIIS =         F NEVC =    3


 (DIIS_RED) B matrix:

               Column   1     Column   2     Column   3
       1      14.73473340
       2       1.06419853     0.86058120
       3       0.61301587     0.07245953     0.11000346
    ==== End of matrix output ====

 DIIS C vector; C2DIIS = F, LAMBDA = -8.76D-02
   -0.039404    0.068795    0.970609
* Read MO coefficients from SIRIUS.RST with label "NEWORB  " and header info: 22Dec18  DIIS   3
      Virial theorem: -V/T =      2.001323
@      MULPOP N      -0.59; H       0.19; H       0.19; H       0.23; O      -0.78; O      -0.61; O      -0.59; O      -0.64; H       0.36; H       0.35; 
@             H       0.33; H       0.31; H       0.30; H       0.31; H       0.32; H       0.33; 
   3  Level shift: doubly occupied orbital energies shifted by -2.50D-02

 DIIS Fock eigenvalues in symmetry 1
      -20.56329      -20.55959      -20.53928      -20.51936      -15.56653
       -1.35989       -1.34981       -1.33370       -1.32300       -1.15314
       -0.72450       -0.72151       -0.70183       -0.68544       -0.65054
       -0.64141       -0.60615       -0.59973       -0.58968       -0.56877
       -0.53449       -0.52381       -0.51984       -0.50105       -0.44151
        0.16303        0.19564        0.21635        0.22781        0.25026
        0.28997        0.29014        0.30309        0.34567        0.36541
        0.38311        0.51428        0.51496        0.56650        0.58338
        0.60867        0.61834        0.62298        0.65290        0.66052
        0.66321        0.71482        0.91085        0.95581        0.98460
        0.98801        0.99302        1.02200        1.03473        1.04133
        1.06821        1.10217        1.11674        1.13368        1.15622
        1.16917        1.18188        1.28775        1.31226        1.34341
        1.37954        1.42874        1.44912        1.46487        1.52339
        1.53469        1.55094        1.55221        1.56987        1.57483
        1.58019        1.62836        1.72603        1.74788        1.75413
        1.76802        1.83428        1.88395        1.92869        1.93642
        1.95286        1.98555        2.03656        2.15016        2.24811
        2.25455        2.26884        2.28393        2.29460        2.31883
        2.38981        2.40467        2.42881        2.51988        2.55738
        2.63555        2.66355        2.67932        2.71865        2.72793
        2.76862        2.81191        2.84302        2.85403        2.87232
        2.99227        3.03084        3.03962        3.23688        3.46130
        3.47105        3.47891        3.48803        3.50641        3.52703
        3.54905        3.55444        3.55539        3.55976        3.70105
        3.70761        3.71515        3.72582        4.02711        4.04362
        4.04441        4.05353        4.23950        4.25256        4.26699
        4.28186        4.55075        5.22922        5.28267        5.33826
        5.37138        5.40767        5.42359        5.74046        5.75934
        5.77154        5.85905        6.14441        6.18293        6.19310
        6.19388       37.05256       51.55039       51.55628       51.56162
       51.59441
 Time used in FCKEIG, thr_jaco:   2.81D-01  2.90D-02  1.45D-05
 CPU and wall times used in FCKEIG, THR_FCKEIG:   2.81D-01  2.90D-02  3.32D-03
 -----------------------------------------------------------------------------

 *** DIIS iteration number    4
 RDSUPM called. NFMAT, ISYMDM(1:NFMAT)                     1
                     1

 ITDIIS, energy, error norm, change in energy, scr.thr., difden:
@ DIIS iter.   4    -360.796992694        1.18462D-01   -7.82D-03  -20    F

 (DIIS_RED) Control Parameters C2DIIS =         F NEVC =    4


 (DIIS_RED) B matrix:

               Column   1     Column   2     Column   3     Column   4
       1      14.73473340
       2       1.06419853     0.86058120
       3       0.61301587     0.07245953     0.11000346
       4      -0.00502300     0.07883875    -0.00915468     0.01403313
    ==== End of matrix output ====

 DIIS C vector; C2DIIS = F, LAMBDA = -3.87D-03
    0.000219   -0.094758    0.173099    0.921440
* Read MO coefficients from SIRIUS.RST with label "NEWORB  " and header info: 22Dec18  DIIS   4
      Virial theorem: -V/T =      2.002129
@      MULPOP N      -0.67; H       0.21; H       0.21; H       0.25; O      -0.78; O      -0.62; O      -0.60; O      -0.65; H       0.36; H       0.35; 
@             H       0.33; H       0.32; H       0.30; H       0.31; H       0.33; H       0.34; 
   4  Level shift: doubly occupied orbital energies shifted by -1.25D-02

 DIIS Fock eigenvalues in symmetry 1
      -20.56176      -20.55487      -20.54602      -20.53924      -15.51672
       -1.35164       -1.34070       -1.33393       -1.31558       -1.12861
       -0.71527       -0.71191       -0.69811       -0.67701       -0.62893
       -0.61962       -0.59705       -0.59448       -0.57804       -0.55834
       -0.52242       -0.51653       -0.51122       -0.48966       -0.41671
        0.16339        0.19471        0.21588        0.22597        0.25028
        0.28978        0.29015        0.30312        0.34772        0.36645
        0.38607        0.51769        0.51888        0.56632        0.58403
        0.60813        0.61708        0.62232        0.65108        0.65941
        0.66095        0.71742        0.91429        0.95693        0.98199
        0.98791        0.99327        1.02066        1.03881        1.04455
        1.07063        1.10089        1.11612        1.13216        1.15446
        1.16904        1.17993        1.28907        1.31131        1.34510
        1.38327        1.43005        1.44891        1.46316        1.52156
        1.53308        1.54859        1.54985        1.56886        1.57299
        1.57890        1.62732        1.72425        1.74733        1.75285
        1.76683        1.83820        1.88490        1.92955        1.93506
        1.95204        1.98751        2.03965        2.15193        2.25377
        2.25671        2.26818        2.28378        2.29550        2.31252
        2.38746        2.40104        2.42618        2.51862        2.56062
        2.63370        2.66196        2.67754        2.72007        2.73010
        2.77152        2.81094        2.84140        2.85284        2.87161
        2.99842        3.04321        3.05176        3.24674        3.46182
        3.46941        3.47746        3.48230        3.50846        3.53861
        3.54412        3.54698        3.55284        3.55742        3.69918
        3.70387        3.70775        3.71916        4.02239        4.03513
        4.04129        4.04851        4.23682        4.24844        4.26211
        4.27273        4.57066        5.24701        5.29876        5.33547
        5.35175        5.40247        5.41829        5.73042        5.74434
        5.76799        5.85318        6.13753        6.16312        6.18778
        6.18918       37.08917       51.54148       51.54614       51.54990
       51.55630
 Time used in FCKEIG, thr_jaco:   2.87D-01  2.90D-02  5.18D-06
 CPU and wall times used in FCKEIG, THR_FCKEIG:   2.87D-01  2.90D-02  1.18D-03
 -----------------------------------------------------------------------------

 *** DIIS iteration number    5
 RDSUPM called. NFMAT, ISYMDM(1:NFMAT)                     1
                     1

 ITDIIS, energy, error norm, change in energy, scr.thr., difden:
@ DIIS iter.   5    -360.798078667        2.33214D-02   -1.09D-03  -20    F

 (DIIS_RED) Control Parameters C2DIIS =         F NEVC =    5


 (DIIS_RED) B matrix:

               Column   1     Column   2     Column   3     Column   4     Column   5
       1      14.73473340
       2       1.06419853     0.86058120
       3       0.61301587     0.07245953     0.11000346
       4      -0.00502300     0.07883875    -0.00915468     0.01403313
       5       0.01326269     0.00650235     0.00477291     0.00070644     0.00054389
    ==== End of matrix output ====

 DIIS C vector; C2DIIS = F, LAMBDA = -2.78D-04
    0.001376    0.007728   -0.072970   -0.130894    1.194760
* Read MO coefficients from SIRIUS.RST with label "NEWORB  " and header info: 22Dec18  DIIS   5
      Virial theorem: -V/T =      2.001768
@      MULPOP N      -0.66; H       0.21; H       0.21; H       0.25; O      -0.79; O      -0.63; O      -0.61; O      -0.66; H       0.37; H       0.36; 
@             H       0.34; H       0.32; H       0.31; H       0.31; H       0.33; H       0.34; 

 DIIS Fock eigenvalues in symmetry 1
      -20.54746      -20.54121      -20.52792      -20.52444      -15.50134
       -1.33839       -1.32780       -1.31942       -1.30242       -1.11537
       -0.70271       -0.69947       -0.68461       -0.66440       -0.61586
       -0.60677       -0.58315       -0.58147       -0.56547       -0.54561
       -0.50833       -0.50130       -0.49750       -0.47576       -0.40287
        0.16338        0.19452        0.21583        0.22586        0.25015
        0.28967        0.29017        0.30307        0.34801        0.36663
        0.38622        0.51791        0.51907        0.56638        0.58433
        0.60804        0.61687        0.62239        0.65093        0.65945
        0.66095        0.71771        0.91517        0.95772        0.98307
        0.98870        0.99407        1.02191        1.03934        1.04509
        1.07120        1.10111        1.11639        1.13233        1.15474
        1.16949        1.18022        1.28940        1.31171        1.34540
        1.38375        1.43042        1.44944        1.46371        1.52125
        1.53297        1.54822        1.54966        1.56891        1.57304
        1.57870        1.62751        1.72426        1.74708        1.75255
        1.76681        1.83824        1.88475        1.92934        1.93474
        1.95162        1.98758        2.03980        2.15205        2.25364
        2.25679        2.26802        2.28347        2.29548        2.31275
        2.38713        2.40076        2.42613        2.51898        2.56087
        2.63325        2.66177        2.67725        2.71995        2.72997
        2.77140        2.81048        2.84071        2.85226        2.87129
        2.99878        3.04377        3.05233        3.24726        3.46231
        3.47007        3.47937        3.48301        3.50940        3.53943
        3.54505        3.54824        3.55313        3.55817        3.69947
        3.70442        3.70926        3.72013        4.02308        4.03672
        4.04164        4.04913        4.23732        4.24910        4.26321
        4.27409        4.57208        5.24820        5.30004        5.33642
        5.35502        5.40376        5.41963        5.73246        5.74622
        5.76855        5.85425        6.13838        6.16586        6.18847
        6.18954       37.09199       51.54297       51.54789       51.55197
       51.56168
 Time used in FCKEIG, thr_jaco:   2.52D-01  2.60D-02  1.02D-06
 CPU and wall times used in FCKEIG, THR_FCKEIG:   2.52D-01  2.60D-02  2.33D-04
 -----------------------------------------------------------------------------

 *** DIIS iteration number    6
 RDSUPM called. NFMAT, ISYMDM(1:NFMAT)                     1
                     1

 ITDIIS, energy, error norm, change in energy, scr.thr., difden:
@ DIIS iter.   6    -360.798158544        6.98840D-03   -7.99D-05  -20    F

 (DIIS_RED) Control Parameters C2DIIS =         F NEVC =    6


 (DIIS_RED) B matrix:

               Column   1     Column   2     Column   3     Column   4     Column   5     Column   6
       1      14.73473340
       2       1.06419853     0.86058120
       3       0.61301587     0.07245953     0.11000346
       4      -0.00502300     0.07883875    -0.00915468     0.01403313
       5       0.01326269     0.00650235     0.00477291     0.00070644     0.00054389
       6      -0.00262755    -0.00033111     0.00047512     0.00015410     0.00006581     0.00004884
    ==== End of matrix output ====

 DIIS C vector; C2DIIS = F, LAMBDA = -3.02D-05
    0.000456    0.007097   -0.022604   -0.069446    0.133061    0.951436
* Read MO coefficients from SIRIUS.RST with label "NEWORB  " and header info: 22Dec18  DIIS   6
      Virial theorem: -V/T =      2.001900
@      MULPOP N      -0.65; H       0.21; H       0.21; H       0.25; O      -0.80; O      -0.63; O      -0.61; O      -0.66; H       0.37; H       0.36; 
@             H       0.34; H       0.32; H       0.31; H       0.32; H       0.34; H       0.34; 

 DIIS Fock eigenvalues in symmetry 1
      -20.54802      -20.54161      -20.52976      -20.52564      -15.50443
       -1.33850       -1.32788       -1.31986       -1.30279       -1.11637
       -0.70294       -0.69968       -0.68514       -0.66482       -0.61667
       -0.60761       -0.58363       -0.58187       -0.56575       -0.54617
       -0.50834       -0.50155       -0.49748       -0.47603       -0.40371
        0.16329        0.19440        0.21574        0.22576        0.25005
        0.28956        0.29010        0.30295        0.34785        0.36649
        0.38595        0.51764        0.51874        0.56629        0.58407
        0.60784        0.61673        0.62221        0.65075        0.65933
        0.66073        0.71742        0.91476        0.95739        0.98290
        0.98851        0.99394        1.02164        1.03882        1.04459
        1.07088        1.10088        1.11617        1.13205        1.15447
        1.16935        1.17993        1.28908        1.31154        1.34517
        1.38328        1.43009        1.44910        1.46337        1.52107
        1.53278        1.54795        1.54940        1.56873        1.57279
        1.57854        1.62721        1.72407        1.74679        1.75235
        1.76660        1.83786        1.88446        1.92902        1.93458
        1.95135        1.98728        2.03944        2.15175        2.25315
        2.25628        2.26759        2.28318        2.29507        2.31241
        2.38693        2.40041        2.42591        2.51864        2.56040
        2.63307        2.66154        2.67705        2.71960        2.72962
        2.77108        2.81027        2.84045        2.85201        2.87114
        2.99817        3.04278        3.05136        3.24643        3.46205
        3.46984        3.47879        3.48243        3.50854        3.53847
        3.54455        3.54775        3.55296        3.55767        3.69932
        3.70397        3.70884        3.71982        4.02258        4.03620
        4.04145        4.04888        4.23712        4.24862        4.26286
        4.27365        4.57042        5.24667        5.29864        5.33611
        5.35406        5.40339        5.41899        5.73183        5.74561
        5.76831        5.85356        6.13768        6.16493        6.18815
        6.18928       37.08897       51.54249       51.54723       51.55094
       51.55990
 Time used in FCKEIG, thr_jaco:   2.69D-01  2.70D-02  3.05D-07
 CPU and wall times used in FCKEIG, THR_FCKEIG:   2.69D-01  2.70D-02  6.99D-05
 -----------------------------------------------------------------------------

 *** DIIS iteration number    7
 RDSUPM called. NFMAT, ISYMDM(1:NFMAT)                     1
                     1

 ITDIIS, energy, error norm, change in energy, scr.thr., difden:
@ DIIS iter.   7    -360.798163693        2.37528D-03   -5.15D-06  -20    F

 (DIIS_RED) Control Parameters C2DIIS =         F NEVC =    7


 (DIIS_RED) B matrix:

               Column   1     Column   2     Column   3     Column   4     Column   5     Column   6
       1      14.73473340
       2       1.06419853     0.86058120
       3       0.61301587     0.07245953     0.11000346
       4      -0.00502300     0.07883875    -0.00915468     0.01403313
       5       0.01326269     0.00650235     0.00477291     0.00070644     0.00054389
       6      -0.00262755    -0.00033111     0.00047512     0.00015410     0.00006581     0.00004884
       7       0.00094003     0.00002973     0.00007832    -0.00000544     0.00003209    -0.00000053

               Column   7
       7       0.00000564
    ==== End of matrix output ====

 DIIS C vector; C2DIIS = F, LAMBDA = -1.11D-06
   -0.000222   -0.001434    0.010249    0.022798   -0.165888    0.064493    1.070005
* Read MO coefficients from SIRIUS.RST with label "NEWORB  " and header info: 22Dec18  DIIS   7
      Virial theorem: -V/T =      2.001866
@      MULPOP N      -0.66; H       0.21; H       0.21; H       0.25; O      -0.80; O      -0.63; O      -0.61; O      -0.66; H       0.37; H       0.36; 
@             H       0.34; H       0.32; H       0.31; H       0.32; H       0.34; H       0.34; 

 DIIS Fock eigenvalues in symmetry 1
      -20.54789      -20.54153      -20.52911      -20.52532      -15.50378
       -1.33843       -1.32781       -1.31956       -1.30266       -1.11616
       -0.70292       -0.69966       -0.68493       -0.66475       -0.61653
       -0.60750       -0.58347       -0.58182       -0.56576       -0.54614
       -0.50822       -0.50122       -0.49739       -0.47586       -0.40347
        0.16332        0.19443        0.21576        0.22581        0.25006
        0.28957        0.29012        0.30298        0.34789        0.36656
        0.38598        0.51772        0.51881        0.56632        0.58418
        0.60788        0.61674        0.62227        0.65078        0.65936
        0.66080        0.71751        0.91490        0.95750        0.98302
        0.98859        0.99401        1.02181        1.03894        1.04472
        1.07096        1.10095        1.11624        1.13212        1.15455
        1.16940        1.17999        1.28919        1.31162        1.34524
        1.38338        1.43018        1.44923        1.46350        1.52107
        1.53281        1.54795        1.54944        1.56876        1.57286
        1.57855        1.62733        1.72415        1.74682        1.75237
        1.76666        1.83790        1.88450        1.92906        1.93459
        1.95136        1.98735        2.03953        2.15185        2.25321
        2.25635        2.26764        2.28320        2.29512        2.31254
        2.38693        2.40043        2.42593        2.51877        2.56048
        2.63306        2.66157        2.67713        2.71963        2.72964
        2.77111        2.81027        2.84044        2.85200        2.87124
        2.99828        3.04297        3.05154        3.24658        3.46212
        3.46991        3.47907        3.48257        3.50875        3.53867
        3.54471        3.54797        3.55302        3.55780        3.69937
        3.70410        3.70907        3.71996        4.02272        4.03645
        4.04151        4.04897        4.23720        4.24876        4.26302
        4.27387        4.57079        5.24698        5.29893        5.33620
        5.35448        5.40351        5.41917        5.73208        5.74584
        5.76837        5.85374        6.13786        6.16533        6.18823
        6.18934       37.08960       51.54259       51.54740       51.55120
       51.56053
 Time used in FCKEIG, thr_jaco:   2.62D-01  2.70D-02  1.04D-07
 CPU and wall times used in FCKEIG, THR_FCKEIG:   2.62D-01  2.70D-02  2.38D-05
 -----------------------------------------------------------------------------

 *** DIIS iteration number    8
 RDSUPM called. NFMAT, ISYMDM(1:NFMAT)                     1
                     1

 ITDIIS, energy, error norm, change in energy, scr.thr., difden:
@ DIIS iter.   8    -360.798164231        3.37208D-04   -5.38D-07  -20    F

 (DIIS_RED) Control Parameters C2DIIS =         F NEVC =    8


 (DIIS_RED) B matrix:

               Column   1     Column   2     Column   3     Column   4     Column   5     Column   6
       1      14.73473340
       2       1.06419853     0.86058120
       3       0.61301587     0.07245953     0.11000346
       4      -0.00502300     0.07883875    -0.00915468     0.01403313
       5       0.01326269     0.00650235     0.00477291     0.00070644     0.00054389
       6      -0.00262755    -0.00033111     0.00047512     0.00015410     0.00006581     0.00004884
       7       0.00094003     0.00002973     0.00007832    -0.00000544     0.00003209    -0.00000053
       8      -0.00000694    -0.00000175    -0.00000342     0.00000436     0.00000068     0.00000129

               Column   7     Column   8
       7       0.00000564
       8       0.00000018     0.00000011
    ==== End of matrix output ====

 DIIS C vector; C2DIIS = F, LAMBDA = -5.43D-08
    0.000022    0.000118   -0.001279   -0.002823    0.027914   -0.046912   -0.181460    1.204420
* Read MO coefficients from SIRIUS.RST with label "NEWORB  " and header info: 22Dec18  DIIS   8
      Virial theorem: -V/T =      2.001884
@      MULPOP N      -0.66; H       0.21; H       0.21; H       0.25; O      -0.80; O      -0.63; O      -0.61; O      -0.66; H       0.37; H       0.36; 
@             H       0.34; H       0.32; H       0.31; H       0.32; H       0.34; H       0.34; 

 DIIS Fock eigenvalues in symmetry 1
      -20.54789      -20.54153      -20.52912      -20.52539      -15.50382
       -1.33843       -1.32781       -1.31956       -1.30268       -1.11617
       -0.70291       -0.69966       -0.68493       -0.66477       -0.61654
       -0.60751       -0.58348       -0.58183       -0.56578       -0.54618
       -0.50821       -0.50122       -0.49739       -0.47588       -0.40348
        0.16332        0.19442        0.21576        0.22581        0.25006
        0.28957        0.29011        0.30298        0.34789        0.36656
        0.38597        0.51772        0.51880        0.56632        0.58416
        0.60787        0.61673        0.62226        0.65077        0.65935
        0.66080        0.71750        0.91489        0.95749        0.98301
        0.98858        0.99401        1.02180        1.03893        1.04471
        1.07095        1.10095        1.11623        1.13212        1.15454
        1.16940        1.17997        1.28918        1.31161        1.34524
        1.38337        1.43016        1.44922        1.46350        1.52107
        1.53280        1.54794        1.54943        1.56875        1.57285
        1.57855        1.62732        1.72415        1.74681        1.75236
        1.76665        1.83789        1.88449        1.92905        1.93458
        1.95135        1.98734        2.03951        2.15183        2.25319
        2.25634        2.26762        2.28320        2.29511        2.31255
        2.38693        2.40041        2.42592        2.51875        2.56047
        2.63306        2.66157        2.67712        2.71962        2.72963
        2.77109        2.81026        2.84043        2.85199        2.87123
        2.99827        3.04295        3.05153        3.24656        3.46212
        3.46990        3.47906        3.48255        3.50873        3.53865
[...]

 Principal values of diagonalized transition strength matrix:

             a.u.               
 1      -0.00000000
 2       0.00000000
 3       0.00003136

 Principal axis of diagonalized transition strength matrix:


               Column   1     Column   2     Column   3
       1      -0.45187813     0.75600887    -0.47355754
       2      -0.35633490     0.33369045     0.87274058
       3       0.81782125     0.56311746     0.11860492
    ==== End of matrix output ====


 CCSD   oscillator strength matrix for state nr. 13 of symmetry 1
 CCSD  excitation energy:15.12572129


               Column   1     Column   2     Column   3
       1     7.091499D-05  -1.306977D-04  -1.775789D-05
       2    -1.306977D-04   2.408646D-04   3.273639D-05
       3    -1.775789D-05   3.273639D-05   4.441883D-06
    ==== End of matrix output ====

 Principal values of diagonalized oscillator strength matrix:

             a.u.               
 1      -0.00000001
 2       0.00000000
 3       0.00031623

 Principal axis of diagonalized oscillator strength matrix:


               Column   1     Column   2     Column   3
       1      -0.45187813     0.75600887    -0.47355754
       2      -0.35633490     0.33369045     0.87274058
       3       0.81782125     0.56311746     0.11860492
    ==== End of matrix output ====


 CCSD  Transition strength matrix for state nr. 14 of symmetry 1
 CCSD  excitation energy:15.19847766

 Gauge: length

               Column   1     Column   2     Column   3
       1     1.364038D-04  -1.133103D-04  -6.666965D-05
       2    -1.133103D-04   9.412657D-05   5.538233D-05
       3    -6.666965D-05   5.538233D-05   3.258591D-05
    ==== End of matrix output ====

 Principal values of diagonalized transition strength matrix:

             a.u.               
 1      -0.00000000
 2      -0.00000000
 3       0.00026312

 Principal axis of diagonalized transition strength matrix:


               Column   1     Column   2     Column   3
       1      -0.04352849     0.69259582     0.72001132
       2      -0.54503961     0.58753233    -0.59811168
       3       0.83727958     0.41846959    -0.35191776
    ==== End of matrix output ====


 CCSD   oscillator strength matrix for state nr. 14 of symmetry 1
 CCSD  excitation energy:15.19847766


               Column   1     Column   2     Column   3
       1       0.00138209    -0.00114810    -0.00067552
       2      -0.00114810     0.00095372     0.00056115
       3      -0.00067552     0.00056115     0.00033017
    ==== End of matrix output ====

 Principal values of diagonalized oscillator strength matrix:

             a.u.               
 1      -0.00000000
 2      -0.00000000
 3       0.00266598

 Principal axis of diagonalized oscillator strength matrix:


               Column   1     Column   2     Column   3
       1      -0.04352849     0.69259582     0.72001132
       2      -0.54503961     0.58753233    -0.59811168
       3       0.83727958     0.41846959    -0.35191776
    ==== End of matrix output ====


 CCSD  Transition strength matrix for state nr. 15 of symmetry 1
 CCSD  excitation energy:15.26533852

 Gauge: length

               Column   1     Column   2     Column   3
       1     9.207632D-06  -1.949053D-06  -4.918569D-05
       2    -1.949053D-06   4.116671D-07   1.041783D-05
       3    -4.918569D-05   1.041783D-05   2.626981D-04
    ==== End of matrix output ====

 Principal values of diagonalized transition strength matrix:

             a.u.               
 1      -0.00000000
 2       0.00000000
 3       0.00027232

 Principal axis of diagonalized transition strength matrix:


               Column   1     Column   2     Column   3
       1      -0.69453560     0.69555972    -0.18389392
       2       0.70192308     0.71118701     0.03894890
       3      -0.15787425     0.10202799     0.98217412
    ==== End of matrix output ====


 CCSD   oscillator strength matrix for state nr. 15 of symmetry 1
 CCSD  excitation energy:15.26533852


               Column   1     Column   2     Column   3
       1       0.00009371    -0.00001984    -0.00050056
       2      -0.00001984     0.00000419     0.00010602
       3      -0.00050056     0.00010602     0.00267345
    ==== End of matrix output ====

 Principal values of diagonalized oscillator strength matrix:

             a.u.               
 1      -0.00000003
 2      -0.00000000
 3       0.00277137

 Principal axis of diagonalized oscillator strength matrix:


               Column   1     Column   2     Column   3
       1      -0.69453560     0.69555972    -0.18389392
       2       0.70192308     0.71118701     0.03894890
       3      -0.15787425     0.10202799     0.98217412
    ==== End of matrix output ====

  Total time for    135 linear response residues:     149.25 seconds.
  

 *******************************************************************************
 *******************************************************************************
 *                                                                             *
 *                                                                             *
 *                   SUMMARY OF COUPLED CLUSTER CALCULATION                    *
 *                                                                             *
 *                                                                             *
 *******************************************************************************
 *******************************************************************************

                                                                                
                                                                                
            Total SCF   energy:                  -360.7981642483                
            Total MP2   energy:                  -361.8959159148                
            Total CCSD  energy:                  -361.9358690677                
                                                                                
                                                                                
            Total SCF   energy:                  -360.7981642483                
            Total RSTAR energy:                  -361.9358690677                
            Total CCSD  energy:                  -361.9360034401                
                                                                                
                                                                                
            Total SCF   energy:                  -360.7981642483                
            Total RSTAR energy:                  -361.9360034401                
            Total CCSD  energy:                  -361.9360052449                
                                                                                
                                                                                
            Total SCF   energy:                  -360.7981642483                
            Total RSTAR energy:                  -361.9360052449                
            Total CCSD  energy:                  -361.9360053856                
                                                                                
                                                                                
            Total SCF   energy:                  -360.7981642483                
            Total RSTAR energy:                  -361.9360053856                
            Total CCSD  energy:                  -361.9360053940                
                                                                                
                                                                                
            Total SCF   energy:                  -360.7981642483                
            Total RSTAR energy:                  -361.9360053940                
            Total CCSD  energy:                  -361.9360053945                
            CCSD Total  energy:                  -362.3574198014                
            CCSD E(QM/MM)     :                    -0.4164121847                
                                                                                
                                                                                
                                                                                
 +=============================================================================+
 |  sym. | Exci.  |        CCSD       Excitation energies            | ||T1||  |
 |(spin, |        +------------------------------------------------------------+
 | spat) |        |     Hartree    |       eV.      |     cm-1       |    %    |
 +=============================================================================+
 | ^1A   |    1   |    14.8229989  |     403.35432  |   3253272.191  |  88.42  |
 | ^1A   |    2   |    14.8796369  |     404.89552  |   3265702.792  |  88.84  |
 | ^1A   |    3   |    14.9102707  |     405.72911  |   3272426.145  |  88.77  |
 | ^1A   |    4   |    14.9443650  |     406.65686  |   3279908.974  |  88.46  |
 | ^1A   |    5   |    14.9779324  |     407.57027  |   3287276.169  |  88.12  |
 | ^1A   |    6   |    15.0022569  |     408.23218  |   3292614.774  |  88.10  |
 | ^1A   |    7   |    15.0180369  |     408.66157  |   3296078.073  |  88.26  |
 | ^1A   |    8   |    15.0208455  |     408.73800  |   3296694.505  |  88.12  |
 | ^1A   |    9   |    15.0405114  |     409.27314  |   3301010.675  |  88.09  |
 | ^1A   |   10   |    15.0522649  |     409.59296  |   3303590.255  |  88.03  |
 | ^1A   |   11   |    15.0602872  |     409.81126  |   3305350.949  |  88.06  |
 | ^1A   |   12   |    15.1041837  |     411.00575  |   3314985.120  |  88.03  |
 | ^1A   |   13   |    15.1257213  |     411.59181  |   3319712.074  |  88.06  |
 | ^1A   |   14   |    15.1984777  |     413.57161  |   3335680.250  |  87.96  |
 | ^1A   |   15   |    15.2653385  |     415.39099  |   3350354.513  |  88.06  |
 +=============================================================================+
                                                                                
                                                                                
     Total energies in Hartree:                                                 
             1 ^1A       -347.1180087070                                        
             2 ^1A       -347.0613707213                                        
             3 ^1A       -347.0307368713                                        
             4 ^1A       -346.9966425957                                        
             5 ^1A       -346.9630751817                                        
             6 ^1A       -346.9387507083                                        
             7 ^1A       -346.9229707571                                        
             8 ^1A       -346.9201620849                                        
             9 ^1A       -346.9004961700                                        
            10 ^1A       -346.8887427369                                        
            11 ^1A       -346.8807204262                                        
            12 ^1A       -346.8368239137                                        
            13 ^1A       -346.8152863256                                        
            14 ^1A       -346.7425299605                                        
            15 ^1A       -346.6756691000                                        
                                                                                
                                                                                
 +=============================================================================+
 |  sym. | Exci.  |        CCSD       Length   Gauge Oscillator Strength       |
 |(spin, |        +------------------------------------------------------------+
 | spat) |        | Dipole Strength(a.u.) | Oscillator strength  | Direction   |
 +=============================================================================+
 | ^1A   |    1   |        0.0005106      |      0.0050458       |  (Y,Z)      |
 | ^1A   |    2   |        0.0032582      |      0.0323205       |  (Y,Z)      |
 | ^1A   |    3   |        0.0028785      |      0.0286131       |  (Y,Z)      |
 | ^1A   |    4   |        0.0017089      |      0.0170253       |  (Y,Z)      |
 | ^1A   |    5   |        0.0004542      |      0.0045349       |  (Y,Z)      |
 | ^1A   |    6   |        0.0007320      |      0.0073212       |  (Y,Z)      |
 | ^1A   |    7   |        0.0008644      |      0.0086548       |  (Y,Z)      |
 | ^1A   |    8   |        0.0001953      |      0.0019555       |  (Y,Z)      |
 | ^1A   |    9   |        0.0005678      |      0.0056933       |  (Y,Z)      |
 | ^1A   |   10   |        0.0000793      |      0.0007955       |  (Y,Z)      |
 | ^1A   |   11   |        0.0003169      |      0.0031818       |  (Y,Z)      |
 | ^1A   |   12   |        0.0003650      |      0.0036758       |  (Y,Z)      |
 | ^1A   |   13   |        0.0000314      |      0.0003162       |  (Y,Z)      |
 | ^1A   |   14   |        0.0002631      |      0.0026660       |  (Y,Z)      |
 | ^1A   |   15   |        0.0002723      |      0.0027713       |  (Y,Z)      |
 +=============================================================================+

  1 a.u. =        27.21138 eV.  
  1 a.u. =    219474.62934 cm-1.
  

 *******************************************************************************
 *******************************************************************************
 *                                                                             *
 *                                                                             *
 *                      END OF COUPLED CLUSTER CALCULATION                     *
 *                                                                             *
 *                                                                             *
 *******************************************************************************
 *******************************************************************************


 CPU and wall time for CC :  590518.868  108283.298

 
     Date and time (Linux)  : Sun Dec 23 21:45:22 2018
     Host name              : n-62-29-32                              


                      .-------------------------------------.
                      | End of Coupled Cluster Section (CC) |
                      `-------------------------------------'

  Total CPU  time used in DALTON: 164 hours 12 minutes 32 seconds
  Total wall time used in DALTON:  30 hours  7 minutes 14 seconds

 
     Date and time (Linux)  : Sun Dec 23 21:45:22 2018
     Host name              : n-62-29-32                              
  

 +---------------------------------------------------------+ 
 | List of selected calculated molecular properties (a.u.) | 
 +---------------------------------------------------------+ 

  Properties are read from unit number                      4

 CCSD       properties :
 #  1 1 CCSD/MM  Ground state Energy =    -362.3574198014
 #  2 1 E_QM/MM  Ground state Energy =      -0.4164121847
 #  3 1 Sy: 1 Sp: 1 Exc:  1 E_tot:   -347.1180087070 w:     14.8229989097 E_grs:   -361.9410076167
 #  4 1 Exctot   Excited state Energy =    -347.1180087070
 #  5 1 Sy: 1 Sp: 1 Exc:  2 E_tot:   -347.0613707213 w:     14.8796368954 E_grs:   -361.9410076167
 #  6 1 Exctot   Excited state Energy =    -347.0613707213
 #  7 1 Sy: 1 Sp: 1 Exc:  3 E_tot:   -347.0307368713 w:     14.9102707454 E_grs:   -361.9410076167
 #  8 1 Exctot   Excited state Energy =    -347.0307368713
 #  9 1 Sy: 1 Sp: 1 Exc:  4 E_tot:   -346.9966425957 w:     14.9443650210 E_grs:   -361.9410076167
 # 10 1 Exctot   Excited state Energy =    -346.9966425957
 # 11 1 Sy: 1 Sp: 1 Exc:  5 E_tot:   -346.9630751817 w:     14.9779324350 E_grs:   -361.9410076167
 # 12 1 Exctot   Excited state Energy =    -346.9630751817
 # 13 1 Sy: 1 Sp: 1 Exc:  6 E_tot:   -346.9387507083 w:     15.0022569084 E_grs:   -361.9410076167
 # 14 1 Exctot   Excited state Energy =    -346.9387507083
 # 15 1 Sy: 1 Sp: 1 Exc:  7 E_tot:   -346.9229707571 w:     15.0180368596 E_grs:   -361.9410076167
 # 16 1 Exctot   Excited state Energy =    -346.9229707571
 # 17 1 Sy: 1 Sp: 1 Exc:  8 E_tot:   -346.9201620849 w:     15.0208455317 E_grs:   -361.9410076167
 # 18 1 Exctot   Excited state Energy =    -346.9201620849
 # 19 1 Sy: 1 Sp: 1 Exc:  9 E_tot:   -346.9004961700 w:     15.0405114467 E_grs:   -361.9410076167
 # 20 1 Exctot   Excited state Energy =    -346.9004961700
 # 21 1 Sy: 1 Sp: 1 Exc: 10 E_tot:   -346.8887427369 w:     15.0522648798 E_grs:   -361.9410076167
 # 22 1 Exctot   Excited state Energy =    -346.8887427369
 # 23 1 Sy: 1 Sp: 1 Exc: 11 E_tot:   -346.8807204262 w:     15.0602871904 E_grs:   -361.9410076167
 # 24 1 Exctot   Excited state Energy =    -346.8807204262
 # 25 1 Sy: 1 Sp: 1 Exc: 12 E_tot:   -346.8368239137 w:     15.1041837029 E_grs:   -361.9410076167
 # 26 1 Exctot   Excited state Energy =    -346.8368239137
 # 27 1 Sy: 1 Sp: 1 Exc: 13 E_tot:   -346.8152863256 w:     15.1257212911 E_grs:   -361.9410076167
 # 28 1 Exctot   Excited state Energy =    -346.8152863256
 # 29 1 Sy: 1 Sp: 1 Exc: 14 E_tot:   -346.7425299605 w:     15.1984776562 E_grs:   -361.9410076167
 # 30 1 Exctot   Excited state Energy =    -346.7425299605
 # 31 1 Sy: 1 Sp: 1 Exc: 15 E_tot:   -346.6756691001 w:     15.2653385166 E_grs:   -361.9410076167
 # 32 1 Exctot   Excited state Energy =    -346.6756691001
 # 33 1 |<O|XDIPLEN |i(14.822999)>| =     0.00723896
 # 35 1 |<O|XDIPLEN |i(14.879637)>| =     0.05214012
 # 37 1 |<O|XDIPLEN |i(14.910271)>| =     0.02199193
 # 39 1 |<O|XDIPLEN |i(14.944365)>| =     0.00968526
 # 41 1 |<O|XDIPLEN |i(14.977932)>| =     0.00108751
 # 43 1 |<O|XDIPLEN |i(15.002257)>| =     0.01391350
 # 45 1 |<O|XDIPLEN |i(15.018037)>| =     0.02176914
 # 47 1 |<O|XDIPLEN |i(15.020846)>| =     0.01396810
 # 49 1 |<O|XDIPLEN |i(15.040511)>| =     0.01209837
 # 51 1 |<O|XDIPLEN |i(15.052265)>| =     0.00081607
 # 53 1 |<O|XDIPLEN |i(15.060287)>| =     0.00565198
 # 55 1 |<O|XDIPLEN |i(15.104184)>| =     0.00795156
 # 57 1 |<O|XDIPLEN |i(15.125721)>| =     0.00265190
 # 59 1 |<O|XDIPLEN |i(15.198478)>| =     0.01167920
 # 61 1 |<O|XDIPLEN |i(15.265339)>| =     0.00303441
 # 63 1 |<O|YDIPLEN |i(14.822999)>| =     0.00763464
 # 65 1 |<O|YDIPLEN |i(14.879637)>| =     0.02322515
 # 67 1 |<O|YDIPLEN |i(14.910271)>| =     0.04518453
 # 69 1 |<O|YDIPLEN |i(14.944365)>| =     0.02574897
 # 71 1 |<O|YDIPLEN |i(14.977932)>| =     0.01315464
 # 73 1 |<O|YDIPLEN |i(15.002257)>| =     0.02258264
 # 75 1 |<O|YDIPLEN |i(15.018037)>| =     0.01967340
 # 77 1 |<O|YDIPLEN |i(15.020846)>| =     0.00030986
 # 79 1 |<O|YDIPLEN |i(15.040511)>| =     0.00635843
 # 81 1 |<O|YDIPLEN |i(15.052265)>| =     0.00711133
 # 83 1 |<O|YDIPLEN |i(15.060287)>| =     0.00753309
 # 85 1 |<O|YDIPLEN |i(15.104184)>| =     0.00344834
 # 87 1 |<O|YDIPLEN |i(15.125721)>| =     0.00488736
 # 89 1 |<O|YDIPLEN |i(15.198478)>| =     0.00970188
 # 91 1 |<O|YDIPLEN |i(15.265339)>| =     0.00064161
 # 93 1 |<O|ZDIPLEN |i(14.822999)>| =     0.01999794
 # 95 1 |<O|ZDIPLEN |i(14.879637)>| =     0.00044351
 # 97 1 |<O|ZDIPLEN |i(14.910271)>| =     0.01879483
 # 99 1 |<O|ZDIPLEN |i(14.944365)>| =     0.03085534
 #101 1 |<O|ZDIPLEN |i(14.977932)>| =     0.01673111
 #103 1 |<O|ZDIPLEN |i(15.002257)>| =     0.00533373
 #105 1 |<O|ZDIPLEN |i(15.018037)>| =     0.00187028
 #107 1 |<O|ZDIPLEN |i(15.020846)>| =     0.00028122
 #109 1 |<O|ZDIPLEN |i(15.040511)>| =     0.01951906
 #111 1 |<O|ZDIPLEN |i(15.052265)>| =     0.00529512
 #113 1 |<O|ZDIPLEN |i(15.060287)>| =     0.01510677
 #115 1 |<O|ZDIPLEN |i(15.104184)>| =     0.01702730
 #117 1 |<O|ZDIPLEN |i(15.125721)>| =     0.00066370
 #119 1 |<O|ZDIPLEN |i(15.198478)>| =     0.00570841
 #121 1 |<O|ZDIPLEN |i(15.265339)>| =     0.01620796

 THE_END   
