

     ************************************************************************
     *************** Dalton - An Electronic Structure Program ***************
     ************************************************************************

    This is output from DALTON release Dalton2017.alpha (2016)
         ( Web site: http://daltonprogram.org )

   ----------------------------------------------------------------------------

    NOTE:
     
    Dalton is an experimental code for the evaluation of molecular
    properties using (MC)SCF, DFT, CI, and CC wave functions.
    The authors accept no responsibility for the performance of
    the code or for the correctness of the results.
     
    The code (in whole or part) is provided under a licence and
    is not to be reproduced for further distribution without
    the written permission of the authors or their representatives.
     
    See the home page "http://daltonprogram.org" for further information.
     
    If results obtained with this code are published,
    the appropriate citations would be both of:
     
       K. Aidas, C. Angeli, K. L. Bak, V. Bakken, R. Bast,
       L. Boman, O. Christiansen, R. Cimiraglia, S. Coriani,
       P. Dahle, E. K. Dalskov, U. Ekstroem,
       T. Enevoldsen, J. J. Eriksen, P. Ettenhuber, B. Fernandez,
       L. Ferrighi, H. Fliegl, L. Frediani, K. Hald, A. Halkier,
       C. Haettig, H. Heiberg, T. Helgaker, A. C. Hennum,
       H. Hettema, E. Hjertenaes, S. Hoest, I.-M. Hoeyvik,
       M. F. Iozzi, B. Jansik, H. J. Aa. Jensen, D. Jonsson,
       P. Joergensen, J. Kauczor, S. Kirpekar,
       T. Kjaergaard, W. Klopper, S. Knecht, R. Kobayashi, H. Koch,
       J. Kongsted, A. Krapp, K. Kristensen, A. Ligabue,
       O. B. Lutnaes, J. I. Melo, K. V. Mikkelsen, R. H. Myhre,
       C. Neiss, C. B. Nielsen, P. Norman, J. Olsen,
       J. M. H. Olsen, A. Osted, M. J. Packer, F. Pawlowski,
       T. B. Pedersen, P. F. Provasi, S. Reine, Z. Rinkevicius,
       T. A. Ruden, K. Ruud, V. Rybkin, P. Salek, C. C. M. Samson,
       A. Sanchez de Meras, T. Saue, S. P. A. Sauer,
       B. Schimmelpfennig, K. Sneskov, A. H. Steindal,
       K. O. Sylvester-Hvid, P. R. Taylor, A. M. Teale,
       E. I. Tellgren, D. P. Tew, A. J. Thorvaldsen, L. Thoegersen,
       O. Vahtras, M. A. Watson, D. J. D. Wilson, M. Ziolkowski
       and H. Agren,
       "The Dalton quantum chemistry program system",
       WIREs Comput. Mol. Sci. 2014, 4:269–284 (doi: 10.1002/wcms.1172)
     
    and
     
       Dalton, a Molecular Electronic Structure Program,
       Release Dalton2017.alpha (2016), see http://daltonprogram.org
   ----------------------------------------------------------------------------

    Authors in alphabetical order (major contribution(s) in parenthesis):

  Kestutis Aidas,           Vilnius University,           Lithuania   (QM/MM)
  Celestino Angeli,         University of Ferrara,        Italy       (NEVPT2)
  Keld L. Bak,              UNI-C,                        Denmark     (AOSOPPA, non-adiabatic coupling, magnetic properties)
  Vebjoern Bakken,          University of Oslo,           Norway      (DALTON; geometry optimizer, symmetry detection)
  Radovan Bast,             UiT The Arctic U. of Norway,  Norway      (DALTON installation and execution frameworks)
  Pablo Baudin,             University of Valencia,       Spain       (Cholesky excitation energies)
  Linus Boman,              NTNU,                         Norway      (Cholesky decomposition and subsystems)
  Ove Christiansen,         Aarhus University,            Denmark     (CC module)
  Renzo Cimiraglia,         University of Ferrara,        Italy       (NEVPT2)
  Sonia Coriani,            University of Trieste,        Italy       (CC module, MCD in RESPONS)
  Janusz Cukras,            University of Trieste,        Italy       (MChD in RESPONS)
  Paal Dahle,               University of Oslo,           Norway      (Parallelization)
  Erik K. Dalskov,          UNI-C,                        Denmark     (SOPPA)
  Thomas Enevoldsen,        Univ. of Southern Denmark,    Denmark     (SOPPA)
  Janus J. Eriksen,         Aarhus University,            Denmark     (Polarizable embedding model, TDA)
  Rasmus Faber,             University of Copenhagen,     Denmark     (Vib.avg. NMR with SOPPA, parallel AO-SOPPA)
  Berta Fernandez,          U. of Santiago de Compostela, Spain       (doublet spin, ESR in RESPONS)
  Lara Ferrighi,            Aarhus University,            Denmark     (PCM Cubic response)
  Heike Fliegl,             University of Oslo,           Norway      (CCSD(R12))
  Luca Frediani,            UiT The Arctic U. of Norway,  Norway      (PCM)
  Bin Gao,                  UiT The Arctic U. of Norway,  Norway      (Gen1Int library)
  Christof Haettig,         Ruhr-University Bochum,       Germany     (CC module)
  Kasper Hald,              Aarhus University,            Denmark     (CC module)
  Asger Halkier,            Aarhus University,            Denmark     (CC module)
  Frederik Beyer Hansen,    University of Copenhagen,     Denmark     (Parallel AO-SOPPA)
  Erik D. Hedegaard,        Univ. of Southern Denmark,    Denmark     (Polarizable embedding model, QM/MM)
  Hanne Heiberg,            University of Oslo,           Norway      (geometry analysis, selected one-electron integrals)
  Trygve Helgaker,          University of Oslo,           Norway      (DALTON; ABACUS, ERI, DFT modules, London, and much more)
  Alf Christian Hennum,     University of Oslo,           Norway      (Parity violation)
  Hinne Hettema,            University of Auckland,       New Zealand (quadratic response in RESPONS; SIRIUS supersymmetry)
  Eirik Hjertenaes,         NTNU,                         Norway      (Cholesky decomposition)
  Pi A. B. Haase,           University of Copenhagen,     Denmark     (Triplet AO-SOPPA)
  Maria Francesca Iozzi,    University of Oslo,           Norway      (RPA)
  Brano Jansik              Technical Univ. of Ostrava    Czech Rep.  (DFT cubic response)
  Hans Joergen Aa. Jensen,  Univ. of Southern Denmark,    Denmark     (DALTON; SIRIUS, RESPONS, ABACUS modules, London, and much more)
  Dan Jonsson,              UiT The Arctic U. of Norway,  Norway      (cubic response in RESPONS module)
  Poul Joergensen,          Aarhus University,            Denmark     (RESPONS, ABACUS, and CC modules)
  Maciej Kaminski,          University of Warsaw,         Poland      (CPPh in RESPONS)
  Joanna Kauczor,           Linkoeping University,        Sweden      (Complex polarization propagator (CPP) module)
  Sheela Kirpekar,          Univ. of Southern Denmark,    Denmark     (Mass-velocity & Darwin integrals)
  Wim Klopper,              KIT Karlsruhe,                Germany     (R12 code in CC, SIRIUS, and ABACUS modules)
  Stefan Knecht,            ETH Zurich,                   Switzerland (Parallel CI and MCSCF)
  Rika Kobayashi,           Australian National Univ.,    Australia   (DIIS in CC, London in MCSCF)
  Henrik Koch,              NTNU,                         Norway      (CC module, Cholesky decomposition)
  Jacob Kongsted,           Univ. of Southern Denmark,    Denmark     (Polarizable embedding model, QM/MM)
  Andrea Ligabue,           University of Modena,         Italy       (CTOCD, AOSOPPA)
  Nanna H. List             Univ. of Southern Denmark,    Denmark     (Polarizable embedding model)
  Ola B. Lutnaes,           University of Oslo,           Norway      (DFT Hessian)
  Juan I. Melo,             University of Buenos Aires,   Argentina   (LRESC, Relativistic Effects on NMR Shieldings)
  Kurt V. Mikkelsen,        University of Copenhagen,     Denmark     (MC-SCRF and QM/MM)
  Rolf H. Myhre,            NTNU,                         Norway      (Cholesky, subsystems and ECC2)
  Christian Neiss,          Univ. Erlangen-Nuernberg,     Germany     (CCSD(R12))
  Christian B. Nielsen,     University of Copenhagen,     Denmark     (QM/MM)
  Patrick Norman,           Linkoeping University,        Sweden      (Cubic response and complex frequency response in RESPONS)
  Jeppe Olsen,              Aarhus University,            Denmark     (SIRIUS CI/density modules)
  Jogvan Magnus H. Olsen,   Univ. of Southern Denmark,    Denmark     (Polarizable embedding model, QM/MM)
  Anders Osted,             Copenhagen University,        Denmark     (QM/MM)
  Martin J. Packer,         University of Sheffield,      UK          (SOPPA)
  Filip Pawlowski,          Kazimierz Wielki University,  Poland      (CC3)
  Morten N. Pedersen,       Univ. of Southern Denmark,    Denmark     (Polarizable embedding model)
  Thomas B. Pedersen,       University of Oslo,           Norway      (Cholesky decomposition)
  Patricio F. Provasi,      University of Northeastern,   Argentina   (Analysis of coupling constants in localized orbitals)
  Zilvinas Rinkevicius,     KTH Stockholm,                Sweden      (open-shell DFT, ESR)
  Elias Rudberg,            KTH Stockholm,                Sweden      (DFT grid and basis info)
  Torgeir A. Ruden,         University of Oslo,           Norway      (Numerical derivatives in ABACUS)
  Kenneth Ruud,             UiT The Arctic U. of Norway,  Norway      (DALTON; ABACUS magnetic properties and much more)
  Pawel Salek,              KTH Stockholm,                Sweden      (DALTON; DFT code)
  Claire C. M. Samson       University of Karlsruhe       Germany     (Boys localization, r12 integrals in ERI)
  Alfredo Sanchez de Meras, University of Valencia,       Spain       (CC module, Cholesky decomposition)
  Trond Saue,               Paul Sabatier University,     France      (direct Fock matrix construction)
  Stephan P. A. Sauer,      University of Copenhagen,     Denmark     (SOPPA(CCSD), SOPPA prop., AOSOPPA, vibrational g-factors)
  Bernd Schimmelpfennig,    Forschungszentrum Karlsruhe,  Germany     (AMFI module)
  Kristian Sneskov,         Aarhus University,            Denmark     (Polarizable embedding model, QM/MM)
  Arnfinn H. Steindal,      UiT The Arctic U. of Norway,  Norway      (parallel QM/MM, Polarizable embedding model)
  Casper Steinmann,         Univ. of Southern Denmark,    Denmark     (QFIT, Polarizable embedding model)
  K. O. Sylvester-Hvid,     University of Copenhagen,     Denmark     (MC-SCRF)
  Peter R. Taylor,          VLSCI/Univ. of Melbourne,     Australia   (Symmetry handling ABACUS, integral transformation)
  Andrew M. Teale,          University of Nottingham,     England     (DFT-AC, DFT-D)
  David P. Tew,             University of Bristol,        England     (CCSD(R12))
  Olav Vahtras,             KTH Stockholm,                Sweden      (triplet response, spin-orbit, ESR, TDDFT, open-shell DFT)
  David J. Wilson,          La Trobe University,          Australia   (DFT Hessian and DFT magnetizabilities)
  Hans Agren,               KTH Stockholm,                Sweden      (SIRIUS module, RESPONS, MC-SCRF solvation model)
 --------------------------------------------------------------------------------

     Date and time (Linux)  : Wed Jan  2 09:52:55 2019
     Host name              : n-62-23-15                              

 * Work memory size             :  1280000000 =  9.537 gigabytes.

 * Directories for basis set searches:
   1) /zhome/37/3/129401/NH3NH4/CCSD/AIMD_SAMPLING/nh3_4h2o_nd
   2) /zhome/9a/4/124800/source/dalton/build-mlcc/basis


Compilation information
-----------------------

 Who compiled             | rfaber
 Host                     | hpclogin1
 System                   | Linux-2.6.32-696.1.1.el6.x86_64
 CMake generator          | Unix Makefiles
 Processor                | x86_64
 64-bit integers          | ON
 MPI                      | OFF
 Fortran compiler         | /opt/intel/2016update2/compilers_and_libraries_201
                          | 6.2.181/linux/bin/intel64/ifort
 Fortran compiler version | ifort (IFORT) 16.0.2 20160204
 C compiler               | /opt/intel/2016update2/compilers_and_libraries_201
                          | 6.2.181/linux/bin/intel64/icc
 C compiler version       | icc (ICC) 16.0.2 20160204
 C++ compiler             | /opt/intel/2016update2/compilers_and_libraries_201
                          | 6.2.181/linux/bin/intel64/icpc
 C++ compiler version     | icpc (ICC) 16.0.2 20160204
 Static linking           | OFF
 Last Git revision        | bb4d1599ca5680a9f3980451fc8bbefdba436d59
 Git branch               | mlcc
 Configuration time       | 2017-06-13 16:11:03.928841


   Content of the .dal input file
 ----------------------------------

**DALTON
.RUN WAVE FUNCTIONS
*QMMM
.QMMM
**INTEGRALS
.DIPLEN
**WAVE FUNCTIONS
.CC
*PRINT
!To check the origin of excit
.PRINTL
   0 11
*SCF INP
.THRESH
1.0D-7
*CC INP
.CCSD
.THRLEQ
 1.0D-9
.THRENR
 1.0D-10
.FROIMP
4
0
.PRINT
 1
.MAX IT
 1200
.MAXRED
 1200
.MXLRV
1199
*CCSLV
.CCMM
.MXSLIT
200
.MXINIT
4 5
*CCEXCI
.NCCEXC
 15
.CVSEPARA
1
1
*CCLRSD
.DIPOLE
**END OF DALTON INPUT


   Content of the .mol file
 ----------------------------

ATOMBASIS


Atomtypes=4 Charge=0 Nosymm Angstrom
   7.00000    1    Basis=6-311G**
N          0.000000        0.000000        0.000000
   1.00000    3    Basis=6-311G**
H         -0.289697       -0.595427       -0.786813
H          0.725456       -0.549821        0.359388
H         -0.662062       -0.013191        0.779102
   8.00000    4    Basis=6-311G**
O         -1.568349       -1.999512       -1.363307
O          1.970561       -2.148947        0.621290
O          0.430559        2.677908       -0.288482
O         -3.104181        0.240492        1.996511
   1.00000    8    Basis=6-311G**
H         -0.853407       -2.521728       -1.772188
H         -2.401309       -2.086574       -1.991420
H          2.758511       -2.517247        0.173949
H          1.247031       -2.187999       -0.034818
H          1.362711        3.056804       -0.043166
H          0.396938        1.667331       -0.210000
H         -3.490122        0.621238        1.201654
H         -2.592811        0.919226        2.434691


       *******************************************************************
       *********** Output from DALTON general input processing ***********
       *******************************************************************

 --------------------------------------------------------------------------------
   Overall default print level:    0
   Print level for DALTON.STAT:    1

    HERMIT 1- and 2-electron integral sections will be executed
    "Old" integral transformation used (limited to max 255 basis functions)
    Wave function sections will be executed (SIRIUS module)
 --------------------------------------------------------------------------------


 Changes of defaults for *QMMM  :
 --------------------------------

 +------------------+
 |  WORD: | CHANGE: |
 +------------------+
 |   QMMM |       T |
 +------------------+
 


   ****************************************************************************
   *************** Output of molecule and basis set information ***************
   ****************************************************************************


    The two title cards from your ".mol" input:
    ------------------------------------------------------------------------
 1:                                                                         
 2:                                                                         
    ------------------------------------------------------------------------

  Coordinates are entered in Angstrom and converted to atomic units.
          - Conversion factor : 1 bohr = 0.52917721 A

  Atomic type no.    1
  --------------------
  Nuclear charge:   7.00000
  Number of symmetry independent centers:    1
  Number of basis sets to read;    2
  The basis set is "6-311G**" from the basis set library.
  Basis set file used for this atomic type with Z =   7 :
     "/zhome/9a/4/124800/source/dalton/build-mlcc/basis/6-311G**"

  Info about the basis set file: your basis has no documentation.
  Basis set: 6-311G**                                                                        

  Atomic type no.    2
  --------------------
  Nuclear charge:   1.00000
  Number of symmetry independent centers:    3
  Number of basis sets to read;    2
  The basis set is "6-311G**" from the basis set library.
  Basis set file used for this atomic type with Z =   1 :
     "/zhome/9a/4/124800/source/dalton/build-mlcc/basis/6-311G**"

  Info about the basis set file: your basis has no documentation.
  Basis set: 6-311G**                                                                        

  Atomic type no.    3
  --------------------
  Nuclear charge:   8.00000
  Number of symmetry independent centers:    4
  Number of basis sets to read;    2
  The basis set is "6-311G**" from the basis set library.
  Basis set file used for this atomic type with Z =   8 :
     "/zhome/9a/4/124800/source/dalton/build-mlcc/basis/6-311G**"

  Info about the basis set file: your basis has no documentation.
  Basis set: 6-311G**                                                                        

  Atomic type no.    4
  --------------------
  Nuclear charge:   1.00000
  Number of symmetry independent centers:    8
  Number of basis sets to read;    2
  The basis set is "6-311G**" from the basis set library.
  Basis set file used for this atomic type with Z =   1 :
     "/zhome/9a/4/124800/source/dalton/build-mlcc/basis/6-311G**"

  Info about the basis set file: your basis has no documentation.
  Basis set: 6-311G**                                                                        


                         SYMGRP: Point group information
                         -------------------------------

@    Point group: C1 


                                 Isotopic Masses
                                 ---------------

                           N          14.003074
                           H           1.007825
                           H           1.007825
                           H           1.007825
                           O          15.994915
                           O          15.994915
                           O          15.994915
                           O          15.994915
                           H           1.007825
                           H           1.007825
                           H           1.007825
                           H           1.007825
                           H           1.007825
                           H           1.007825
                           H           1.007825
                           H           1.007825

                       Total mass:    89.068809 amu
                       Natural abundance:  98.514 %

 Center-of-mass coordinates (a.u.):   -0.852043   -0.507392    0.330182


  Atoms and basis sets
  --------------------

  Number of atom types :    4
  Total number of atoms:   16

  label    atoms   charge   prim   cont     basis
  ----------------------------------------------------------------------
  N           1    7.0000    31    18      [11s5p1d|4s3p1d]                                   
  H           3    1.0000     8     6      [5s1p|3s1p]                                        
  O           4    8.0000    31    18      [11s5p1d|4s3p1d]                                   
  H           8    1.0000     8     6      [5s1p|3s1p]                                        
  ----------------------------------------------------------------------
  total:     16   50.0000   243   156
  ----------------------------------------------------------------------
  Spherical harmonic basis used.

  Threshold for neglecting AO integrals:  1.00D-12


  Cartesian Coordinates (a.u.)
  ----------------------------

  Total number of coordinates:   48
  N       :     1  x   0.0000000000    2  y   0.0000000000    3  z   0.0000000000
  H       :     4  x  -0.5474479892    5  y  -1.1251939574    6  z  -1.4868610816
  H       :     7  x   1.3709131557    8  y  -1.0390111078    9  z   0.6791448926
  H       :    10  x  -1.2511158578   11  y  -0.0249273773   12  z   1.4722894034
  O       :    13  x  -2.9637500784   14  y  -3.7785300636   15  z  -2.5762768543
  O       :    16  x   3.7238206026   17  y  -4.0609212871   18  z   1.1740679442
  O       :    19  x   0.8136385907   20  y   5.0605127079   21  z  -0.5451519720
  O       :    22  x  -5.8660519324   23  y   0.4544640153   24  z   3.7728589955
  H       :    25  x  -1.6127055032   26  y  -4.7653752817   27  z  -3.3489499620
  H       :    28  x  -4.5378163515   29  y  -3.9430533995   30  z  -3.7632383998
  H       :    31  x   5.2128303028   32  y  -4.7569074190   33  z   0.3287159697
  H       :    34  x   2.3565470594   35  y  -4.1347188718   36  z  -0.0657964842
  H       :    37  x   2.5751505775   38  y   5.7765223778   39  z  -0.0815719179
  H       :    40  x   0.7501041086   41  y   3.1507989497   42  z  -0.3968424862
  H       :    43  x  -6.5953747228   44  y   1.1739696784   45  z   2.2707969570
  H       :    46  x  -4.8997026839   47  y   1.7370853870   48  z   4.6008991890


   Interatomic separations (in Angstrom):
   --------------------------------------

            N           H           H           H           O           O     
            ------      ------      ------      ------      ------      ------
 N     :    0.000000
 H     :    1.028364    0.000000
 H     :    0.978647    1.531794    0.000000
 H     :    1.022497    1.711650    1.545748    0.000000
 O     :    2.883812    1.984629    3.214160    3.058879    0.000000
 O     :    2.981121    3.083009    2.043547    3.393680    4.060153    0.000000
 O     :    2.727599    3.388484    3.305289    3.094442    5.198956    5.147603
 O     :    3.698626    4.045612    4.239208    2.740508    4.320275    5.775263
 H     :    3.198135    2.235927    3.305275    3.583078    0.975210    3.720551
 H     :    3.753109    2.851930    4.202924    3.872943    1.046866    5.093466
 H     :    3.738472    3.729347    2.835219    4.282152    4.620922    0.978072
 H     :    2.518658    2.337374    1.763821    3.006142    3.118778    0.977496
 H     :    3.347073    4.077040    3.684547    3.768382    5.991679    5.283070
 H     :    1.726746    2.433979    2.312550    2.218999    4.317199    4.210856
 H     :    3.743108    3.959419    4.455546    2.928989    4.140117    6.150594
 H     :    3.673604    4.239882    4.180416    2.708905    4.898300    5.790205

            O           O           H           H           H           H     
            ------      ------      ------      ------      ------      ------
 O     :    0.000000
 O     :    4.863803    0.000000
 H     :    5.557532    5.186418    0.000000
 H     :    5.798255    4.670424    1.622782    0.000000
 H     :    5.711641    6.730380    4.102855    5.612312    0.000000
 H     :    4.940448    5.381163    2.746210    4.141131    1.560948    0.000000
 H     :    1.035688    5.660832    6.246656    6.664674    5.750256    5.246085
 H     :    1.014177    4.377487    4.642414    5.009536    4.820284    3.951824
 H     :    4.671417    0.962141    5.066975    4.325908    7.067650    5.644581
 H     :    4.432764    0.956128    5.706446    5.353687    6.749589    5.522473

            H           H           H           H     
            ------      ------      ------      ------
 H     :    0.000000
 H     :    1.700349    0.000000
 H     :    5.570597    4.265714    0.000000
 H     :    5.133729    4.061114    1.553816    0.000000


  Max    interatomic separation is    7.0677 Angstrom (   13.3559 Bohr)
  between atoms   15 and   11, "H     " and "H     ".

  Min HX interatomic separation is    0.9561 Angstrom (    1.8068 Bohr)

  Min YX interatomic separation is    2.7276 Angstrom (    5.1544 Bohr)


  Bond distances (Angstrom):
  --------------------------

                  atom 1     atom 2       distance
                  ------     ------       --------
  bond distance:  H          N            1.028364
  bond distance:  H          N            0.978647
  bond distance:  H          N            1.022497
  bond distance:  H          O            0.975210
  bond distance:  H          O            1.046866
  bond distance:  H          O            0.978072
  bond distance:  H          O            0.977496
  bond distance:  H          O            1.035688
  bond distance:  H          O            1.014177
  bond distance:  H          O            0.962141
  bond distance:  H          O            0.956128


  Bond angles (degrees):
  ----------------------

                  atom 1     atom 2     atom 3         angle
                  ------     ------     ------         -----
  bond angle:     H          N          H             99.468
  bond angle:     H          N          H            113.148
  bond angle:     H          N          H            101.123
  bond angle:     H          O          H            106.692
  bond angle:     H          O          H            105.918
  bond angle:     H          O          H            112.089
  bond angle:     H          O          H            108.193




 Principal moments of inertia (u*A**2) and principal axes
 --------------------------------------------------------

   IA     356.232876          0.680719   -0.686091   -0.256712
   IB     418.933396          0.698951    0.713220   -0.052761
   IC     576.457040          0.219291   -0.143514    0.965047


 Rotational constants
 --------------------

               A                   B                   C

           1418.6759           1206.3469            876.6985 MHz
            0.047322            0.040239            0.029244 cm-1


@  Nuclear repulsion energy :  183.073223734266 Hartree


                     .---------------------------------------.
                     | Starting in Integral Section (HERMIT) |
                     `---------------------------------------'



 ***************************************************************************************
 ****************** Output from **INTEGRALS input processing (HERMIT) ******************
 ***************************************************************************************



    *************************************************************************
    ****************** Output from HERMIT input processing ******************
    *************************************************************************


 Default print level:        1

 * Nuclear model: Point charge

 Calculation of one- and two-electron Hamiltonian integrals.

 The following one-electron property integrals are calculated as requested:
          - overlap integrals
          - dipole length integrals

 Center of mass  (bohr):     -0.852042931295     -0.507391989554      0.330181864489
 Operator center (bohr):      0.000000000000      0.000000000000      0.000000000000
 Gauge origin    (bohr):      0.000000000000      0.000000000000      0.000000000000
 Dipole origin   (bohr):      0.000000000000      0.000000000000      0.000000000000
 
  *********************************** 
  QMMM electrostatic potential: 
  Multipole order                                    0
  Isotropic polarization  
  *********************************** 
 
  ---------------- 
  QMMM information 
  ---------------- 
 
  MM coordinates in au 
  -------------------- 
     1    -11.119511      3.915533      9.887865
     2    -12.506062      4.186363      8.653368
     3    -11.470974      4.588276     11.541145
     4    -10.263378     -7.644581      6.486207
     5     -9.185590     -9.092370      6.071603
     6     -9.457526     -6.009681      6.668071
     7     -2.094223      0.423068      9.543374
     8     -0.638841     -0.263947      8.541065
     9     -2.503233     -0.971193     10.729045
    10     -6.767909      7.345229      8.751898
    11     -8.429824      6.508821      8.968385
    12     -7.133692      8.952472      7.698092
    13     -5.474399     -4.477145      1.629505
    14     -5.348053     -2.889699      2.555703
    15     -4.119669     -4.220809      0.332919
    16      6.990821      0.803375     -0.635061
    17      5.972931     -0.307311     -1.726074
    18      8.238306     -0.287151      0.174303
    19    -11.380602      5.335925     -8.515095
    20    -13.115387      5.842262     -7.953389
    21    -10.603106      5.141637     -6.886011
    22      2.939563    -10.066858    -10.774472
    23      1.970397     -8.452841    -10.629141
    24      3.520420     -9.916814    -12.545261
    25      8.962635     -6.913323     -5.910699
    26      8.582800     -5.449660     -7.037382
    27      7.834319     -8.208290     -6.587657
    28     -4.202942      2.559286     -7.365098
    29     -3.682662      3.106765     -9.065409
    30     -4.855530      0.881185     -7.616673
    31     -2.288638      9.031729     -6.895085
    32     -2.065558      9.403568     -8.757688
    33     -1.533233      7.399584     -6.701912
    34     -9.112862      1.907149     -0.282531
    35     -8.136841      2.968261     -1.511282
    36     -9.985209      3.250395      0.748844
    37    -10.028839     11.582147      1.275905
    38    -11.367455     12.806464      1.424691
    39     -9.017792     12.108055     -0.155243
    40      9.082942      5.345440      5.851493
    41      8.490823      6.905917      6.645152
    42      7.592846      4.284209      5.208136
    43      4.099069     -1.252114     -4.320725
    44      3.675861     -0.013988     -5.724262
    45      3.083406     -2.833240     -4.619668
    46     -6.664336    -10.598242     11.311876
    47     -6.817055    -12.064730     10.208741
    48     -7.499869    -11.296034     12.885908
    49    -11.276211      6.234412      1.737059
    50    -10.523392      7.856886      1.543566
    51    -12.037476      6.183195      3.441065
    52     -4.722783     -5.684954     10.855972
    53     -5.366739     -4.589372     12.226027
    54     -5.543364     -7.369218     11.101378
    55      4.412601     -9.446251      7.986546
    56      4.960325    -11.262433      7.569963
    57      3.072205     -8.734084      6.960906
    58      9.224318     -8.108165      9.842843
    59     10.796790     -8.153235      8.812657
    60      7.664701     -8.237838      8.846224
    61      3.137217      5.951479     10.619208
    62      1.291573      6.273524     10.793951
    63      3.403771      4.730207     11.948321
    64     10.112627     10.842888     11.688920
    65      9.627412     12.752089     11.576200
    66      9.688388     10.516944     13.444611
    67      6.086307     10.782146      3.237055
    68      7.264797     12.152547      2.760597
    69      6.612148     10.338828      4.936492
    70      2.577193     -0.892123      7.504565
    71      3.630702     -1.174837      8.991245
    72      3.388366      0.306778      6.328746
    73      0.413482    -10.727832     -4.162152
    74     -0.681118    -11.934834     -5.192903
    75     -0.501815    -10.489152     -2.587989
    76     -0.102470      4.266370     -5.490223
    77     -1.389347      2.965661     -5.610803
    78      0.547178      4.524025     -3.691257
    79    -11.051451     -2.636062      0.158898
    80     -9.503057     -3.483383      0.757844
    81    -10.523526     -0.971949     -0.254121
    82      6.423682      9.177844      8.334537
    83      5.344799      8.045813      9.550411
    84      7.582148     10.174045      9.467628
    85      5.156724      2.620404      4.036362
    86      3.948721      4.006112      3.997753
    87      5.561150      2.278664      2.190034
    88      4.173095      2.937173     -8.551264
    89      5.403283      4.319334     -8.000794
    90      2.782085      3.329321     -7.397752
    91      0.182514     -5.887960     -5.436529
    92      0.158291     -5.700268     -7.422593
    93      0.565066     -7.800750     -5.077590
    94      7.399531      6.532864     -6.704756
    95      7.815310      6.091200     -4.915304
    96      7.235741      8.340336     -7.105372
    97      9.418803      4.604174     -2.488996
    98      8.864828      2.954436     -1.805707
    99     10.600169      5.286433     -1.235760
   100      6.522059    -11.505267     -7.487947
   101      5.219609    -10.947822     -8.711934
   102      5.550936    -11.755862     -5.949226
   103     -3.447255     -7.934176      4.653702
   104     -1.920035     -6.999823      5.095329
   105     -4.520336     -6.624499      3.748022
   106      0.387615     -5.332314    -10.545987
   107      1.581841     -4.053986    -11.017385
   108     -1.286758     -5.200128    -11.388988
   109      8.038118     -5.678223     -1.091203
   110      9.503750     -4.607213     -1.055767
   111      8.077192     -6.434739     -2.758545
   112     -3.248532      5.142629      5.288242
   113     -4.079996      6.083255      6.670293
   114     -1.407494      5.620165      5.134819
   115     -1.659510     10.528864    -11.521222
   116     -0.072405     11.356723    -11.097033
   117     -2.929308     11.797855    -11.998315
   118     -3.240599      7.877586      0.544651
   119     -1.885009      6.609538      0.008954
   120     -3.625600      7.192919      2.271600
   121     -7.211784     -8.730678     -2.945163
   122     -7.295424     -9.831429     -4.365076
   123     -5.462097     -9.083783     -2.349837
   124      4.729291     10.993865     -2.350375
   125      4.665341      9.238850     -1.984522
   126      3.125847     11.634908     -2.645509
   127     -7.520233      5.115175     -4.320086
   128     -6.415626      6.381482     -3.450041
   129     -6.217743      4.147348     -5.343146
   130      0.903098     10.957581      3.662423
   131      0.081086     12.267305      4.760696
   132      2.751778     11.346836      3.434982
   133      4.813297     -1.751160    -11.500750
   134      6.572912     -2.362435    -11.395126
   135      5.110347     -0.144453    -10.610304
   136      9.596354     -9.079705      2.933537
   137     10.715093     -8.178429      4.231717
   138      9.216975     -7.972558      1.473006
   139      1.573465      5.959932      5.514104
   140      1.605396      7.770849      5.077554
   141      2.017489      6.039483      7.345248
   142    -11.694234     -0.911521     -6.683307
   143    -12.405156     -2.018466     -7.998867
   144    -12.091052      0.780190     -7.388389
   145      5.741149      6.512705      0.574397
   146      6.216454      7.941319      1.590507
   147      7.213228      6.154430     -0.582245
   148     -7.443429     10.814137     -7.108139
   149     -5.834155     10.088804     -6.382212
   150     -8.721165      9.416339     -7.119188
   151     -2.611057    -10.469599     -0.371545
   152     -2.502570    -12.381045      0.302337
   153     -2.602962     -9.206971      1.104919
   154     -6.455412     -2.216751     -8.594335
   155     -7.857009     -1.352914     -9.604112
   156     -7.345668     -2.745870     -7.051642
   157      9.860855     -3.438045    -10.638742
   158     11.348068     -2.662010    -11.530393
   159      9.800802     -4.947857    -11.690581
   160      1.494494     -6.214075      5.231565
   161      1.730445     -4.608571      6.213289
   162      2.643292     -5.821050      3.811653
   163     -7.200008    -11.535926      5.414124
   164     -7.940958    -12.103424      3.813261
   165     -5.322982    -11.141285      5.099781
   166     -2.138571      5.253040    -11.735946
   167     -2.043930      3.706326    -12.861710
   168     -2.903237      6.663539    -12.583473
   169     -7.578584     -3.355422      7.072018
   170     -7.103709     -1.801064      6.067419
   171     -6.073850     -3.988142      7.991540
   172    -10.058030     -1.067261     10.788940
   173     -9.109194     -1.729251      9.290066
   174    -10.430115      0.896297     10.451639
   175     -7.974168     -4.006594     -4.288531
   176     -7.834100     -5.846934     -3.910703
   177     -9.625507     -3.427179     -3.545901
 
  MM charges 
  ---------- 
     1     -0.674440
     2      0.337220
     3      0.337220
     4     -0.674440
     5      0.337220
     6      0.337220
     7     -0.674440
     8      0.337220
     9      0.337220
    10     -0.674440
    11      0.337220
    12      0.337220
    13     -0.674440
    14      0.337220
    15      0.337220
    16     -0.674440
    17      0.337220
    18      0.337220
    19     -0.674440
    20      0.337220
    21      0.337220
    22     -0.674440
    23      0.337220
    24      0.337220
    25     -0.674440
    26      0.337220
    27      0.337220
    28     -0.674440
    29      0.337220
    30      0.337220
    31     -0.674440
    32      0.337220
    33      0.337220
    34     -0.674440
    35      0.337220
    36      0.337220
    37     -0.674440
    38      0.337220
    39      0.337220
    40     -0.674440
    41      0.337220
    42      0.337220
    43     -0.674440
    44      0.337220
    45      0.337220
    46     -0.674440
    47      0.337220
    48      0.337220
    49     -0.674440
    50      0.337220
    51      0.337220
    52     -0.674440
    53      0.337220
    54      0.337220
    55     -0.674440
    56      0.337220
    57      0.337220
    58     -0.674440
    59      0.337220
    60      0.337220
    61     -0.674440
    62      0.337220
    63      0.337220
    64     -0.674440
    65      0.337220
    66      0.337220
    67     -0.674440
    68      0.337220
    69      0.337220
    70     -0.674440
    71      0.337220
    72      0.337220
    73     -0.674440
    74      0.337220
    75      0.337220
    76     -0.674440
    77      0.337220
    78      0.337220
    79     -0.674440
    80      0.337220
    81      0.337220
    82     -0.674440
    83      0.337220
    84      0.337220
    85     -0.674440
    86      0.337220
    87      0.337220
    88     -0.674440
    89      0.337220
    90      0.337220
    91     -0.674440
    92      0.337220
    93      0.337220
    94     -0.674440
    95      0.337220
    96      0.337220
    97     -0.674440
    98      0.337220
    99      0.337220
   100     -0.674440
   101      0.337220
   102      0.337220
   103     -0.674440
   104      0.337220
   105      0.337220
   106     -0.674440
   107      0.337220
   108      0.337220
   109     -0.674440
   110      0.337220
   111      0.337220
   112     -0.674440
   113      0.337220
   114      0.337220
   115     -0.674440
   116      0.337220
   117      0.337220
   118     -0.674440
   119      0.337220
   120      0.337220
   121     -0.674440
   122      0.337220
   123      0.337220
   124     -0.674440
   125      0.337220
   126      0.337220
   127     -0.674440
   128      0.337220
   129      0.337220
   130     -0.674440
   131      0.337220
   132      0.337220
   133     -0.674440
   134      0.337220
   135      0.337220
   136     -0.674440
   137      0.337220
   138      0.337220
   139     -0.674440
   140      0.337220
   141      0.337220
   142     -0.674440
   143      0.337220
   144      0.337220
   145     -0.674440
   146      0.337220
   147      0.337220
   148     -0.674440
   149      0.337220
   150      0.337220
   151     -0.674440
   152      0.337220
   153      0.337220
   154     -0.674440
   155      0.337220
   156      0.337220
   157     -0.674440
   158      0.337220
   159      0.337220
   160     -0.674440
   161      0.337220
   162      0.337220
   163     -0.674440
   164      0.337220
   165      0.337220
   166     -0.674440
   167      0.337220
   168      0.337220
   169     -0.674440
   170      0.337220
   171      0.337220
   172     -0.674440
   173      0.337220
   174      0.337220
   175     -0.674440
   176      0.337220
   177      0.337220
 
  MM isotropic polarizabilities in au 
  ----------------------------------- 
     1      5.739350
     2      2.308390
     3      2.308390
     4      5.739350
     5      2.308390
     6      2.308390
     7      5.739350
     8      2.308390
     9      2.308390
    10      5.739350
    11      2.308390
    12      2.308390
    13      5.739350
    14      2.308390
    15      2.308390
    16      5.739350
    17      2.308390
    18      2.308390
    19      5.739350
    20      2.308390
    21      2.308390
    22      5.739350
    23      2.308390
    24      2.308390
    25      5.739350
    26      2.308390
    27      2.308390
    28      5.739350
    29      2.308390
    30      2.308390
    31      5.739350
    32      2.308390
    33      2.308390
    34      5.739350
    35      2.308390
    36      2.308390
    37      5.739350
    38      2.308390
    39      2.308390
    40      5.739350
    41      2.308390
    42      2.308390
    43      5.739350
    44      2.308390
    45      2.308390
    46      5.739350
    47      2.308390
    48      2.308390
    49      5.739350
    50      2.308390
    51      2.308390
    52      5.739350
    53      2.308390
    54      2.308390
    55      5.739350
    56      2.308390
    57      2.308390
    58      5.739350
    59      2.308390
    60      2.308390
    61      5.739350
    62      2.308390
    63      2.308390
    64      5.739350
    65      2.308390
    66      2.308390
    67      5.739350
    68      2.308390
    69      2.308390
    70      5.739350
    71      2.308390
    72      2.308390
    73      5.739350
    74      2.308390
    75      2.308390
    76      5.739350
    77      2.308390
    78      2.308390
    79      5.739350
    80      2.308390
    81      2.308390
    82      5.739350
    83      2.308390
    84      2.308390
    85      5.739350
    86      2.308390
    87      2.308390
    88      5.739350
    89      2.308390
    90      2.308390
    91      5.739350
    92      2.308390
    93      2.308390
    94      5.739350
    95      2.308390
    96      2.308390
    97      5.739350
    98      2.308390
    99      2.308390
   100      5.739350
   101      2.308390
   102      2.308390
   103      5.739350
   104      2.308390
   105      2.308390
   106      5.739350
   107      2.308390
   108      2.308390
   109      5.739350
   110      2.308390
   111      2.308390
   112      5.739350
   113      2.308390
   114      2.308390
   115      5.739350
   116      2.308390
   117      2.308390
   118      5.739350
   119      2.308390
   120      2.308390
   121      5.739350
   122      2.308390
   123      2.308390
   124      5.739350
   125      2.308390
   126      2.308390
   127      5.739350
   128      2.308390
   129      2.308390
   130      5.739350
   131      2.308390
   132      2.308390
   133      5.739350
   134      2.308390
   135      2.308390
   136      5.739350
   137      2.308390
   138      2.308390
   139      5.739350
   140      2.308390
   141      2.308390
   142      5.739350
   143      2.308390
   144      2.308390
   145      5.739350
   146      2.308390
   147      2.308390
   148      5.739350
   149      2.308390
   150      2.308390
   151      5.739350
   152      2.308390
   153      2.308390
   154      5.739350
   155      2.308390
   156      2.308390
   157      5.739350
   158      2.308390
   159      2.308390
   160      5.739350
   161      2.308390
   162      2.308390
   163      5.739350
   164      2.308390
   165      2.308390
   166      5.739350
   167      2.308390
   168      2.308390
   169      5.739350
   170      2.308390
   171      2.308390
   172      5.739350
   173      2.308390
   174      2.308390
   175      5.739350
   176      2.308390
   177      2.308390


     ************************************************************************
     ************************** Output from HERINT **************************
     ************************************************************************



                      Nuclear contribution to dipole moments
                      --------------------------------------

                 au               Debye          C m (/(10**-30)

      x    -41.51736044      -105.52659762      -351.99884053
      y    -26.54660804       -67.47474297      -225.07151589
      z     14.81257099        37.64979762       125.58620676


  Time used in HUCKEL     is       0.39 seconds
  Time used in OVERLAP    is       0.96 seconds
  Time used in POPOVLP    is       0.31 seconds
  Time used in DIPLEN     is       0.87 seconds
  Time used in QUADRUP    is       1.45 seconds
  Time used in KINENE     is       0.35 seconds

 Threshold for neglecting two-electron integrals:  1.00D-12
 HERMIT - Number of two-electron integrals written:    28781648 ( 38.4% )
 HERMIT - Megabytes written:                            329.567

  Time used in TWOINT     is      14.13 seconds
  Total CPU  time used in HERMIT:  18.52 seconds
  Total wall time used in HERMIT:   7.41 seconds


                        .----------------------------------.
                        | End of Integral Section (HERMIT) |
                        `----------------------------------'



                   .--------------------------------------------.
                   | Starting in Wave Function Section (SIRIUS) |
                   `--------------------------------------------'

NCCEXCI for singlet:   15
 CCSD_INPUT: core-val requested
 Requested number of core orbs per sym
                     1
 Indices of requested core orbs
                     1

 *** Output from Huckel module :

     Using EWMO model:          T
     Using EHT  model:          F
     Number of Huckel orbitals each symmetry:   36

 EWMO - Energy Weighted Maximum Overlap - is a Huckel type method,
        which normally is better than Extended Huckel Theory.
 Reference: Linderberg and Ohrn, Propagators in Quantum Chemistry (Wiley, 1973)

 Huckel EWMO eigenvalues for symmetry :  1
          -20.684941     -20.684706     -20.684252     -20.684025     -15.674299
           -1.756025      -1.611654      -1.589881      -1.579552      -1.441409
           -0.842181      -0.792638      -0.788212      -0.785638      -0.733949
           -0.710084      -0.685551      -0.681994      -0.678524      -0.658182
           -0.616014      -0.615359      -0.597781      -0.581449      -0.509841
           -0.262033      -0.241275      -0.233933      -0.232595      -0.185109
           -0.180177      -0.170432      -0.167976      -0.157303      -0.142964
           -0.133861

 **********************************************************************
 *SIRIUS* a direct, restricted step, second order MCSCF program       *
 **********************************************************************

 
     Date and time (Linux)  : Wed Jan  2 09:53:04 2019
     Host name              : n-62-23-15                              

 Title lines from ".mol" input file:
                                                                             
                                                                             

 Print level on unit LUPRI =   2 is   0
 Print level on unit LUW4  =   2 is  11

@    (Integral direct) CC calculation.

@    This is a combination run starting with
@              a restricted, closed shell Hartree-Fock calculation


 Initial molecular orbitals are obtained according to
 ".MOSTART EWMO  " input option

@    QM part is embedded in an environment :

@         Model: QMMM

     Wave function specification
     ============================

     For the specification of the Coupled Cluster: see later.

@    Wave function type        --- CC ---
@    Number of closed shell electrons          50
@    Number of electrons in active shells       0
@    Total charge of the molecule               0

@    Spin multiplicity and 2 M_S                1         0
@    Total number of symmetries                 1 (point group: C1 )
@    Reference state symmetry                   1 (irrep name : A  )

     Orbital specifications
     ======================
@    Abelian symmetry species          All |    1
@                                          |  A  
                                       --- |  ---
@    Occupied SCF orbitals              25 |   25
@    Secondary orbitals                131 |  131
@    Total number of orbitals          156 |  156
@    Number of basis functions         156 |  156

     Optimization information
     ========================
@    Number of configurations                 1
@    Number of orbital rotations           3275
     ------------------------------------------
@    Total number of variables             3276

     Maximum number of Fock   iterations      0
     Maximum number of DIIS   iterations     60
     Maximum number of QC-SCF iterations     60
     Threshold for SCF convergence     1.00D-07


 Changes of defaults for CC:
 ---------------------------


 -Implicit frozen core calculation
 -Excitation energies calculated
 -One-photon absorption strengths will be calculated
 -Oscillator strengths calculated
  
* Read MO coefficients from SIRIUS.RST with label "NEWORB  " and header info:  2Jan19  REORTHO 


 ***********************************************
 ***** DIIS acceleration of SCF iterations *****
 ***********************************************

 C1-DIIS algorithm; max error vectors =    8
 -----------------------------------------------------------------------------

 *** DIIS iteration number    1
 RDSUPM called. NFMAT, ISYMDM(1:NFMAT)                     1
                     1

Calculating AOSUPINT
     (Precalculated two-electron integrals are transformed to P-supermatrix elements.
      Threshold for discarding integrals :  1.00D-12 )
  CPU  time used in FORMSUP    is   6.96 seconds
  WALL time used in FORMSUP    is  23.60 seconds

 ITDIIS, energy, error norm, change in energy, scr.thr., difden:
@ DIIS iter.   1    -359.931574240        3.82121D+00   -3.60D+02  -20    F

 (DIIS_RED) Control Parameters C2DIIS =         F NEVC =    1


 (DIIS_RED) B matrix:

               Column   1
       1      14.60164932
    ==== End of matrix output ====

 DIIS C vector; C2DIIS = F, LAMBDA = -1.46D+01
    1.000000
* Read MO coefficients from SIRIUS.RST with label "NEWORB  " and header info:  2Jan19  DIIS   1
      Virial theorem: -V/T =      1.997595
@      MULPOP N      -0.38; H       0.17; H       0.19; H       0.16; O      -0.59; O      -0.66; O      -0.85; O      -0.65; H       0.33; H       0.30; 
@             H       0.32; H       0.35; H       0.32; H       0.32; H       0.33; H       0.34; 
   1  Level shift: doubly occupied orbital energies shifted by -2.00D-01

 DIIS Fock eigenvalues in symmetry 1
      -20.71804      -20.71349      -20.70681      -20.50836      -15.97944
       -1.56377       -1.54291       -1.51816       -1.46347       -1.42232
       -0.97116       -0.95403       -0.92859       -0.92374       -0.89135
       -0.85974       -0.80367       -0.79034       -0.77955       -0.75868
       -0.74237       -0.73958       -0.72837       -0.67277       -0.64178
        0.09716        0.16081        0.19245        0.21676        0.24207
        0.24973        0.27798        0.29995        0.30971        0.34511
        0.37694        0.40208        0.44615        0.52200        0.53696
        0.55350        0.57655        0.58007        0.60406        0.61953
        0.62876        0.65019        0.78855        0.86830        0.88611
        0.93690        0.95459        0.98196        1.02023        1.03467
        1.03916        1.08344        1.09788        1.10861        1.11951
        1.17019        1.17563        1.19805        1.25395        1.28145
        1.31870        1.39254        1.40695        1.45613        1.46943
        1.48120        1.49965        1.52059        1.54416        1.55559
        1.56918        1.66400        1.67185        1.69201        1.70546
        1.73912        1.75383        1.80344        1.84406        1.86210
        1.87053        1.88079        1.94704        1.98547        2.11906
        2.17902        2.19479        2.23073        2.25746        2.28343
        2.30894        2.34017        2.35901        2.43509        2.50068
        2.56106        2.61373        2.62669        2.63976        2.69524
        2.70141        2.74296        2.74727        2.80294        2.82041
        2.84594        2.91423        2.97746        3.07607        3.28822
        3.39227        3.41696        3.43925        3.44339        3.47445
        3.48873        3.50600        3.52964        3.59784        3.62574
        3.63680        3.66158        3.66972        3.96096        4.00050
        4.02016        4.08966        4.19303        4.20229        4.20665
        4.23027        4.53494        5.02277        5.07825        5.35483
        5.35998        5.38873        5.45600        5.70813        5.74511
        5.76750        5.77399        6.05541        6.13054        6.19123
        6.22511       36.82640       51.54978       51.57649       51.57719
       51.77148
 Time used in FCKEIG, thr_jaco:   5.86D-01  6.10D-02  1.67D-04
 CPU and wall times used in FCKEIG, THR_FCKEIG:   5.87D-01  6.10D-02  3.82D-02
 -----------------------------------------------------------------------------

 *** DIIS iteration number    2
 RDSUPM called. NFMAT, ISYMDM(1:NFMAT)                     1
                     1

 ITDIIS, energy, error norm, change in energy, scr.thr., difden:
@ DIIS iter.   2    -360.737881613        9.47467D-01   -8.06D-01  -20    F

 (DIIS_RED) Control Parameters C2DIIS =         F NEVC =    2


 (DIIS_RED) B matrix:

               Column   1     Column   2
       1      14.60164932
       2       0.99398182     0.89769320
    ==== End of matrix output ====

 DIIS C vector; C2DIIS = F, LAMBDA = -8.97D-01
   -0.007126    1.007126
* Read MO coefficients from SIRIUS.RST with label "NEWORB  " and header info:  2Jan19  DIIS   2
      Virial theorem: -V/T =      2.003987
@      MULPOP N      -0.65; H       0.24; H       0.21; H       0.22; O      -0.63; O      -0.55; O      -0.71; O      -0.61; H       0.34; H       0.33; 
@             H       0.32; H       0.25; H       0.29; H       0.33; H       0.31; H       0.32; 
   2  Level shift: doubly occupied orbital energies shifted by -5.00D-02

 DIIS Fock eigenvalues in symmetry 1
      -20.65984      -20.65164      -20.59914      -20.58422      -15.46685
       -1.40879       -1.37091       -1.35434       -1.35227       -1.16083
       -0.77724       -0.74216       -0.72894       -0.71381       -0.66501
       -0.65508       -0.64397       -0.62259       -0.61520       -0.60570
       -0.58449       -0.56168       -0.55144       -0.54699       -0.45680
        0.15368        0.19943        0.22253        0.23469        0.26828
        0.28329        0.30897        0.33083        0.35865        0.37251
        0.40230        0.47880        0.52029        0.56708        0.57961
        0.59148        0.60900        0.61537        0.62931        0.66026
        0.67424        0.72248        0.89859        0.93470        0.96021
        0.97596        0.97904        0.99735        1.00973        1.03768
        1.06911        1.10975        1.13089        1.13139        1.15180
        1.17047        1.22282        1.29507        1.31132        1.34908
        1.36889        1.43114        1.45998        1.50824        1.52335
        1.54557        1.56509        1.57229        1.58008        1.59918
        1.61846        1.69332        1.72428        1.75012        1.76348
        1.78296        1.83644        1.87369        1.91563        1.92391
        1.93604        1.95478        2.03954        2.05378        2.22754
        2.24256        2.25771        2.28507        2.31152        2.34481
        2.38107        2.40356        2.43066        2.52293        2.60903
        2.63410        2.67643        2.69115        2.71182        2.74954
        2.79058        2.81130        2.82288        2.86463        2.88200
        3.00105        3.04954        3.11283        3.22717        3.39634
        3.43619        3.43925        3.47368        3.48381        3.50527
        3.52952        3.54349        3.56913        3.59155        3.61842
        3.65966        3.66690        3.71282        3.98323        4.02551
        4.03859        4.06144        4.14723        4.22693        4.24567
        4.25006        4.71349        5.24394        5.29165        5.31146
        5.34758        5.38002        5.41663        5.62444        5.72805
        5.73954        5.78264        6.07907        6.10496        6.13410
        6.23241       37.18302       51.47574       51.48971       51.51238
       51.56312
 Time used in FCKEIG, thr_jaco:   3.23D-01  3.30D-02  4.14D-05
 CPU and wall times used in FCKEIG, THR_FCKEIG:   3.23D-01  3.30D-02  9.47D-03
 -----------------------------------------------------------------------------

 *** DIIS iteration number    3
 RDSUPM called. NFMAT, ISYMDM(1:NFMAT)                     1
                     1

 ITDIIS, energy, error norm, change in energy, scr.thr., difden:
@ DIIS iter.   3    -360.800684514        3.61816D-01   -6.28D-02  -20    F

 (DIIS_RED) Control Parameters C2DIIS =         F NEVC =    3


 (DIIS_RED) B matrix:

               Column   1     Column   2     Column   3
       1      14.60164932
       2       0.99398182     0.89769320
       3       0.67127426     0.04338684     0.13091112
    ==== End of matrix output ====

 DIIS C vector; C2DIIS = F, LAMBDA = -9.74D-02
   -0.043787    0.112002    0.931785
* Read MO coefficients from SIRIUS.RST with label "NEWORB  " and header info:  2Jan19  DIIS   3
      Virial theorem: -V/T =      2.001624
@      MULPOP N      -0.58; H       0.22; H       0.18; H       0.19; O      -0.71; O      -0.61; O      -0.81; O      -0.66; H       0.38; H       0.36; 
@             H       0.36; H       0.27; H       0.36; H       0.37; H       0.34; H       0.34; 
   3  Level shift: doubly occupied orbital energies shifted by -2.50D-02

 DIIS Fock eigenvalues in symmetry 1
      -20.56912      -20.54471      -20.53857      -20.48861      -15.56885
       -1.36283       -1.33847       -1.31218       -1.28165       -1.16806
       -0.73380       -0.70773       -0.67800       -0.66953       -0.65192
       -0.63365       -0.60677       -0.58548       -0.56701       -0.54675
       -0.53578       -0.50971       -0.50142       -0.48117       -0.44923
        0.15868        0.20327        0.22718        0.24082        0.27262
        0.28645        0.31118        0.33294        0.36041        0.37730
        0.40685        0.47956        0.52151        0.57858        0.59061
        0.59963        0.61887        0.62579        0.63863        0.66862
        0.68166        0.72580        0.89462        0.94452        0.96147
        0.98428        0.99197        1.01949        1.03232        1.05217
        1.07900        1.12264        1.13983        1.14951        1.16399
        1.18082        1.23244        1.30025        1.31090        1.35700
        1.36919        1.44385        1.47026        1.52121        1.53576
        1.55538        1.57257        1.58098        1.59360        1.60687
        1.62803        1.71117        1.73510        1.75870        1.77230
        1.79456        1.84214        1.87915        1.92504        1.93093
        1.94397        1.95841        2.04518        2.06119        2.23832
        2.24155        2.26748        2.30577        2.32106        2.34190
        2.39309        2.41593        2.44129        2.53562        2.61193
        2.64379        2.68622        2.69984        2.72108        2.75798
        2.79778        2.81948        2.82961        2.87307        2.88963
        2.97899        3.04219        3.09962        3.21012        3.43317
        3.45627        3.46136        3.47542        3.49772        3.53322
        3.55203        3.58284        3.58311        3.59198        3.65125
        3.68599        3.68726        3.72708        4.00895        4.04898
        4.07435        4.09034        4.19944        4.25188        4.26221
        4.27712        4.66737        5.20246        5.25711        5.37861
        5.39257        5.40005        5.42975        5.70519        5.74356
        5.77543        5.80904        6.10523        6.17107        6.18545
        6.24766       37.06010       51.54216       51.55280       51.57776
       51.62093
 Time used in FCKEIG, thr_jaco:   3.67D-01  3.80D-02  1.58D-05
 CPU and wall times used in FCKEIG, THR_FCKEIG:   3.67D-01  3.80D-02  3.62D-03
 -----------------------------------------------------------------------------

 *** DIIS iteration number    4
 RDSUPM called. NFMAT, ISYMDM(1:NFMAT)                     1
                     1

 ITDIIS, energy, error norm, change in energy, scr.thr., difden:
@ DIIS iter.   4    -360.809385801        1.19730D-01   -8.70D-03  -20    F

 (DIIS_RED) Control Parameters C2DIIS =         F NEVC =    4


 (DIIS_RED) B matrix:

               Column   1     Column   2     Column   3     Column   4
       1      14.60164932
       2       0.99398182     0.89769320
       3       0.67127426     0.04338684     0.13091112
       4      -0.00245847     0.08599789    -0.01085022     0.01433532
    ==== End of matrix output ====

 DIIS C vector; C2DIIS = F, LAMBDA = -4.08D-03
    0.000450   -0.094123    0.139151    0.954522
* Read MO coefficients from SIRIUS.RST with label "NEWORB  " and header info:  2Jan19  DIIS   4
      Virial theorem: -V/T =      2.002677
@      MULPOP N      -0.65; H       0.23; H       0.20; H       0.21; O      -0.72; O      -0.61; O      -0.79; O      -0.67; H       0.39; H       0.37; 
@             H       0.36; H       0.27; H       0.36; H       0.37; H       0.34; H       0.35; 
   4  Level shift: doubly occupied orbital energies shifted by -1.25D-02

 DIIS Fock eigenvalues in symmetry 1
      -20.57309      -20.53615      -20.53483      -20.51695      -15.52620
       -1.35710       -1.32782       -1.30372       -1.28212       -1.14600
       -0.72610       -0.69701       -0.66847       -0.66359       -0.63340
       -0.61441       -0.59792       -0.57243       -0.55562       -0.54279
       -0.52557       -0.49483       -0.48867       -0.47835       -0.42846
        0.15792        0.20307        0.22622        0.23942        0.27178
        0.28682        0.31182        0.33413        0.36252        0.37621
        0.40754        0.48332        0.52511        0.57676        0.59019
        0.59909        0.61766        0.62496        0.63670        0.66719
        0.68097        0.72826        0.89886        0.94649        0.96583
        0.98534        0.99288        1.01591        1.02987        1.05100
        1.07904        1.12136        1.13942        1.14670        1.16263
        1.18052        1.23127        1.30151        1.31433        1.35675
        1.37154        1.44163        1.47085        1.51822        1.53388
        1.55388        1.57188        1.57976        1.59134        1.60647
        1.62678        1.70860        1.73253        1.75793        1.77124
        1.79385        1.84317        1.88074        1.92375        1.92995
        1.94284        1.96011        2.04758        2.06319        2.23690
        2.24538        2.26454        2.30016        2.31952        2.34621
        2.39032        2.41243        2.43930        2.53572        2.61608
        2.64253        2.68422        2.69858        2.72089        2.75886
        2.79864        2.81850        2.82835        2.87404        2.88811
        2.98904        3.04924        3.10672        3.21827        3.43608
        3.44827        3.45787        3.47533        3.49752        3.52791
        3.55144        3.57445        3.58313        3.59796        3.64008
        3.68173        3.68406        3.72695        4.00416        4.04496
        4.07280        4.08038        4.18857        4.24843        4.26188
        4.27245        4.68133        5.21654        5.27110        5.36710
        5.37535        5.39635        5.42845        5.68494        5.74280
        5.76727        5.80415        6.09969        6.16164        6.16570
        6.24598       37.08973       51.52878       51.54024       51.57405
       51.58212
 Time used in FCKEIG, thr_jaco:   3.50D-01  3.60D-02  5.23D-06
 CPU and wall times used in FCKEIG, THR_FCKEIG:   3.51D-01  3.60D-02  1.20D-03
 -----------------------------------------------------------------------------

 *** DIIS iteration number    5
 RDSUPM called. NFMAT, ISYMDM(1:NFMAT)                     1
                     1

 ITDIIS, energy, error norm, change in energy, scr.thr., difden:
@ DIIS iter.   5    -360.810569605        2.42653D-02   -1.18D-03  -20    F

 (DIIS_RED) Control Parameters C2DIIS =         F NEVC =    5


 (DIIS_RED) B matrix:

               Column   1     Column   2     Column   3     Column   4     Column   5
       1      14.60164932
       2       0.99398182     0.89769320
       3       0.67127426     0.04338684     0.13091112
       4      -0.00245847     0.08599789    -0.01085022     0.01433532
       5       0.01348752     0.00674201     0.00501373     0.00087813     0.00058881
    ==== End of matrix output ====

 DIIS C vector; C2DIIS = F, LAMBDA = -3.26D-04
    0.001429    0.005134   -0.062441   -0.127594    1.183473
* Read MO coefficients from SIRIUS.RST with label "NEWORB  " and header info:  2Jan19  DIIS   5
      Virial theorem: -V/T =      2.002275
@      MULPOP N      -0.64; H       0.23; H       0.20; H       0.21; O      -0.73; O      -0.63; O      -0.81; O      -0.68; H       0.39; H       0.38; 
@             H       0.37; H       0.27; H       0.37; H       0.38; H       0.35; H       0.35; 

 DIIS Fock eigenvalues in symmetry 1
      -20.55870      -20.52174      -20.52129      -20.49873      -15.50893
       -1.34398       -1.31511       -1.29046       -1.26757       -1.13197
       -0.71348       -0.68489       -0.65545       -0.65054       -0.62006
       -0.60080       -0.58513       -0.56001       -0.54265       -0.52861
       -0.51169       -0.48111       -0.47452       -0.46302       -0.41435
        0.15787        0.20301        0.22609        0.23940        0.27160
        0.28697        0.31185        0.33431        0.36291        0.37610
        0.40785        0.48375        0.52548        0.57679        0.59043
        0.59898        0.61759        0.62502        0.63668        0.66714
        0.68083        0.72878        0.89977        0.94724        0.96673
        0.98594        0.99337        1.01718        1.03132        1.05225
        1.07961        1.12157        1.13924        1.14716        1.16334
        1.18119        1.23149        1.30208        1.31504        1.35696
        1.37201        1.44198        1.47147        1.51810        1.53408
        1.55345        1.57209        1.57957        1.59152        1.60639
        1.62653        1.70909        1.73222        1.75778        1.77087
        1.79399        1.84330        1.88088        1.92345        1.92967
        1.94237        1.96043        2.04810        2.06345        2.23641
        2.24599        2.26435        2.30042        2.31897        2.34668
        2.39028        2.41218        2.43885        2.53619        2.61678
        2.64229        2.68362        2.69811        2.72074        2.75882
        2.79869        2.81798        2.82808        2.87398        2.88734
        2.99025        3.05011        3.10770        3.21943        3.43796
        3.44988        3.45856        3.47629        3.49776        3.52838
        3.55226        3.57638        3.58320        3.59949        3.64207
        3.68226        3.68467        3.72705        4.00464        4.04547
        4.07316        4.08204        4.19074        4.24907        4.26197
        4.27303        4.68372        5.21871        5.27323        5.36963
        5.37750        5.39779        5.42922        5.68808        5.74300
        5.76821        5.80529        6.10059        6.16246        6.16844
        6.24598       37.09440       51.53077       51.54243       51.57524
       51.58714
 Time used in FCKEIG, thr_jaco:   2.71D-01  2.80D-02  1.06D-06
 CPU and wall times used in FCKEIG, THR_FCKEIG:   2.71D-01  2.80D-02  2.43D-04
 -----------------------------------------------------------------------------

 *** DIIS iteration number    6
 RDSUPM called. NFMAT, ISYMDM(1:NFMAT)                     1
                     1

 ITDIIS, energy, error norm, change in energy, scr.thr., difden:
@ DIIS iter.   6    -360.810655758        7.70702D-03   -8.62D-05  -20    F

 (DIIS_RED) Control Parameters C2DIIS =         F NEVC =    6


 (DIIS_RED) B matrix:

               Column   1     Column   2     Column   3     Column   4     Column   5     Column   6
       1      14.60164932
       2       0.99398182     0.89769320
       3       0.67127426     0.04338684     0.13091112
       4      -0.00245847     0.08599789    -0.01085022     0.01433532
       5       0.01348752     0.00674201     0.00501373     0.00087813     0.00058881
       6      -0.00271002    -0.00037711     0.00055923     0.00019966     0.00006682     0.00005940
    ==== End of matrix output ====

 DIIS C vector; C2DIIS = F, LAMBDA = -3.31D-05
    0.000496    0.007734   -0.021990   -0.083604    0.162145    0.935219
* Read MO coefficients from SIRIUS.RST with label "NEWORB  " and header info:  2Jan19  DIIS   6
      Virial theorem: -V/T =      2.002415
@      MULPOP N      -0.64; H       0.23; H       0.20; H       0.20; O      -0.74; O      -0.63; O      -0.82; O      -0.68; H       0.39; H       0.38; 
@             H       0.37; H       0.27; H       0.37; H       0.38; H       0.35; H       0.36; 

 DIIS Fock eigenvalues in symmetry 1
      -20.55936      -20.52247      -20.52195      -20.50055      -15.51247
       -1.34416       -1.31512       -1.29082       -1.26801       -1.13309
       -0.71380       -0.68507       -0.65599       -0.65106       -0.62099
       -0.60165       -0.58552       -0.56019       -0.54322       -0.52915
       -0.51182       -0.48096       -0.47475       -0.46327       -0.41533
        0.15771        0.20291        0.22596        0.23930        0.27148
        0.28683        0.31172        0.33419        0.36271        0.37597
        0.40767        0.48337        0.52509        0.57662        0.59019
        0.59881        0.61744        0.62480        0.63644        0.66692
        0.68072        0.72844        0.89915        0.94693        0.96627
        0.98565        0.99316        1.01691        1.03112        1.05194
        1.07936        1.12130        1.13912        1.14685        1.16296
        1.18103        1.23115        1.30172        1.31454        1.35680
        1.37158        1.44174        1.47108        1.51789        1.53375
        1.55329        1.57172        1.57924        1.59126        1.60615
        1.62626        1.70884        1.73200        1.75745        1.77070
        1.79374        1.84294        1.88054        1.92321        1.92935
        1.94216        1.96002        2.04771        2.06313        2.23602
        2.24536        2.26400        2.30005        2.31876        2.34605
        2.38993        2.41182        2.43867        2.53580        2.61627
        2.64197        2.68330        2.69790        2.72048        2.75852
        2.79840        2.81775        2.82774        2.87374        2.88701
        2.98915        3.04936        3.10683        3.21845        3.43716
        3.44915        3.45820        3.47563        3.49765        3.52809
        3.55167        3.57579        3.58308        3.59833        3.64152
        3.68198        3.68421        3.72697        4.00430        4.04507
        4.07297        4.08149        4.19008        4.24866        4.26187
        4.27269        4.68191        5.21703        5.27157        5.36895
        5.37688        5.39714        5.42898        5.68714        5.74287
        5.76780        5.80462        6.09990        6.16203        6.16752
        6.24582       37.09093       51.52996       51.54141       51.57489
       51.58548
 Time used in FCKEIG, thr_jaco:   5.94D-01  6.40D-02  3.37D-07
 CPU and wall times used in FCKEIG, THR_FCKEIG:   5.94D-01  6.40D-02  7.71D-05
 -----------------------------------------------------------------------------

 *** DIIS iteration number    7
 RDSUPM called. NFMAT, ISYMDM(1:NFMAT)                     1
                     1

 ITDIIS, energy, error norm, change in energy, scr.thr., difden:
@ DIIS iter.   7    -360.810661878        2.41367D-03   -6.12D-06  -20    F

 (DIIS_RED) Control Parameters C2DIIS =         F NEVC =    7


 (DIIS_RED) B matrix:

               Column   1     Column   2     Column   3     Column   4     Column   5     Column   6
       1      14.60164932
       2       0.99398182     0.89769320
       3       0.67127426     0.04338684     0.13091112
       4      -0.00245847     0.08599789    -0.01085022     0.01433532
       5       0.01348752     0.00674201     0.00501373     0.00087813     0.00058881
       6      -0.00271002    -0.00037711     0.00055923     0.00019966     0.00006682     0.00005940
       7       0.00083500     0.00000388     0.00009277    -0.00000524     0.00003534    -0.00000054

               Column   7
       7       0.00000583
    ==== End of matrix output ====

 DIIS C vector; C2DIIS = F, LAMBDA = -1.37D-06
   -0.000215   -0.001227    0.008458    0.023249   -0.154558    0.031483    1.092810
* Read MO coefficients from SIRIUS.RST with label "NEWORB  " and header info:  2Jan19  DIIS   7
      Virial theorem: -V/T =      2.002381
@      MULPOP N      -0.64; H       0.23; H       0.20; H       0.21; O      -0.74; O      -0.63; O      -0.82; O      -0.69; H       0.39; H       0.38; 
@             H       0.37; H       0.27; H       0.37; H       0.38; H       0.35; H       0.36; 

 DIIS Fock eigenvalues in symmetry 1
      -20.55927      -20.52221      -20.52194      -20.49994      -15.51179
       -1.34412       -1.31508       -1.29071       -1.26770       -1.13285
       -0.71378       -0.68507       -0.65588       -0.65092       -0.62084
       -0.60151       -0.58555       -0.56024       -0.54320       -0.52895
       -0.51173       -0.48087       -0.47459       -0.46294       -0.41508
        0.15773        0.20294        0.22598        0.23935        0.27149
        0.28687        0.31176        0.33423        0.36275        0.37597
        0.40775        0.48347        0.52517        0.57664        0.59029
        0.59883        0.61748        0.62487        0.63649        0.66694
        0.68075        0.72852        0.89926        0.94700        0.96640
        0.98571        0.99322        1.01706        1.03128        1.05210
        1.07942        1.12135        1.13914        1.14693        1.16308
        1.18110        1.23119        1.30182        1.31462        1.35685
        1.37168        1.44180        1.47119        1.51789        1.53384
        1.55329        1.57177        1.57926        1.59137        1.60619
        1.62627        1.70899        1.73200        1.75748        1.77072
        1.79386        1.84300        1.88062        1.92323        1.92935
        1.94217        1.96010        2.04779        2.06322        2.23601
        2.24546        2.26402        2.30016        2.31877        2.34615
        2.38995        2.41182        2.43867        2.53590        2.61638
        2.64200        2.68328        2.69791        2.72055        2.75856
        2.79844        2.81776        2.82776        2.87382        2.88698
        2.98937        3.04950        3.10700        3.21863        3.43742
        3.44938        3.45826        3.47576        3.49768        3.52814
        3.55180        3.57607        3.58311        3.59858        3.64180
        3.68203        3.68431        3.72700        4.00435        4.04514
        4.07304        4.08174        4.19040        4.24875        4.26191
        4.27276        4.68230        5.21734        5.27189        5.36920
        5.37711        5.39730        5.42905        5.68752        5.74289
        5.76787        5.80476        6.10004        6.16210        6.16789
        6.24584       37.09160       51.53010       51.54162       51.57495
       51.58604
 Time used in FCKEIG, thr_jaco:   3.33D-01  3.40D-02  1.05D-07
 CPU and wall times used in FCKEIG, THR_FCKEIG:   3.34D-01  3.40D-02  2.41D-05
 -----------------------------------------------------------------------------

 *** DIIS iteration number    8
 RDSUPM called. NFMAT, ISYMDM(1:NFMAT)                     1
                     1

 ITDIIS, energy, error norm, change in energy, scr.thr., difden:
@ DIIS iter.   8    -360.810662458        3.70325D-04   -5.80D-07  -20    F

 (DIIS_RED) Control Parameters C2DIIS =         F NEVC =    8


 (DIIS_RED) B matrix:

               Column   1     Column   2     Column   3     Column   4     Column   5     Column   6
       1      14.60164932
       2       0.99398182     0.89769320
       3       0.67127426     0.04338684     0.13091112
       4      -0.00245847     0.08599789    -0.01085022     0.01433532
       5       0.01348752     0.00674201     0.00501373     0.00087813     0.00058881
       6      -0.00271002    -0.00037711     0.00055923     0.00019966     0.00006682     0.00005940
       7       0.00083500     0.00000388     0.00009277    -0.00000524     0.00003534    -0.00000054
       8      -0.00000791    -0.00000282    -0.00000292     0.00000324     0.00000096     0.00000143

               Column   7     Column   8
       7       0.00000583
       8       0.00000028     0.00000014
    ==== End of matrix output ====

 DIIS C vector; C2DIIS = F, LAMBDA = -7.83D-08
    0.000009   -0.000053   -0.000407   -0.000727    0.016034   -0.039615   -0.138948    1.163707
* Read MO coefficients from SIRIUS.RST with label "NEWORB  " and header info:  2Jan19  DIIS   8
      Virial theorem: -V/T =      2.002398
@      MULPOP N      -0.64; H       0.23; H       0.20; H       0.21; O      -0.74; O      -0.63; O      -0.82; O      -0.69; H       0.39; H       0.38; 
@             H       0.37; H       0.27; H       0.37; H       0.38; H       0.35; H       0.36; 

 DIIS Fock eigenvalues in symmetry 1
      -20.55924      -20.52227      -20.52194      -20.49996      -15.51182
       -1.34410       -1.31508       -1.29073       -1.26771       -1.13286
       -0.71376       -0.68506       -0.65588       -0.65093       -0.62086
       -0.60151       -0.58555       -0.56025       -0.54323       -0.52896
       -0.51172       -0.48087       -0.47460       -0.46293       -0.41510
        0.15773        0.20294        0.22597        0.23935        0.27148
        0.28687        0.31175        0.33423        0.36275        0.37597
        0.40775        0.48346        0.52517        0.57664        0.59028
        0.59883        0.61748        0.62487        0.63649        0.66694
        0.68074        0.72852        0.89926        0.94700        0.96639
        0.98570        0.99321        1.01705        1.03128        1.05209
        1.07942        1.12135        1.13914        1.14693        1.16309
        1.18110        1.23119        1.30181        1.31462        1.35685
        1.37167        1.44180        1.47118        1.51789        1.53383
        1.55328        1.57177        1.57925        1.59137        1.60619
        1.62625        1.70898        1.73200        1.75746        1.77071
        1.79385        1.84300        1.88061        1.92322        1.92934
        1.94216        1.96010        2.04779        2.06321        2.23599
        2.24545        2.26402        2.30016        2.31876        2.34614
        2.38995        2.41181        2.43866        2.53589        2.61637
        2.64199        2.68327        2.69790        2.72055        2.75856
        2.79844        2.81775        2.82776        2.87381        2.88697
        2.98935        3.04948        3.10699        3.21862        3.43741
        3.44937        3.45826        3.47575        3.49768        3.52815
[...]
    ==== End of matrix output ====


 CCSD   oscillator strength matrix for state nr. 13 of symmetry 1
 CCSD  excitation energy:15.13057819


               Column   1     Column   2     Column   3
       1     6.038845D-05   1.511621D-04   1.402875D-04
       2     1.511621D-04   3.783538D-04   3.511352D-04
       3     1.402875D-04   3.511352D-04   3.258748D-04
    ==== End of matrix output ====

 Principal values of diagonalized oscillator strength matrix:

             a.u.               
 1      -0.00000000
 2       0.00000000
 3       0.00076462

 Principal axis of diagonalized oscillator strength matrix:


               Column   1     Column   2     Column   3
       1       0.95958282    -0.01474298     0.28103995
       2      -0.21642251    -0.67700515     0.70343822
       3      -0.17989472     0.73583060     0.65283322
    ==== End of matrix output ====


 CCSD  Transition strength matrix for state nr. 14 of symmetry 1
 CCSD  excitation energy:15.22746369

 Gauge: length

               Column   1     Column   2     Column   3
       1     1.053572D-05   1.711447D-05  -1.927906D-05
       2     1.711447D-05   2.780076D-05  -3.131789D-05
       3    -1.927906D-05  -3.131789D-05   3.527766D-05
    ==== End of matrix output ====

 Principal values of diagonalized transition strength matrix:

             a.u.               
 1      -0.00000000
 2       0.00000000
 3       0.00007362

 Principal axis of diagonalized transition strength matrix:


               Column   1     Column   2     Column   3
       1       0.06241333     0.92357225    -0.37831056
       2       0.72920472    -0.30100347    -0.61453836
       3       0.68144336     0.23751046     0.69225987
    ==== End of matrix output ====


 CCSD   oscillator strength matrix for state nr. 14 of symmetry 1
 CCSD  excitation energy:15.22746369


               Column   1     Column   2     Column   3
       1     1.069548D-04   1.737400D-04  -1.957141D-04
       2     1.737400D-04   2.822234D-04  -3.179280D-04
       3    -1.957141D-04  -3.179280D-04   3.581261D-04
    ==== End of matrix output ====

 Principal values of diagonalized oscillator strength matrix:

             a.u.               
 1      -0.00000001
 2      -0.00000000
 3       0.00074731

 Principal axis of diagonalized oscillator strength matrix:


               Column   1     Column   2     Column   3
       1       0.06241333     0.92357225    -0.37831056
       2       0.72920472    -0.30100347    -0.61453836
       3       0.68144336     0.23751046     0.69225987
    ==== End of matrix output ====


 CCSD  Transition strength matrix for state nr. 15 of symmetry 1
 CCSD  excitation energy:15.28426951

 Gauge: length

               Column   1     Column   2     Column   3
       1     8.437868D-05   1.128640D-04   4.643521D-05
       2     1.128640D-04   1.509437D-04   6.212001D-05
       3     4.643521D-05   6.212001D-05   2.555067D-05
    ==== End of matrix output ====

 Principal values of diagonalized transition strength matrix:

             a.u.               
 1      -0.00000002
 2      -0.00000000
 3       0.00026089

 Principal axis of diagonalized transition strength matrix:


               Column   1     Column   2     Column   3
       1       0.41489000     0.71023141     0.56871578
       2      -0.59385496    -0.26218470     0.76065463
       3       0.68934939    -0.65332268     0.31299663
    ==== End of matrix output ====


 CCSD   oscillator strength matrix for state nr. 15 of symmetry 1
 CCSD  excitation energy:15.28426951


               Column   1     Column   2     Column   3
       1       0.00085978     0.00115003     0.00047315
       2       0.00115003     0.00153804     0.00063297
       3       0.00047315     0.00063297     0.00026035
    ==== End of matrix output ====

 Principal values of diagonalized oscillator strength matrix:

             a.u.               
 1      -0.00000017
 2      -0.00000000
 3       0.00265834

 Principal axis of diagonalized oscillator strength matrix:


               Column   1     Column   2     Column   3
       1       0.41489000     0.71023141     0.56871578
       2      -0.59385496    -0.26218470     0.76065463
       3       0.68934939    -0.65332268     0.31299663
    ==== End of matrix output ====

  Total time for    135 linear response residues:     110.06 seconds.
  

 *******************************************************************************
 *******************************************************************************
 *                                                                             *
 *                                                                             *
 *                   SUMMARY OF COUPLED CLUSTER CALCULATION                    *
 *                                                                             *
 *                                                                             *
 *******************************************************************************
 *******************************************************************************

                                                                                
                                                                                
            Total SCF   energy:                  -360.8106624785                
            Total MP2   energy:                  -361.9131027999                
            Total CCSD  energy:                  -361.9520078122                
                                                                                
                                                                                
            Total SCF   energy:                  -360.8106624785                
            Total RSTAR energy:                  -361.9520078122                
            Total CCSD  energy:                  -361.9521458468                
                                                                                
                                                                                
            Total SCF   energy:                  -360.8106624785                
            Total RSTAR energy:                  -361.9521458468                
            Total CCSD  energy:                  -361.9521479882                
                                                                                
                                                                                
            Total SCF   energy:                  -360.8106624785                
            Total RSTAR energy:                  -361.9521479882                
            Total CCSD  energy:                  -361.9521481369                
                                                                                
                                                                                
            Total SCF   energy:                  -360.8106624785                
            Total RSTAR energy:                  -361.9521481369                
            Total CCSD  energy:                  -361.9521481460                
                                                                                
                                                                                
            Total SCF   energy:                  -360.8106624785                
            Total RSTAR energy:                  -361.9521481460                
            Total CCSD  energy:                  -361.9521481465                
                                                                                
                                                                                
            Total SCF   energy:                  -360.8106624785                
            Total RSTAR energy:                  -361.9521481465                
            Total CCSD  energy:                  -361.9521481465                
            CCSD Total  energy:                  -362.4153901653                
            CCSD E(QM/MM)     :                    -0.4574456586                
                                                                                
                                                                                
                                                                                
 +=============================================================================+
 |  sym. | Exci.  |        CCSD       Excitation energies            | ||T1||  |
 |(spin, |        +------------------------------------------------------------+
 | spat) |        |     Hartree    |       eV.      |     cm-1       |    %    |
 +=============================================================================+
 | ^1A   |    1   |    14.8222631  |     403.33430  |   3253110.706  |  88.39  |
 | ^1A   |    2   |    14.8831397  |     404.99083  |   3266471.577  |  88.76  |
 | ^1A   |    3   |    14.9185538  |     405.95450  |   3274244.068  |  88.90  |
 | ^1A   |    4   |    14.9467801  |     406.72258  |   3280439.030  |  88.42  |
 | ^1A   |    5   |    14.9951937  |     408.03998  |   3291064.589  |  88.27  |
 | ^1A   |    6   |    15.0041074  |     408.28253  |   3293020.910  |  87.99  |
 | ^1A   |    7   |    15.0217969  |     408.76389  |   3296903.311  |  88.01  |
 | ^1A   |    8   |    15.0443165  |     409.37668  |   3301845.793  |  87.90  |
 | ^1A   |    9   |    15.0564919  |     409.70799  |   3304517.979  |  88.05  |
 | ^1A   |   10   |    15.0893824  |     410.60298  |   3311736.615  |  88.26  |
 | ^1A   |   11   |    15.1079546  |     411.10836  |   3315812.746  |  88.04  |
 | ^1A   |   12   |    15.1128835  |     411.24248  |   3316894.505  |  88.04  |
 | ^1A   |   13   |    15.1305782  |     411.72398  |   3320778.039  |  87.80  |
 | ^1A   |   14   |    15.2274637  |     414.36037  |   3342041.950  |  88.05  |
 | ^1A   |   15   |    15.2842695  |     415.90613  |   3354509.385  |  87.91  |
 +=============================================================================+
                                                                                
                                                                                
     Total energies in Hartree:                                                 
             1 ^1A       -347.1356813809                                        
             2 ^1A       -347.0748047722                                        
             3 ^1A       -347.0393906977                                        
             4 ^1A       -347.0111643731                                        
             5 ^1A       -346.9627507617                                        
             6 ^1A       -346.9538371085                                        
             7 ^1A       -346.9361475847                                        
             8 ^1A       -346.9136279803                                        
             9 ^1A       -346.9014526056                                        
            10 ^1A       -346.8685620812                                        
            11 ^1A       -346.8499898600                                        
            12 ^1A       -346.8450610061                                        
            13 ^1A       -346.8273663191                                        
            14 ^1A       -346.7304808137                                        
            15 ^1A       -346.6736749975                                        
                                                                                
                                                                                
 +=============================================================================+
 |  sym. | Exci.  |        CCSD       Length   Gauge Oscillator Strength       |
 |(spin, |        +------------------------------------------------------------+
 | spat) |        | Dipole Strength(a.u.) | Oscillator strength  | Direction   |
 +=============================================================================+
 | ^1A   |    1   |        0.0006058      |      0.0059858       |  (Y,Z)      |
 | ^1A   |    2   |        0.0030101      |      0.0298666       |  (Y,Z)      |
 | ^1A   |    3   |        0.0035094      |      0.0349030       |  (Y,Z)      |
 | ^1A   |    4   |        0.0013146      |      0.0130998       |  (Y,Z)      |
 | ^1A   |    5   |        0.0010628      |      0.0106247       |  (Y,Z)      |
 | ^1A   |    6   |        0.0003719      |      0.0037198       |  (Y,Z)      |
 | ^1A   |    7   |        0.0002862      |      0.0028657       |  (Y,Z)      |
 | ^1A   |    8   |        0.0002689      |      0.0026967       |  (Y,Z)      |
 | ^1A   |    9   |        0.0004566      |      0.0045828       |  (Y,Z)      |
 | ^1A   |   10   |        0.0010991      |      0.0110561       |  (Y,Z)      |
 | ^1A   |   11   |        0.0000950      |      0.0009569       |  (Y,Z)      |
 | ^1A   |   12   |        0.0003090      |      0.0031131       |  (Y,Z)      |
 | ^1A   |   13   |        0.0000758      |      0.0007646       |  (Y,Z)      |
 | ^1A   |   14   |        0.0000736      |      0.0007473       |  (Y,Z)      |
 | ^1A   |   15   |        0.0002609      |      0.0026582       |  (Y,Z)      |
 +=============================================================================+

  1 a.u. =        27.21138 eV.  
  1 a.u. =    219474.62934 cm-1.
  

 *******************************************************************************
 *******************************************************************************
 *                                                                             *
 *                                                                             *
 *                      END OF COUPLED CLUSTER CALCULATION                     *
 *                                                                             *
 *                                                                             *
 *******************************************************************************
 *******************************************************************************


 CPU and wall time for CC :  653090.226  104185.926

 
     Date and time (Linux)  : Thu Jan  3 14:53:13 2019
     Host name              : n-62-23-15                              


                      .-------------------------------------.
                      | End of Coupled Cluster Section (CC) |
                      `-------------------------------------'

  Total CPU  time used in DALTON: 181 hours 37 minutes 12 seconds
  Total wall time used in DALTON:  29 hours  0 minutes 17 seconds

 
     Date and time (Linux)  : Thu Jan  3 14:53:13 2019
     Host name              : n-62-23-15                              
  

 +---------------------------------------------------------+ 
 | List of selected calculated molecular properties (a.u.) | 
 +---------------------------------------------------------+ 

  Properties are read from unit number                      4

 CCSD       properties :
 #  1 1 CCSD/MM  Ground state Energy =    -362.4153901653
 #  2 1 E_QM/MM  Ground state Energy =      -0.4574456586
 #  3 1 Sy: 1 Sp: 1 Exc:  1 E_tot:   -347.1356813809 w:     14.8222631258 E_grs:   -361.9579445066
 #  4 1 Exctot   Excited state Energy =    -347.1356813809
 #  5 1 Sy: 1 Sp: 1 Exc:  2 E_tot:   -347.0748047722 w:     14.8831397344 E_grs:   -361.9579445066
 #  6 1 Exctot   Excited state Energy =    -347.0748047722
 #  7 1 Sy: 1 Sp: 1 Exc:  3 E_tot:   -347.0393906977 w:     14.9185538090 E_grs:   -361.9579445066
 #  8 1 Exctot   Excited state Energy =    -347.0393906977
 #  9 1 Sy: 1 Sp: 1 Exc:  4 E_tot:   -347.0111643731 w:     14.9467801336 E_grs:   -361.9579445066
 # 10 1 Exctot   Excited state Energy =    -347.0111643731
 # 11 1 Sy: 1 Sp: 1 Exc:  5 E_tot:   -346.9627507617 w:     14.9951937449 E_grs:   -361.9579445066
 # 12 1 Exctot   Excited state Energy =    -346.9627507617
 # 13 1 Sy: 1 Sp: 1 Exc:  6 E_tot:   -346.9538371085 w:     15.0041073981 E_grs:   -361.9579445066
 # 14 1 Exctot   Excited state Energy =    -346.9538371085
 # 15 1 Sy: 1 Sp: 1 Exc:  7 E_tot:   -346.9361475847 w:     15.0217969220 E_grs:   -361.9579445066
 # 16 1 Exctot   Excited state Energy =    -346.9361475847
 # 17 1 Sy: 1 Sp: 1 Exc:  8 E_tot:   -346.9136279803 w:     15.0443165263 E_grs:   -361.9579445066
 # 18 1 Exctot   Excited state Energy =    -346.9136279803
 # 19 1 Sy: 1 Sp: 1 Exc:  9 E_tot:   -346.9014526056 w:     15.0564919011 E_grs:   -361.9579445066
 # 20 1 Exctot   Excited state Energy =    -346.9014526056
 # 21 1 Sy: 1 Sp: 1 Exc: 10 E_tot:   -346.8685620812 w:     15.0893824255 E_grs:   -361.9579445066
 # 22 1 Exctot   Excited state Energy =    -346.8685620812
 # 23 1 Sy: 1 Sp: 1 Exc: 11 E_tot:   -346.8499898600 w:     15.1079546466 E_grs:   -361.9579445066
 # 24 1 Exctot   Excited state Energy =    -346.8499898600
 # 25 1 Sy: 1 Sp: 1 Exc: 12 E_tot:   -346.8450610061 w:     15.1128835005 E_grs:   -361.9579445066
 # 26 1 Exctot   Excited state Energy =    -346.8450610061
 # 27 1 Sy: 1 Sp: 1 Exc: 13 E_tot:   -346.8273663191 w:     15.1305781875 E_grs:   -361.9579445066
 # 28 1 Exctot   Excited state Energy =    -346.8273663191
 # 29 1 Sy: 1 Sp: 1 Exc: 14 E_tot:   -346.7304808137 w:     15.2274636929 E_grs:   -361.9579445066
 # 30 1 Exctot   Excited state Energy =    -346.7304808137
 # 31 1 Sy: 1 Sp: 1 Exc: 15 E_tot:   -346.6736749975 w:     15.2842695091 E_grs:   -361.9579445066
 # 32 1 Exctot   Excited state Energy =    -346.6736749975
 # 33 1 |<O|XDIPLEN |i(14.822263)>| =     0.01219735
 # 35 1 |<O|XDIPLEN |i(14.883140)>| =     0.02877635
 # 37 1 |<O|XDIPLEN |i(14.918554)>| =     0.04783230
 # 39 1 |<O|XDIPLEN |i(14.946780)>| =     0.01682923
 # 41 1 |<O|XDIPLEN |i(14.995194)>| =     0.00638119
 # 43 1 |<O|XDIPLEN |i(15.004107)>| =     0.01880444
 # 45 1 |<O|XDIPLEN |i(15.021797)>| =     0.00456449
 # 47 1 |<O|XDIPLEN |i(15.044317)>| =     0.01385915
 # 49 1 |<O|XDIPLEN |i(15.056492)>| =     0.00390442
 # 51 1 |<O|XDIPLEN |i(15.089382)>| =     0.01203480
 # 53 1 |<O|XDIPLEN |i(15.107955)>| =     0.00195597
 # 55 1 |<O|XDIPLEN |i(15.112884)>| =     0.00910280
 # 57 1 |<O|XDIPLEN |i(15.130578)>| =     0.00244678
 # 59 1 |<O|XDIPLEN |i(15.227464)>| =     0.00324588
 # 61 1 |<O|XDIPLEN |i(15.284270)>| =     0.00918579
 # 63 1 |<O|YDIPLEN |i(14.822263)>| =     0.01753617
 # 65 1 |<O|YDIPLEN |i(14.883140)>| =     0.02170422
 # 67 1 |<O|YDIPLEN |i(14.918554)>| =     0.00183156
 # 69 1 |<O|YDIPLEN |i(14.946780)>| =     0.01905307
 # 71 1 |<O|YDIPLEN |i(14.995194)>| =     0.03187104
 # 73 1 |<O|YDIPLEN |i(15.004107)>| =     0.00404762
 # 75 1 |<O|YDIPLEN |i(15.021797)>| =     0.00255004
 # 77 1 |<O|YDIPLEN |i(15.044317)>| =     0.00865757
 # 79 1 |<O|YDIPLEN |i(15.056492)>| =     0.01246795
 # 81 1 |<O|YDIPLEN |i(15.089382)>| =     0.03080919
 # 83 1 |<O|YDIPLEN |i(15.107955)>| =     0.00605023
 # 85 1 |<O|YDIPLEN |i(15.112884)>| =     0.01014337
 # 87 1 |<O|YDIPLEN |i(15.130578)>| =     0.00612445
 # 89 1 |<O|YDIPLEN |i(15.227464)>| =     0.00527264
 # 91 1 |<O|YDIPLEN |i(15.284270)>| =     0.01228592
 # 93 1 |<O|ZDIPLEN |i(14.822263)>| =     0.01222546
 # 95 1 |<O|ZDIPLEN |i(14.883140)>| =     0.04136369
 # 97 1 |<O|ZDIPLEN |i(14.918554)>| =     0.03490089
 # 99 1 |<O|ZDIPLEN |i(14.946780)>| =     0.02585340
 #101 1 |<O|ZDIPLEN |i(14.995194)>| =     0.00251450
 #103 1 |<O|ZDIPLEN |i(15.004107)>| =     0.00137461
 #105 1 |<O|ZDIPLEN |i(15.021797)>| =     0.01608794
 #107 1 |<O|ZDIPLEN |i(15.044317)>| =     0.00135742
 #109 1 |<O|ZDIPLEN |i(15.056492)>| =     0.01690760
 #111 1 |<O|ZDIPLEN |i(15.089382)>| =     0.00224073
 #113 1 |<O|ZDIPLEN |i(15.107955)>| =     0.00738721
 #115 1 |<O|ZDIPLEN |i(15.112884)>| =     0.01110128
 #117 1 |<O|ZDIPLEN |i(15.130578)>| =     0.00568386
 #119 1 |<O|ZDIPLEN |i(15.227464)>| =     0.00593950
 #121 1 |<O|ZDIPLEN |i(15.284270)>| =     0.00505477

 THE_END   
