

     ************************************************************************
     *************** Dalton - An Electronic Structure Program ***************
     ************************************************************************

    This is output from DALTON release Dalton2017.alpha (2016)
         ( Web site: http://daltonprogram.org )

   ----------------------------------------------------------------------------

    NOTE:
     
    Dalton is an experimental code for the evaluation of molecular
    properties using (MC)SCF, DFT, CI, and CC wave functions.
    The authors accept no responsibility for the performance of
    the code or for the correctness of the results.
     
    The code (in whole or part) is provided under a licence and
    is not to be reproduced for further distribution without
    the written permission of the authors or their representatives.
     
    See the home page "http://daltonprogram.org" for further information.
     
    If results obtained with this code are published,
    the appropriate citations would be both of:
     
       K. Aidas, C. Angeli, K. L. Bak, V. Bakken, R. Bast,
       L. Boman, O. Christiansen, R. Cimiraglia, S. Coriani,
       P. Dahle, E. K. Dalskov, U. Ekstroem,
       T. Enevoldsen, J. J. Eriksen, P. Ettenhuber, B. Fernandez,
       L. Ferrighi, H. Fliegl, L. Frediani, K. Hald, A. Halkier,
       C. Haettig, H. Heiberg, T. Helgaker, A. C. Hennum,
       H. Hettema, E. Hjertenaes, S. Hoest, I.-M. Hoeyvik,
       M. F. Iozzi, B. Jansik, H. J. Aa. Jensen, D. Jonsson,
       P. Joergensen, J. Kauczor, S. Kirpekar,
       T. Kjaergaard, W. Klopper, S. Knecht, R. Kobayashi, H. Koch,
       J. Kongsted, A. Krapp, K. Kristensen, A. Ligabue,
       O. B. Lutnaes, J. I. Melo, K. V. Mikkelsen, R. H. Myhre,
       C. Neiss, C. B. Nielsen, P. Norman, J. Olsen,
       J. M. H. Olsen, A. Osted, M. J. Packer, F. Pawlowski,
       T. B. Pedersen, P. F. Provasi, S. Reine, Z. Rinkevicius,
       T. A. Ruden, K. Ruud, V. Rybkin, P. Salek, C. C. M. Samson,
       A. Sanchez de Meras, T. Saue, S. P. A. Sauer,
       B. Schimmelpfennig, K. Sneskov, A. H. Steindal,
       K. O. Sylvester-Hvid, P. R. Taylor, A. M. Teale,
       E. I. Tellgren, D. P. Tew, A. J. Thorvaldsen, L. Thoegersen,
       O. Vahtras, M. A. Watson, D. J. D. Wilson, M. Ziolkowski
       and H. Agren,
       "The Dalton quantum chemistry program system",
       WIREs Comput. Mol. Sci. 2014, 4:269–284 (doi: 10.1002/wcms.1172)
     
    and
     
       Dalton, a Molecular Electronic Structure Program,
       Release Dalton2017.alpha (2016), see http://daltonprogram.org
   ----------------------------------------------------------------------------

    Authors in alphabetical order (major contribution(s) in parenthesis):

  Kestutis Aidas,           Vilnius University,           Lithuania   (QM/MM)
  Celestino Angeli,         University of Ferrara,        Italy       (NEVPT2)
  Keld L. Bak,              UNI-C,                        Denmark     (AOSOPPA, non-adiabatic coupling, magnetic properties)
  Vebjoern Bakken,          University of Oslo,           Norway      (DALTON; geometry optimizer, symmetry detection)
  Radovan Bast,             UiT The Arctic U. of Norway,  Norway      (DALTON installation and execution frameworks)
  Pablo Baudin,             University of Valencia,       Spain       (Cholesky excitation energies)
  Linus Boman,              NTNU,                         Norway      (Cholesky decomposition and subsystems)
  Ove Christiansen,         Aarhus University,            Denmark     (CC module)
  Renzo Cimiraglia,         University of Ferrara,        Italy       (NEVPT2)
  Sonia Coriani,            University of Trieste,        Italy       (CC module, MCD in RESPONS)
  Janusz Cukras,            University of Trieste,        Italy       (MChD in RESPONS)
  Paal Dahle,               University of Oslo,           Norway      (Parallelization)
  Erik K. Dalskov,          UNI-C,                        Denmark     (SOPPA)
  Thomas Enevoldsen,        Univ. of Southern Denmark,    Denmark     (SOPPA)
  Janus J. Eriksen,         Aarhus University,            Denmark     (Polarizable embedding model, TDA)
  Rasmus Faber,             University of Copenhagen,     Denmark     (Vib.avg. NMR with SOPPA, parallel AO-SOPPA)
  Berta Fernandez,          U. of Santiago de Compostela, Spain       (doublet spin, ESR in RESPONS)
  Lara Ferrighi,            Aarhus University,            Denmark     (PCM Cubic response)
  Heike Fliegl,             University of Oslo,           Norway      (CCSD(R12))
  Luca Frediani,            UiT The Arctic U. of Norway,  Norway      (PCM)
  Bin Gao,                  UiT The Arctic U. of Norway,  Norway      (Gen1Int library)
  Christof Haettig,         Ruhr-University Bochum,       Germany     (CC module)
  Kasper Hald,              Aarhus University,            Denmark     (CC module)
  Asger Halkier,            Aarhus University,            Denmark     (CC module)
  Frederik Beyer Hansen,    University of Copenhagen,     Denmark     (Parallel AO-SOPPA)
  Erik D. Hedegaard,        Univ. of Southern Denmark,    Denmark     (Polarizable embedding model, QM/MM)
  Hanne Heiberg,            University of Oslo,           Norway      (geometry analysis, selected one-electron integrals)
  Trygve Helgaker,          University of Oslo,           Norway      (DALTON; ABACUS, ERI, DFT modules, London, and much more)
  Alf Christian Hennum,     University of Oslo,           Norway      (Parity violation)
  Hinne Hettema,            University of Auckland,       New Zealand (quadratic response in RESPONS; SIRIUS supersymmetry)
  Eirik Hjertenaes,         NTNU,                         Norway      (Cholesky decomposition)
  Pi A. B. Haase,           University of Copenhagen,     Denmark     (Triplet AO-SOPPA)
  Maria Francesca Iozzi,    University of Oslo,           Norway      (RPA)
  Brano Jansik              Technical Univ. of Ostrava    Czech Rep.  (DFT cubic response)
  Hans Joergen Aa. Jensen,  Univ. of Southern Denmark,    Denmark     (DALTON; SIRIUS, RESPONS, ABACUS modules, London, and much more)
  Dan Jonsson,              UiT The Arctic U. of Norway,  Norway      (cubic response in RESPONS module)
  Poul Joergensen,          Aarhus University,            Denmark     (RESPONS, ABACUS, and CC modules)
  Maciej Kaminski,          University of Warsaw,         Poland      (CPPh in RESPONS)
  Joanna Kauczor,           Linkoeping University,        Sweden      (Complex polarization propagator (CPP) module)
  Sheela Kirpekar,          Univ. of Southern Denmark,    Denmark     (Mass-velocity & Darwin integrals)
  Wim Klopper,              KIT Karlsruhe,                Germany     (R12 code in CC, SIRIUS, and ABACUS modules)
  Stefan Knecht,            ETH Zurich,                   Switzerland (Parallel CI and MCSCF)
  Rika Kobayashi,           Australian National Univ.,    Australia   (DIIS in CC, London in MCSCF)
  Henrik Koch,              NTNU,                         Norway      (CC module, Cholesky decomposition)
  Jacob Kongsted,           Univ. of Southern Denmark,    Denmark     (Polarizable embedding model, QM/MM)
  Andrea Ligabue,           University of Modena,         Italy       (CTOCD, AOSOPPA)
  Nanna H. List             Univ. of Southern Denmark,    Denmark     (Polarizable embedding model)
  Ola B. Lutnaes,           University of Oslo,           Norway      (DFT Hessian)
  Juan I. Melo,             University of Buenos Aires,   Argentina   (LRESC, Relativistic Effects on NMR Shieldings)
  Kurt V. Mikkelsen,        University of Copenhagen,     Denmark     (MC-SCRF and QM/MM)
  Rolf H. Myhre,            NTNU,                         Norway      (Cholesky, subsystems and ECC2)
  Christian Neiss,          Univ. Erlangen-Nuernberg,     Germany     (CCSD(R12))
  Christian B. Nielsen,     University of Copenhagen,     Denmark     (QM/MM)
  Patrick Norman,           Linkoeping University,        Sweden      (Cubic response and complex frequency response in RESPONS)
  Jeppe Olsen,              Aarhus University,            Denmark     (SIRIUS CI/density modules)
  Jogvan Magnus H. Olsen,   Univ. of Southern Denmark,    Denmark     (Polarizable embedding model, QM/MM)
  Anders Osted,             Copenhagen University,        Denmark     (QM/MM)
  Martin J. Packer,         University of Sheffield,      UK          (SOPPA)
  Filip Pawlowski,          Kazimierz Wielki University,  Poland      (CC3)
  Morten N. Pedersen,       Univ. of Southern Denmark,    Denmark     (Polarizable embedding model)
  Thomas B. Pedersen,       University of Oslo,           Norway      (Cholesky decomposition)
  Patricio F. Provasi,      University of Northeastern,   Argentina   (Analysis of coupling constants in localized orbitals)
  Zilvinas Rinkevicius,     KTH Stockholm,                Sweden      (open-shell DFT, ESR)
  Elias Rudberg,            KTH Stockholm,                Sweden      (DFT grid and basis info)
  Torgeir A. Ruden,         University of Oslo,           Norway      (Numerical derivatives in ABACUS)
  Kenneth Ruud,             UiT The Arctic U. of Norway,  Norway      (DALTON; ABACUS magnetic properties and much more)
  Pawel Salek,              KTH Stockholm,                Sweden      (DALTON; DFT code)
  Claire C. M. Samson       University of Karlsruhe       Germany     (Boys localization, r12 integrals in ERI)
  Alfredo Sanchez de Meras, University of Valencia,       Spain       (CC module, Cholesky decomposition)
  Trond Saue,               Paul Sabatier University,     France      (direct Fock matrix construction)
  Stephan P. A. Sauer,      University of Copenhagen,     Denmark     (SOPPA(CCSD), SOPPA prop., AOSOPPA, vibrational g-factors)
  Bernd Schimmelpfennig,    Forschungszentrum Karlsruhe,  Germany     (AMFI module)
  Kristian Sneskov,         Aarhus University,            Denmark     (Polarizable embedding model, QM/MM)
  Arnfinn H. Steindal,      UiT The Arctic U. of Norway,  Norway      (parallel QM/MM, Polarizable embedding model)
  Casper Steinmann,         Univ. of Southern Denmark,    Denmark     (QFIT, Polarizable embedding model)
  K. O. Sylvester-Hvid,     University of Copenhagen,     Denmark     (MC-SCRF)
  Peter R. Taylor,          VLSCI/Univ. of Melbourne,     Australia   (Symmetry handling ABACUS, integral transformation)
  Andrew M. Teale,          University of Nottingham,     England     (DFT-AC, DFT-D)
  David P. Tew,             University of Bristol,        England     (CCSD(R12))
  Olav Vahtras,             KTH Stockholm,                Sweden      (triplet response, spin-orbit, ESR, TDDFT, open-shell DFT)
  David J. Wilson,          La Trobe University,          Australia   (DFT Hessian and DFT magnetizabilities)
  Hans Agren,               KTH Stockholm,                Sweden      (SIRIUS module, RESPONS, MC-SCRF solvation model)
 --------------------------------------------------------------------------------

     Date and time (Linux)  : Tue Jan  1 19:18:55 2019
     Host name              : n-62-24-6                               

 * Work memory size             :  1280000000 =  9.537 gigabytes.

 * Directories for basis set searches:
   1) /zhome/37/3/129401/NH3NH4/CCSD/AIMD_SAMPLING/nh3_4h2o_nd
   2) /zhome/9a/4/124800/source/dalton/build-mlcc/basis


Compilation information
-----------------------

 Who compiled             | rfaber
 Host                     | hpclogin1
 System                   | Linux-2.6.32-696.1.1.el6.x86_64
 CMake generator          | Unix Makefiles
 Processor                | x86_64
 64-bit integers          | ON
 MPI                      | OFF
 Fortran compiler         | /opt/intel/2016update2/compilers_and_libraries_201
                          | 6.2.181/linux/bin/intel64/ifort
 Fortran compiler version | ifort (IFORT) 16.0.2 20160204
 C compiler               | /opt/intel/2016update2/compilers_and_libraries_201
                          | 6.2.181/linux/bin/intel64/icc
 C compiler version       | icc (ICC) 16.0.2 20160204
 C++ compiler             | /opt/intel/2016update2/compilers_and_libraries_201
                          | 6.2.181/linux/bin/intel64/icpc
 C++ compiler version     | icpc (ICC) 16.0.2 20160204
 Static linking           | OFF
 Last Git revision        | bb4d1599ca5680a9f3980451fc8bbefdba436d59
 Git branch               | mlcc
 Configuration time       | 2017-06-13 16:11:03.928841


   Content of the .dal input file
 ----------------------------------

**DALTON
.RUN WAVE FUNCTIONS
*QMMM
.QMMM
**INTEGRALS
.DIPLEN
**WAVE FUNCTIONS
.CC
*PRINT
!To check the origin of excit
.PRINTL
   0 11
*SCF INP
.THRESH
1.0D-7
*CC INP
.CCSD
.THRLEQ
 1.0D-9
.THRENR
 1.0D-10
.FROIMP
4
0
.PRINT
 1
.MAX IT
 1200
.MAXRED
 1200
.MXLRV
1199
*CCSLV
.CCMM
.MXSLIT
200
.MXINIT
4 5
*CCEXCI
.NCCEXC
 15
.CVSEPARA
1
1
*CCLRSD
.DIPOLE
**END OF DALTON INPUT


   Content of the .mol file
 ----------------------------

ATOMBASIS


Atomtypes=4 Charge=0 Nosymm Angstrom
   7.00000    1    Basis=6-311G**
N          0.000000        0.000000        0.000000
   1.00000    3    Basis=6-311G**
H         -0.940610       -0.339668        0.148705
H          0.499096       -0.901443       -0.015673
H          0.316505        0.472080        0.892046
   8.00000    4    Basis=6-311G**
O         -3.292071       -0.494016        0.265639
O         -0.230492       -3.749195       -0.344797
O          2.289860        1.725848        1.865312
O         -0.307447        1.336814       -2.554280
   1.00000    8    Basis=6-311G**
H         -3.888434       -0.012142        0.883940
H         -3.309836       -0.016508       -0.580114
H          0.427691       -4.460735       -0.231604
H         -0.655860       -3.575099        0.479791
H          1.661167        2.306243        2.342234
H          3.253371        2.067259        1.890178
H          0.208921        1.009033       -3.337348
H         -0.133134        0.796041       -1.720914


       *******************************************************************
       *********** Output from DALTON general input processing ***********
       *******************************************************************

 --------------------------------------------------------------------------------
   Overall default print level:    0
   Print level for DALTON.STAT:    1

    HERMIT 1- and 2-electron integral sections will be executed
    "Old" integral transformation used (limited to max 255 basis functions)
    Wave function sections will be executed (SIRIUS module)
 --------------------------------------------------------------------------------


 Changes of defaults for *QMMM  :
 --------------------------------

 +------------------+
 |  WORD: | CHANGE: |
 +------------------+
 |   QMMM |       T |
 +------------------+
 


   ****************************************************************************
   *************** Output of molecule and basis set information ***************
   ****************************************************************************


    The two title cards from your ".mol" input:
    ------------------------------------------------------------------------
 1:                                                                         
 2:                                                                         
    ------------------------------------------------------------------------

  Coordinates are entered in Angstrom and converted to atomic units.
          - Conversion factor : 1 bohr = 0.52917721 A

  Atomic type no.    1
  --------------------
  Nuclear charge:   7.00000
  Number of symmetry independent centers:    1
  Number of basis sets to read;    2
  The basis set is "6-311G**" from the basis set library.
  Basis set file used for this atomic type with Z =   7 :
     "/zhome/9a/4/124800/source/dalton/build-mlcc/basis/6-311G**"

  Info about the basis set file: your basis has no documentation.
  Basis set: 6-311G**                                                                        

  Atomic type no.    2
  --------------------
  Nuclear charge:   1.00000
  Number of symmetry independent centers:    3
  Number of basis sets to read;    2
  The basis set is "6-311G**" from the basis set library.
  Basis set file used for this atomic type with Z =   1 :
     "/zhome/9a/4/124800/source/dalton/build-mlcc/basis/6-311G**"

  Info about the basis set file: your basis has no documentation.
  Basis set: 6-311G**                                                                        

  Atomic type no.    3
  --------------------
  Nuclear charge:   8.00000
  Number of symmetry independent centers:    4
  Number of basis sets to read;    2
  The basis set is "6-311G**" from the basis set library.
  Basis set file used for this atomic type with Z =   8 :
     "/zhome/9a/4/124800/source/dalton/build-mlcc/basis/6-311G**"

  Info about the basis set file: your basis has no documentation.
  Basis set: 6-311G**                                                                        

  Atomic type no.    4
  --------------------
  Nuclear charge:   1.00000
  Number of symmetry independent centers:    8
  Number of basis sets to read;    2
  The basis set is "6-311G**" from the basis set library.
  Basis set file used for this atomic type with Z =   1 :
     "/zhome/9a/4/124800/source/dalton/build-mlcc/basis/6-311G**"

  Info about the basis set file: your basis has no documentation.
  Basis set: 6-311G**                                                                        


                         SYMGRP: Point group information
                         -------------------------------

@    Point group: C1 


                                 Isotopic Masses
                                 ---------------

                           N          14.003074
                           H           1.007825
                           H           1.007825
                           H           1.007825
                           O          15.994915
                           O          15.994915
                           O          15.994915
                           O          15.994915
                           H           1.007825
                           H           1.007825
                           H           1.007825
                           H           1.007825
                           H           1.007825
                           H           1.007825
                           H           1.007825
                           H           1.007825

                       Total mass:    89.068809 amu
                       Natural abundance:  98.514 %

 Center-of-mass coordinates (a.u.):   -0.577422   -0.457395   -0.244605


  Atoms and basis sets
  --------------------

  Number of atom types :    4
  Total number of atoms:   16

  label    atoms   charge   prim   cont     basis
  ----------------------------------------------------------------------
  N           1    7.0000    31    18      [11s5p1d|4s3p1d]                                   
  H           3    1.0000     8     6      [5s1p|3s1p]                                        
  O           4    8.0000    31    18      [11s5p1d|4s3p1d]                                   
  H           8    1.0000     8     6      [5s1p|3s1p]                                        
  ----------------------------------------------------------------------
  total:     16   50.0000   243   156
  ----------------------------------------------------------------------
  Spherical harmonic basis used.

  Threshold for neglecting AO integrals:  1.00D-12


  Cartesian Coordinates (a.u.)
  ----------------------------

  Total number of coordinates:   48
  N       :     1  x   0.0000000000    2  y   0.0000000000    3  z   0.0000000000
  H       :     4  x  -1.7774952904    5  y  -0.6418794934    6  z   0.2810117234
  H       :     7  x   0.9431547501    8  y  -1.7034803873    9  z  -0.0296176776
  H       :    10  x   0.5981077672   11  y   0.8921019091   12  z   1.6857226309
  O       :    13  x  -6.2211125740   14  y  -0.9335549414   15  z   0.5019849581
  O       :    16  x  -0.4355667540   17  y  -7.0849517392   18  z  -0.6515718987
  O       :    19  x   4.3272082646   20  y   3.2613800534   21  z   3.5249288177
  O       :    22  x  -0.5809906280   23  y   2.5262123401   24  z  -4.8268896465
  H       :    25  x  -7.3480753151   26  y  -0.0229450546   27  z   1.6704045109
  H       :    28  x  -6.2546835586   29  y  -0.0311955989   30  z  -1.0962565813
  H       :    31  x   0.8082188561   32  y  -8.4295674662   33  z  -0.4376681295
  H       :    34  x  -1.2393957763   35  y  -6.7559579797   36  z   0.9066735872
  H       :    37  x   3.1391506779   38  y   4.3581676477   39  z   4.4261807806
  H       :    40  x   6.1479801730   41  y   3.9065533394   42  z   3.5719187475
  H       :    43  x   0.3948034718   44  y   1.9067960211   45  z  -6.3066737038
  H       :    46  x  -0.2515867979   47  y   1.5042994743   48  z  -3.2520561447


   Interatomic separations (in Angstrom):
   --------------------------------------

            N           H           H           H           O           O     
            ------      ------      ------      ------      ------      ------
 N     :    0.000000
 H     :    1.011056    0.000000
 H     :    1.030506    1.554144    0.000000
 H     :    1.057724    1.670877    1.656460    0.000000
 O     :    3.339513    2.359421    3.823360    3.787816    0.000000
 O     :    3.772065    3.517483    2.958093    4.432623    4.510220    0.000000
 O     :    3.420731    4.201075    3.694266    2.532452    6.216486    6.419724
 O     :    2.899300    3.243087    3.479200    3.607526    4.495760    5.545739
 H     :    3.987658    3.055734    4.566243    4.232735    0.984961    5.371769
 H     :    3.360330    2.499768    3.950907    3.944150    0.971405    4.844655
 H     :    4.487172    4.358908    3.566551    5.060397    5.460654    0.975862
 H     :    3.666290    3.264769    2.954293    4.182715    4.060609    0.944030
 H     :    3.682973    4.310645    4.147214    2.697279    6.057084    6.889618
 H     :    4.293106    5.139601    4.475655    3.487986    7.214019    7.138876
 H     :    3.492805    3.910624    3.842869    4.264700    5.243817    5.638189
 H     :    1.900776    2.331808    2.487773    2.671083    3.948357    4.749984

            O           O           H           H           H           H     
            ------      ------      ------      ------      ------      ------
 O     :    0.000000
 O     :    5.141026    0.000000
 H     :    6.492690    5.144367    0.000000
 H     :    6.353936    3.839681    1.574245    0.000000
 H     :    6.792536    6.288627    6.297885    5.817364    0.000000
 H     :    6.220689    5.783932    4.827788    4.564051    1.569878    0.000000
 H     :    0.979575    5.365732    6.188667    6.216604    7.344256    6.589954
 H     :    1.022513    5.741618    7.506118    7.315744    7.423014    7.007673
 H     :    5.649053    0.993616    5.970795    4.586472    6.293796    6.027658
 H     :    4.426789    1.008623    4.641196    3.471757    5.492382    4.921708

            H           H           H           H     
            ------      ------      ------      ------
 H     :    0.000000
 H     :    1.672298    0.000000
 H     :    6.004117    6.141298    0.000000
 H     :    4.691417    5.111203    1.665901    0.000000


  Max    interatomic separation is    7.5061 Angstrom (   14.1845 Bohr)
  between atoms   14 and    9, "H     " and "H     ".

  Min HX interatomic separation is    0.9440 Angstrom (    1.7840 Bohr)

  Min YX interatomic separation is    2.8993 Angstrom (    5.4789 Bohr)


  Bond distances (Angstrom):
  --------------------------

                  atom 1     atom 2       distance
                  ------     ------       --------
  bond distance:  H          N            1.011056
  bond distance:  H          N            1.030506
  bond distance:  H          N            1.057724
  bond distance:  H          O            0.984961
  bond distance:  H          O            0.971405
  bond distance:  H          O            0.975862
  bond distance:  H          O            0.944030
  bond distance:  H          O            0.979575
  bond distance:  H          O            1.022513
  bond distance:  H          O            0.993616
  bond distance:  H          O            1.008623


  Bond angles (degrees):
  ----------------------

                  atom 1     atom 2     atom 3         angle
                  ------     ------     ------         -----
  bond angle:     H          N          H             99.145
  bond angle:     H          N          H            107.715
  bond angle:     H          N          H            104.970
  bond angle:     H          O          H            107.156
  bond angle:     H          O          H            109.697
  bond angle:     H          O          H            113.272
  bond angle:     H          O          H            112.611




 Principal moments of inertia (u*A**2) and principal axes
 --------------------------------------------------------

   IA     387.761399          0.633524    0.737669    0.233435
   IB     581.431214          0.558678   -0.644855    0.521575
   IC     681.223127         -0.535282    0.200016    0.820651


 Rotational constants
 --------------------

               A                   B                   C

           1303.3247            869.1983            741.8700 MHz
            0.043474            0.028993            0.024746 cm-1


@  Nuclear repulsion energy :  169.911429375636 Hartree


                     .---------------------------------------.
                     | Starting in Integral Section (HERMIT) |
                     `---------------------------------------'



 ***************************************************************************************
 ****************** Output from **INTEGRALS input processing (HERMIT) ******************
 ***************************************************************************************



    *************************************************************************
    ****************** Output from HERMIT input processing ******************
    *************************************************************************


 Default print level:        1

 * Nuclear model: Point charge

 Calculation of one- and two-electron Hamiltonian integrals.

 The following one-electron property integrals are calculated as requested:
          - overlap integrals
          - dipole length integrals

 Center of mass  (bohr):     -0.577421889709     -0.457395257755     -0.244604536775
 Operator center (bohr):      0.000000000000      0.000000000000      0.000000000000
 Gauge origin    (bohr):      0.000000000000      0.000000000000      0.000000000000
 Dipole origin   (bohr):      0.000000000000      0.000000000000      0.000000000000
 
  *********************************** 
  QMMM electrostatic potential: 
  Multipole order                                    0
  Isotropic polarization  
  *********************************** 
 
  ---------------- 
  QMMM information 
  ---------------- 
 
  MM coordinates in au 
  -------------------- 
     1      9.427437      5.710176     10.274515
     2     11.211609      6.365679     10.263666
     3      8.301983      7.205320     10.691509
     4     -9.820387     -8.419684      2.453794
     5     -8.255830     -9.374637      2.993538
     6    -10.739805     -7.890011      4.048874
     7     -6.447568     -5.291356      7.840553
     8     -5.619341     -5.747165      9.448833
     9     -7.790116     -6.518544      7.556956
    10     -8.213016      7.339840      8.537454
    11     -7.776163      9.070173      8.997676
    12     -8.651127      7.558853      6.773878
    13     -0.418366     -4.555973     -5.078807
    14     -2.168907     -3.906311     -5.063124
    15     -0.390678     -5.478543     -3.451744
    16     10.440824      3.048308     -7.898919
    17      9.459956      3.768707     -6.429253
    18      9.520771      3.706756     -9.488927
    19      1.681975     -7.663762     11.395186
    20      0.650759     -6.140087     11.204184
    21      1.081445     -8.787493     10.023374
    22      5.891582     -4.969298     10.241694
    23      7.269669     -4.933504     11.563971
    24      4.810547     -6.402640     10.793929
    25     -8.262287      6.112211     -9.765432
    26     -9.152095      4.802325     -8.954547
    27     -8.118118      5.463965    -11.510008
    28     -7.112589     -1.557637     -8.665169
    29     -6.669889     -0.201244     -7.421986
    30     -8.657315     -2.312944     -7.913018
    31     -3.035416      5.368345     10.130268
    32     -2.665445      7.044651     10.918297
    33     -4.634559      5.748919      9.211761
    34     11.177388      1.266494     -1.940811
    35     12.127605      3.013667     -2.227723
    36      9.397052      1.731584     -1.831868
    37     10.771700      8.587800     -4.064357
    38     10.852593     10.234802     -2.970447
    39     11.374985      9.252058     -5.741196
    40    -11.290783      9.854183      4.828509
    41    -11.827747     11.450161      4.010995
    42    -12.792015      8.847955      4.405547
    43     -0.972323      0.378399     10.344327
    44      0.515778      0.323498      9.044118
    45     -1.933660      2.016812     10.173361
    46     -6.286841    -11.358656      9.872220
    47     -4.732042    -11.991525     10.617177
    48     -6.997093     -9.901383     10.889649
    49     -9.049874      5.269426     -3.002352
    50    -10.405129      6.692195     -3.270101
    51     -8.263474      5.813366     -1.435585
    52    -11.704068     -6.624248      7.146763
    53    -12.327613     -5.182258      8.223173
    54    -12.372574     -8.194342      7.984628
    55     -0.336167     -9.737802      6.703148
    56      0.888462    -11.104955      6.364647
    57      0.454086     -8.115767      6.173527
    58     10.603319    -11.413434      9.242545
    59     11.338425    -12.934072      8.312489
    60     11.018288    -11.687321     11.035749
    61      2.544412      7.043040     -9.907813
    62      4.041809      7.227978    -10.985840
    63      2.160193      5.231877     -9.746382
    64      9.856906     -5.635889     -9.109914
    65     10.596945     -4.743260     -7.644537
    66      9.027299     -7.111671     -8.432279
    67      6.515536      9.828808      2.019144
    68      5.893398     11.359486      1.025320
    69      6.261572      8.481089      0.893842
    70      3.579927     -0.919788      7.989159
    71      4.740767     -2.245339      8.735781
    72      4.867103     -0.066668      6.930402
    73     -1.870681      9.661308    -11.178526
    74     -2.528108      9.189509     -9.452108
    75      0.002092      9.197979    -11.082002
    76     -5.660833      1.357918     -4.663324
    77     -6.515345      2.923559     -4.230271
    78     -3.877975      2.116083     -4.695399
    79      7.860835     -6.300453     -0.976764
    80      7.877898     -5.852508      0.867772
    81      7.433943     -4.970314     -2.219415
    82      6.213522      9.815757     10.580883
    83      5.964053     11.037229     11.984216
    84      7.545701     10.717240      9.711374
    85      2.675028      1.859549     -9.677168
    86      1.642886      0.912885    -11.126668
    87      4.371330      1.066662     -9.577022
    88     -2.335460     -9.452327     -8.083326
    89     -1.755132     -7.662344     -8.502904
    90     -1.826970    -10.486725     -9.596292
    91      6.610829      5.900454     -5.545027
    92      5.542489      6.302067     -7.035541
    93      7.675429      7.353384     -5.319532
    94      4.968447     -2.816973     -5.521377
    95      3.121474     -3.287755     -5.459426
    96      5.353437     -1.551726     -4.251285
    97      5.148166    -10.162497     -8.975957
    98      3.802286     -9.081079     -9.694337
    99      4.000643    -11.093187     -7.820227
   100     -4.071143     -4.726396      3.148962
   101     -4.819641     -5.946649      4.424854
   102     -5.376611     -3.957226      1.942234
   103     -8.481977      1.111338     10.936875
   104     -7.514583      0.791578      9.391128
   105     -8.018238     -0.165676     12.183019
   106      4.199521    -10.189039     -0.970520
   107      5.504576     -8.847785     -1.204387
   108      3.381175    -10.609979     -2.707101
   109     -0.491624      5.147642      5.709626
   110     -1.289105      4.977308      7.470671
   111      0.149819      6.876216      5.667912
   112     -3.164437     -4.388726    -11.455765
   113     -2.684518     -2.975206    -12.519814
   114     -4.625211     -3.763866    -10.551456
   115     -4.613840      8.868188     -6.769698
   116     -5.970542      7.815680     -7.622966
   117     -4.009449      8.040082     -5.162235
   118     -7.622258    -10.372157     -6.467110
   119     -6.025182    -11.343727     -6.458899
   120     -7.990174     -9.917336     -4.694339
   121      0.970299    -11.682502     -4.878782
   122      0.027431    -13.041839     -4.150649
   123     -0.372607    -10.522027     -5.673196
   124    -10.991643     10.604604     -9.006954
   125     -9.772549     11.852109     -8.286723
   126    -10.008437      9.130157     -9.225201
   127     -2.148961      7.491046     -2.544915
   128     -1.254521      6.017723     -3.179823
   129     -2.743722      6.931332     -0.811596
   130      2.965252      9.571612      5.887897
   131      3.898974      8.842631      7.393302
   132      4.332709      9.669710      4.422840
   133     11.626069    -10.219856     -2.007059
   134     12.430996     -9.961514     -0.379502
   135     10.321000     -8.843618     -2.243506
   136     -4.262515      6.525598      2.104628
   137     -3.248110      5.747819      3.502466
   138     -3.843552      8.336319      2.269561
   139      7.164417     -0.343057     -9.759543
   140      6.472888     -1.943937     -8.797645
   141      8.429307      0.585940     -8.751658
   142    -10.547935      0.994516      3.095651
   143    -11.342293      1.354108      1.424134
   144    -11.844843     -0.002460      4.089562
   145      6.334859      2.052804     -1.525854
   146      5.824914      3.279652     -2.805501
   147      5.237459      2.379864      0.080081
   148     -8.323601     -7.348729    -10.876691
   149     -7.909781     -7.784451     -9.069943
   150    -10.061603     -6.817215    -10.896475
   151     -8.754498     -4.829418     -1.953563
   152     -8.147499     -3.310965     -1.049769
   153     -8.892647     -6.163500     -0.615890
   154     10.906534     -2.182494     10.102863
   155     12.473980     -1.148126     10.237397
   156      9.761467     -1.825704     11.515768
   157      9.160115      5.138235      4.567636
   158     10.481135      3.783923      4.452996
   159      8.988142      5.185261      6.455762
   160      0.862756     -4.273769      5.145864
   161      1.475491     -2.825896      6.226134
   162     -0.858049     -3.759771      4.483549
   163     -5.617381    -10.421473      4.723438
   164     -6.414520    -10.562915      6.422788
   165     -3.886997     -9.834152      4.978570
   166     -6.168327      1.007974      6.377145
   167     -7.608275      1.486553      5.192142
   168     -5.698928     -0.717606      5.995785
   169      6.435050     -5.318288      4.157768
   170      4.614271     -4.835520      3.980086
   171      6.336936     -5.867195      5.896607
   172      8.673769     -0.678346      5.807368
   173      9.233068     -1.022708      7.622516
   174      8.253589     -2.416019      5.206830
   175    -11.309166     -2.617050     -5.598268
   176    -10.254075     -3.569897     -4.308993
   177    -11.589700     -0.828035     -4.788462
 
  MM charges 
  ---------- 
     1     -0.674440
     2      0.337220
     3      0.337220
     4     -0.674440
     5      0.337220
     6      0.337220
     7     -0.674440
     8      0.337220
     9      0.337220
    10     -0.674440
    11      0.337220
    12      0.337220
    13     -0.674440
    14      0.337220
    15      0.337220
    16     -0.674440
    17      0.337220
    18      0.337220
    19     -0.674440
    20      0.337220
    21      0.337220
    22     -0.674440
    23      0.337220
    24      0.337220
    25     -0.674440
    26      0.337220
    27      0.337220
    28     -0.674440
    29      0.337220
    30      0.337220
    31     -0.674440
    32      0.337220
    33      0.337220
    34     -0.674440
    35      0.337220
    36      0.337220
    37     -0.674440
    38      0.337220
    39      0.337220
    40     -0.674440
    41      0.337220
    42      0.337220
    43     -0.674440
    44      0.337220
    45      0.337220
    46     -0.674440
    47      0.337220
    48      0.337220
    49     -0.674440
    50      0.337220
    51      0.337220
    52     -0.674440
    53      0.337220
    54      0.337220
    55     -0.674440
    56      0.337220
    57      0.337220
    58     -0.674440
    59      0.337220
    60      0.337220
    61     -0.674440
    62      0.337220
    63      0.337220
    64     -0.674440
    65      0.337220
    66      0.337220
    67     -0.674440
    68      0.337220
    69      0.337220
    70     -0.674440
    71      0.337220
    72      0.337220
    73     -0.674440
    74      0.337220
    75      0.337220
    76     -0.674440
    77      0.337220
    78      0.337220
    79     -0.674440
    80      0.337220
    81      0.337220
    82     -0.674440
    83      0.337220
    84      0.337220
    85     -0.674440
    86      0.337220
    87      0.337220
    88     -0.674440
    89      0.337220
    90      0.337220
    91     -0.674440
    92      0.337220
    93      0.337220
    94     -0.674440
    95      0.337220
    96      0.337220
    97     -0.674440
    98      0.337220
    99      0.337220
   100     -0.674440
   101      0.337220
   102      0.337220
   103     -0.674440
   104      0.337220
   105      0.337220
   106     -0.674440
   107      0.337220
   108      0.337220
   109     -0.674440
   110      0.337220
   111      0.337220
   112     -0.674440
   113      0.337220
   114      0.337220
   115     -0.674440
   116      0.337220
   117      0.337220
   118     -0.674440
   119      0.337220
   120      0.337220
   121     -0.674440
   122      0.337220
   123      0.337220
   124     -0.674440
   125      0.337220
   126      0.337220
   127     -0.674440
   128      0.337220
   129      0.337220
   130     -0.674440
   131      0.337220
   132      0.337220
   133     -0.674440
   134      0.337220
   135      0.337220
   136     -0.674440
   137      0.337220
   138      0.337220
   139     -0.674440
   140      0.337220
   141      0.337220
   142     -0.674440
   143      0.337220
   144      0.337220
   145     -0.674440
   146      0.337220
   147      0.337220
   148     -0.674440
   149      0.337220
   150      0.337220
   151     -0.674440
   152      0.337220
   153      0.337220
   154     -0.674440
   155      0.337220
   156      0.337220
   157     -0.674440
   158      0.337220
   159      0.337220
   160     -0.674440
   161      0.337220
   162      0.337220
   163     -0.674440
   164      0.337220
   165      0.337220
   166     -0.674440
   167      0.337220
   168      0.337220
   169     -0.674440
   170      0.337220
   171      0.337220
   172     -0.674440
   173      0.337220
   174      0.337220
   175     -0.674440
   176      0.337220
   177      0.337220
 
  MM isotropic polarizabilities in au 
  ----------------------------------- 
     1      5.739350
     2      2.308390
     3      2.308390
     4      5.739350
     5      2.308390
     6      2.308390
     7      5.739350
     8      2.308390
     9      2.308390
    10      5.739350
    11      2.308390
    12      2.308390
    13      5.739350
    14      2.308390
    15      2.308390
    16      5.739350
    17      2.308390
    18      2.308390
    19      5.739350
    20      2.308390
    21      2.308390
    22      5.739350
    23      2.308390
    24      2.308390
    25      5.739350
    26      2.308390
    27      2.308390
    28      5.739350
    29      2.308390
    30      2.308390
    31      5.739350
    32      2.308390
    33      2.308390
    34      5.739350
    35      2.308390
    36      2.308390
    37      5.739350
    38      2.308390
    39      2.308390
    40      5.739350
    41      2.308390
    42      2.308390
    43      5.739350
    44      2.308390
    45      2.308390
    46      5.739350
    47      2.308390
    48      2.308390
    49      5.739350
    50      2.308390
    51      2.308390
    52      5.739350
    53      2.308390
    54      2.308390
    55      5.739350
    56      2.308390
    57      2.308390
    58      5.739350
    59      2.308390
    60      2.308390
    61      5.739350
    62      2.308390
    63      2.308390
    64      5.739350
    65      2.308390
    66      2.308390
    67      5.739350
    68      2.308390
    69      2.308390
    70      5.739350
    71      2.308390
    72      2.308390
    73      5.739350
    74      2.308390
    75      2.308390
    76      5.739350
    77      2.308390
    78      2.308390
    79      5.739350
    80      2.308390
    81      2.308390
    82      5.739350
    83      2.308390
    84      2.308390
    85      5.739350
    86      2.308390
    87      2.308390
    88      5.739350
    89      2.308390
    90      2.308390
    91      5.739350
    92      2.308390
    93      2.308390
    94      5.739350
    95      2.308390
    96      2.308390
    97      5.739350
    98      2.308390
    99      2.308390
   100      5.739350
   101      2.308390
   102      2.308390
   103      5.739350
   104      2.308390
   105      2.308390
   106      5.739350
   107      2.308390
   108      2.308390
   109      5.739350
   110      2.308390
   111      2.308390
   112      5.739350
   113      2.308390
   114      2.308390
   115      5.739350
   116      2.308390
   117      2.308390
   118      5.739350
   119      2.308390
   120      2.308390
   121      5.739350
   122      2.308390
   123      2.308390
   124      5.739350
   125      2.308390
   126      2.308390
   127      5.739350
   128      2.308390
   129      2.308390
   130      5.739350
   131      2.308390
   132      2.308390
   133      5.739350
   134      2.308390
   135      2.308390
   136      5.739350
   137      2.308390
   138      2.308390
   139      5.739350
   140      2.308390
   141      2.308390
   142      5.739350
   143      2.308390
   144      2.308390
   145      5.739350
   146      2.308390
   147      2.308390
   148      5.739350
   149      2.308390
   150      2.308390
   151      5.739350
   152      2.308390
   153      2.308390
   154      5.739350
   155      2.308390
   156      2.308390
   157      5.739350
   158      2.308390
   159      2.308390
   160      5.739350
   161      2.308390
   162      2.308390
   163      5.739350
   164      2.308390
   165      2.308390
   166      5.739350
   167      2.308390
   168      2.308390
   169      5.739350
   170      2.308390
   171      2.308390
   172      5.739350
   173      2.308390
   174      2.308390
   175      5.739350
   176      2.308390
   177      2.308390


     ************************************************************************
     ************************** Output from HERINT **************************
     ************************************************************************



                      Nuclear contribution to dipole moments
                      --------------------------------------

                 au               Debye          C m (/(10**-30)

      x    -28.12351457       -71.48283933      -238.44108622
      y    -22.86442189       -58.11555991      -193.85264157
      z    -10.19274241       -25.90736539       -86.41766896


  Time used in HUCKEL     is       0.48 seconds
  Time used in OVERLAP    is       0.14 seconds
  Time used in POPOVLP    is       0.23 seconds
  Time used in DIPLEN     is       0.21 seconds
  Time used in QUADRUP    is       0.78 seconds
  Time used in KINENE     is       0.23 seconds

 Threshold for neglecting two-electron integrals:  1.00D-12
 HERMIT - Number of two-electron integrals written:    22313947 ( 29.8% )
 HERMIT - Megabytes written:                            255.505

  Time used in TWOINT     is      13.52 seconds
  Total CPU  time used in HERMIT:  15.65 seconds
  Total wall time used in HERMIT:   5.27 seconds


                        .----------------------------------.
                        | End of Integral Section (HERMIT) |
                        `----------------------------------'



                   .--------------------------------------------.
                   | Starting in Wave Function Section (SIRIUS) |
                   `--------------------------------------------'

NCCEXCI for singlet:   15
 CCSD_INPUT: core-val requested
 Requested number of core orbs per sym
                     1
 Indices of requested core orbs
                     1

 *** Output from Huckel module :

     Using EWMO model:          T
     Using EHT  model:          F
     Number of Huckel orbitals each symmetry:   36

 EWMO - Energy Weighted Maximum Overlap - is a Huckel type method,
        which normally is better than Extended Huckel Theory.
 Reference: Linderberg and Ohrn, Propagators in Quantum Chemistry (Wiley, 1973)

 Huckel EWMO eigenvalues for symmetry :  1
          -20.684933     -20.684657     -20.684337     -20.684320     -15.673502
           -1.664158      -1.605091      -1.591193      -1.579163      -1.479979
           -0.817664      -0.802550      -0.791331      -0.784325      -0.726750
           -0.706932      -0.682336      -0.681652      -0.678304      -0.660710
           -0.616408      -0.614984      -0.611715      -0.599291      -0.527266
           -0.255750      -0.245194      -0.234657      -0.234245      -0.186208
           -0.179130      -0.174078      -0.167480      -0.160913      -0.156118
           -0.148476

 **********************************************************************
 *SIRIUS* a direct, restricted step, second order MCSCF program       *
 **********************************************************************

 
     Date and time (Linux)  : Tue Jan  1 19:19:00 2019
     Host name              : n-62-24-6                               

 Title lines from ".mol" input file:
                                                                             
                                                                             

 Print level on unit LUPRI =   2 is   0
 Print level on unit LUW4  =   2 is  11

@    (Integral direct) CC calculation.

@    This is a combination run starting with
@              a restricted, closed shell Hartree-Fock calculation


 Initial molecular orbitals are obtained according to
 ".MOSTART EWMO  " input option

@    QM part is embedded in an environment :

@         Model: QMMM

     Wave function specification
     ============================

     For the specification of the Coupled Cluster: see later.

@    Wave function type        --- CC ---
@    Number of closed shell electrons          50
@    Number of electrons in active shells       0
@    Total charge of the molecule               0

@    Spin multiplicity and 2 M_S                1         0
@    Total number of symmetries                 1 (point group: C1 )
@    Reference state symmetry                   1 (irrep name : A  )

     Orbital specifications
     ======================
@    Abelian symmetry species          All |    1
@                                          |  A  
                                       --- |  ---
@    Occupied SCF orbitals              25 |   25
@    Secondary orbitals                131 |  131
@    Total number of orbitals          156 |  156
@    Number of basis functions         156 |  156

     Optimization information
     ========================
@    Number of configurations                 1
@    Number of orbital rotations           3275
     ------------------------------------------
@    Total number of variables             3276

     Maximum number of Fock   iterations      0
     Maximum number of DIIS   iterations     60
     Maximum number of QC-SCF iterations     60
     Threshold for SCF convergence     1.00D-07


 Changes of defaults for CC:
 ---------------------------


 -Implicit frozen core calculation
 -Excitation energies calculated
 -One-photon absorption strengths will be calculated
 -Oscillator strengths calculated
  
* Read MO coefficients from SIRIUS.RST with label "NEWORB  " and header info:  1Jan19  REORTHO 


 ***********************************************
 ***** DIIS acceleration of SCF iterations *****
 ***********************************************

 C1-DIIS algorithm; max error vectors =    8
 -----------------------------------------------------------------------------

 *** DIIS iteration number    1
 RDSUPM called. NFMAT, ISYMDM(1:NFMAT)                     1
                     1

Calculating AOSUPINT
     (Precalculated two-electron integrals are transformed to P-supermatrix elements.
      Threshold for discarding integrals :  1.00D-12 )
  CPU  time used in FORMSUP    is   6.27 seconds
  WALL time used in FORMSUP    is   7.74 seconds

 ITDIIS, energy, error norm, change in energy, scr.thr., difden:
@ DIIS iter.   1    -359.863007270        3.75781D+00   -3.60D+02  -20    F

 (DIIS_RED) Control Parameters C2DIIS =         F NEVC =    1


 (DIIS_RED) B matrix:

               Column   1
       1      14.12112821
    ==== End of matrix output ====

 DIIS C vector; C2DIIS = F, LAMBDA = -1.41D+01
    1.000000
* Read MO coefficients from SIRIUS.RST with label "NEWORB  " and header info:  1Jan19  DIIS   1
      Virial theorem: -V/T =      1.998780
@      MULPOP N      -0.40; H       0.17; H       0.17; H       0.15; O      -0.63; O      -0.65; O      -0.62; O      -0.79; H       0.33; H       0.33; 
@             H       0.33; H       0.33; H       0.33; H       0.31; H       0.32; H       0.31; 
   1  Level shift: doubly occupied orbital energies shifted by -2.00D-01

 DIIS Fock eigenvalues in symmetry 1
      -20.76912      -20.72681      -20.69321      -20.57980      -15.97069
       -1.59325       -1.55536       -1.51211       -1.46884       -1.43286
       -0.97772       -0.94604       -0.93063       -0.92014       -0.90892
       -0.88313       -0.83886       -0.80050       -0.79481       -0.75873
       -0.75456       -0.74755       -0.72451       -0.70777       -0.67750
        0.09542        0.13342        0.15571        0.18577        0.21358
        0.23216        0.24034        0.26270        0.27414        0.29693
        0.34683        0.41867        0.44232        0.48877        0.53462
        0.54311        0.55024        0.55917        0.57623        0.58382
        0.59389        0.63237        0.82275        0.86605        0.89080
        0.92339        0.95308        0.97675        0.98348        1.01488
        1.02370        1.03387        1.05722        1.06339        1.09530
        1.13094        1.15117        1.20112        1.22344        1.26606
        1.29855        1.33847        1.34308        1.42466        1.45207
        1.45384        1.46703        1.48843        1.50075        1.53220
        1.60897        1.63163        1.66135        1.70273        1.71196
        1.72146        1.73303        1.73788        1.79191        1.80079
        1.84051        1.87434        1.90815        1.94520        2.02750
        2.06294        2.15939        2.21916        2.23989        2.27111
        2.28067        2.28773        2.32145        2.41406        2.51574
        2.53669        2.59139        2.62052        2.65084        2.66286
        2.68384        2.70290        2.73085        2.74949        2.77123
        2.80144        2.81168        2.87637        3.01941        3.28199
        3.33758        3.38887        3.39241        3.41795        3.45166
        3.45363        3.51725        3.52586        3.57240        3.59086
        3.59656        3.63797        3.64761        3.93249        4.01555
        4.03783        4.08688        4.14599        4.15748        4.18685
        4.19825        4.44053        4.93639        5.00461        5.30686
        5.32271        5.32864        5.40041        5.68689        5.69190
        5.71374        5.72022        6.07144        6.11498        6.18786
        6.22181       36.77121       51.50967       51.56361       51.56799
       51.71016
 Time used in FCKEIG, thr_jaco:   4.17D-01  4.20D-02  1.64D-04
 CPU and wall times used in FCKEIG, THR_FCKEIG:   4.17D-01  4.20D-02  3.76D-02
 -----------------------------------------------------------------------------

 *** DIIS iteration number    2
 RDSUPM called. NFMAT, ISYMDM(1:NFMAT)                     1
                     1

 ITDIIS, energy, error norm, change in energy, scr.thr., difden:
@ DIIS iter.   2    -360.642912367        8.96092D-01   -7.80D-01  -20    F

 (DIIS_RED) Control Parameters C2DIIS =         F NEVC =    2


 (DIIS_RED) B matrix:

               Column   1     Column   2
       1      14.12112821
       2       1.02628828     0.80298065
    ==== End of matrix output ====

 DIIS C vector; C2DIIS = F, LAMBDA = -7.99D-01
   -0.017349    1.017349
* Read MO coefficients from SIRIUS.RST with label "NEWORB  " and header info:  1Jan19  DIIS   2
      Virial theorem: -V/T =      2.003677
@      MULPOP N      -0.66; H       0.23; H       0.22; H       0.24; O      -0.59; O      -0.58; O      -0.58; O      -0.66; H       0.29; H       0.32; 
@             H       0.31; H       0.28; H       0.29; H       0.31; H       0.29; H       0.31; 
   2  Level shift: doubly occupied orbital energies shifted by -5.00D-02

 DIIS Fock eigenvalues in symmetry 1
      -20.66031      -20.65368      -20.60859      -20.59860      -15.49452
       -1.42938       -1.38295       -1.37333       -1.35900       -1.15646
       -0.79691       -0.75857       -0.75166       -0.73889       -0.68198
       -0.65520       -0.64114       -0.63224       -0.62810       -0.61114
       -0.60069       -0.57116       -0.56010       -0.55621       -0.47309
        0.13304        0.16856        0.18589        0.20539        0.24526
        0.24949        0.27260        0.28083        0.30369        0.34496
        0.36480        0.47852        0.50005        0.52557        0.57421
        0.57923        0.58795        0.59685        0.60666        0.61353
        0.63171        0.69735        0.91192        0.92571        0.95013
        0.96985        0.97183        0.98994        1.00343        1.01428
        1.05874        1.07148        1.08187        1.08563        1.12089
        1.12766        1.16779        1.24987        1.31513        1.32925
        1.34342        1.38501        1.38926        1.47545        1.50106
        1.50686        1.51802        1.52471        1.53518        1.58471
        1.65354        1.66881        1.70276        1.75387        1.76475
        1.76871        1.80682        1.81473        1.85365        1.86188
        1.90565        1.94159        1.96491        2.02310        2.14098
        2.17263        2.21350        2.26152        2.29813        2.30182
        2.33671        2.34323        2.39719        2.49687        2.59624
        2.59875        2.65601        2.67432        2.68565        2.74812
        2.75740        2.76903        2.79625        2.81331        2.82434
        2.92655        2.95656        3.01549        3.14386        3.39545
        3.40204        3.40890        3.45217        3.45551        3.48233
        3.51223        3.53662        3.54582        3.56479        3.60954
        3.62118        3.62463        3.68054        3.96197        4.05037
        4.05519        4.05804        4.15764        4.17491        4.17777
        4.22688        4.62784        5.14695        5.20617        5.29566
        5.31445        5.32338        5.34814        5.61728        5.68178
        5.70576        5.72486        6.09724        6.12521        6.14212
        6.22789       37.09216       51.47062       51.49145       51.50114
       51.54864
 Time used in FCKEIG, thr_jaco:   3.35D-01  3.50D-02  3.91D-05
 CPU and wall times used in FCKEIG, THR_FCKEIG:   3.35D-01  3.50D-02  8.96D-03
 -----------------------------------------------------------------------------

 *** DIIS iteration number    3
 RDSUPM called. NFMAT, ISYMDM(1:NFMAT)                     1
                     1

 ITDIIS, energy, error norm, change in energy, scr.thr., difden:
@ DIIS iter.   3    -360.700616874        3.15297D-01   -5.77D-02  -20    F

 (DIIS_RED) Control Parameters C2DIIS =         F NEVC =    3


 (DIIS_RED) B matrix:

               Column   1     Column   2     Column   3
       1      14.12112821
       2       1.02628828     0.80298065
       3       0.54969335     0.07710399     0.09941249
    ==== End of matrix output ====

 DIIS C vector; C2DIIS = F, LAMBDA = -8.18D-02
   -0.036373    0.054071    0.982302
* Read MO coefficients from SIRIUS.RST with label "NEWORB  " and header info:  1Jan19  DIIS   3
      Virial theorem: -V/T =      2.002028
@      MULPOP N      -0.59; H       0.20; H       0.19; H       0.22; O      -0.64; O      -0.62; O      -0.64; O      -0.74; H       0.31; H       0.34; 
@             H       0.33; H       0.30; H       0.31; H       0.35; H       0.34; H       0.34; 
   3  Level shift: doubly occupied orbital energies shifted by -2.50D-02

 DIIS Fock eigenvalues in symmetry 1
      -20.60603      -20.55554      -20.54385      -20.51162      -15.59992
       -1.39318       -1.35069       -1.31959       -1.30990       -1.16664
       -0.75954       -0.72439       -0.69978       -0.69674       -0.65441
       -0.63993       -0.63314       -0.59527       -0.57011       -0.56560
       -0.55867       -0.51863       -0.50749       -0.49914       -0.47215
        0.13644        0.17137        0.18924        0.21039        0.24914
        0.25120        0.27415        0.28387        0.30426        0.34468
        0.36927        0.47716        0.49932        0.53402        0.58366
        0.58691        0.59544        0.60368        0.61625        0.62255
        0.63818        0.69692        0.91554        0.91984        0.95370
        0.97753        0.99429        0.99621        1.01336        1.02848
        1.06601        1.07734        1.08984        1.09499        1.12783
        1.14916        1.17588        1.25267        1.31543        1.33569
        1.34851        1.38449        1.38928        1.48731        1.51172
        1.51689        1.52735        1.53526        1.54669        1.59308
        1.66309        1.68358        1.71148        1.76515        1.77243
        1.77780        1.81036        1.81547        1.86055        1.86868
        1.91323        1.94638        1.97056        2.02639        2.12795
        2.16104        2.22418        2.27305        2.30748        2.32120
        2.34837        2.35598        2.40746        2.50639        2.60197
        2.60756        2.66445        2.68430        2.69784        2.75354
        2.76410        2.77632        2.80358        2.82006        2.83169
        2.90872        2.92945        2.99359        3.12658        3.40372
        3.41898        3.43289        3.45144        3.46921        3.49377
        3.50127        3.55898        3.57867        3.57959        3.64101
        3.64282        3.65504        3.69486        3.97994        4.06986
        4.07879        4.09488        4.19454        4.20028        4.20667
        4.24242        4.56839        5.09228        5.15723        5.33853
        5.34472        5.36195        5.36923        5.68502        5.70950
        5.72260        5.74531        6.11930        6.15263        6.20868
        6.24402       36.96578       51.50047       51.54073       51.56708
       51.60730
 Time used in FCKEIG, thr_jaco:   2.89D-01  3.00D-02  1.38D-05
 CPU and wall times used in FCKEIG, THR_FCKEIG:   2.89D-01  3.00D-02  3.15D-03
 -----------------------------------------------------------------------------

 *** DIIS iteration number    4
 RDSUPM called. NFMAT, ISYMDM(1:NFMAT)                     1
                     1

 ITDIIS, energy, error norm, change in energy, scr.thr., difden:
@ DIIS iter.   4    -360.707769058        1.17470D-01   -7.15D-03  -20    F

 (DIIS_RED) Control Parameters C2DIIS =         F NEVC =    4


 (DIIS_RED) B matrix:

               Column   1     Column   2     Column   3     Column   4
       1      14.12112821
       2       1.02628828     0.80298065
       3       0.54969335     0.07710399     0.09941249
       4      -0.00416029     0.07431406    -0.00880532     0.01379927
    ==== End of matrix output ====

 DIIS C vector; C2DIIS = F, LAMBDA = -3.54D-03
    0.000221   -0.098146    0.190865    0.907059
* Read MO coefficients from SIRIUS.RST with label "NEWORB  " and header info:  1Jan19  DIIS   4
      Virial theorem: -V/T =      2.002624
@      MULPOP N      -0.66; H       0.22; H       0.21; H       0.24; O      -0.65; O      -0.64; O      -0.65; O      -0.73; H       0.32; H       0.35; 
@             H       0.34; H       0.31; H       0.31; H       0.35; H       0.34; H       0.34; 
   4  Level shift: doubly occupied orbital energies shifted by -1.25D-02

 DIIS Fock eigenvalues in symmetry 1
      -20.60218      -20.54768      -20.54302      -20.53711      -15.54754
       -1.38445       -1.34083       -1.31158       -1.30941       -1.14141
       -0.75011       -0.71423       -0.69249       -0.69069       -0.63545
       -0.62275       -0.61151       -0.58305       -0.56132       -0.55707
       -0.54788       -0.50525       -0.49614       -0.49571       -0.44651
        0.13647        0.17146        0.18862        0.20968        0.24933
        0.25096        0.27514        0.28340        0.30590        0.34771
        0.37059        0.48177        0.50426        0.53362        0.58360
        0.58621        0.59419        0.60326        0.61488        0.62169
        0.63683        0.70061        0.92155        0.92295        0.95791
        0.97955        0.99056        0.99941        1.01397        1.02650
        1.06738        1.07838        1.08954        1.09391        1.12762
        1.14408        1.17535        1.25376        1.31951        1.33496
        1.35034        1.38889        1.39253        1.48524        1.51000
        1.51505        1.52608        1.53381        1.54506        1.59162
        1.66168        1.68190        1.71076        1.76414        1.77131
        1.77633        1.81269        1.81968        1.86009        1.86849
        1.91166        1.94809        1.97313        2.03004        2.13701
        2.16976        2.22186        2.27053        2.30539        2.31556
        2.34571        2.35331        2.40517        2.50852        2.60549
        2.60572        2.66259        2.68256        2.69603        2.75565
        2.76592        2.77671        2.80261        2.82015        2.83210
        2.91951        2.94312        3.00584        3.13626        3.40952
        3.42174        3.42990        3.44720        3.46827        3.49798
        3.50631        3.55561        3.56938        3.57801        3.63781
        3.63989        3.64501        3.69367        3.97717        4.06831
        4.07531        4.08412        4.19115        4.19548        4.19752
        4.24127        4.59028        5.11296        5.17679        5.33414
        5.33975        5.34641        5.36236        5.66597        5.70388
        5.72026        5.74160        6.11453        6.14649        6.18970
        6.24123       37.00491       51.49203       51.52933       51.56260
       51.57006
 Time used in FCKEIG, thr_jaco:   2.54D-01  2.60D-02  5.13D-06
 CPU and wall times used in FCKEIG, THR_FCKEIG:   2.54D-01  2.60D-02  1.17D-03
 -----------------------------------------------------------------------------

 *** DIIS iteration number    5
 RDSUPM called. NFMAT, ISYMDM(1:NFMAT)                     1
                     1

 ITDIIS, energy, error norm, change in energy, scr.thr., difden:
@ DIIS iter.   5    -360.708801235        2.21161D-02   -1.03D-03  -20    F

 (DIIS_RED) Control Parameters C2DIIS =         F NEVC =    5


 (DIIS_RED) B matrix:

               Column   1     Column   2     Column   3     Column   4     Column   5
       1      14.12112821
       2       1.02628828     0.80298065
       3       0.54969335     0.07710399     0.09941249
       4      -0.00416029     0.07431406    -0.00880532     0.01379927
       5       0.01158701     0.00587257     0.00441739     0.00057717     0.00048912
    ==== End of matrix output ====

 DIIS C vector; C2DIIS = F, LAMBDA = -2.39D-04
    0.001306    0.009784   -0.077737   -0.134829    1.201476
* Read MO coefficients from SIRIUS.RST with label "NEWORB  " and header info:  1Jan19  DIIS   5
      Virial theorem: -V/T =      2.002327
@      MULPOP N      -0.65; H       0.22; H       0.21; H       0.23; O      -0.66; O      -0.65; O      -0.66; O      -0.75; H       0.32; H       0.35; 
@             H       0.34; H       0.31; H       0.32; H       0.36; H       0.35; H       0.35; 

 DIIS Fock eigenvalues in symmetry 1
      -20.58843      -20.53472      -20.52898      -20.51886      -15.53288
       -1.37156       -1.32818       -1.29860       -1.29478       -1.12835
       -0.73779       -0.70214       -0.67905       -0.67820       -0.62288
       -0.61003       -0.59848       -0.57062       -0.54699       -0.54336
       -0.53512       -0.49179       -0.48234       -0.48034       -0.43303
        0.13639        0.17137        0.18843        0.20975        0.24931
        0.25095        0.27512        0.28320        0.30592        0.34787
        0.37088        0.48190        0.50441        0.53356        0.58351
        0.58623        0.59394        0.60307        0.61511        0.62178
        0.63653        0.70080        0.92197        0.92349        0.95867
        0.97988        0.99202        0.99993        1.01486        1.02778
        1.06786        1.07879        1.08964        1.09393        1.12748
        1.14494        1.17547        1.25404        1.31979        1.33498
        1.35066        1.38913        1.39284        1.48522        1.50997
        1.51463        1.52609        1.53363        1.54511        1.59125
        1.66138        1.68229        1.71062        1.76418        1.77087
        1.77596        1.81258        1.81982        1.85971        1.86814
        1.91109        1.94820        1.97323        2.03020        2.13724
        2.16998        2.22135        2.27004        2.30474        2.31597
        2.34527        2.35295        2.40464        2.50887        2.60514
        2.60578        2.66201        2.68204        2.69594        2.75545
        2.76575        2.77634        2.80200        2.81966        2.83174
        2.91984        2.94348        3.00621        3.13663        3.41016
        3.42248        3.43080        3.44874        3.46841        3.49825
        3.50707        3.55600        3.57135        3.57799        3.63835
        3.64034        3.64684        3.69371        3.97738        4.06823
        4.07559        4.08615        4.19186        4.19679        4.19847
        4.24127        4.59131        5.11386        5.17768        5.33513
        5.34074        5.34980        5.36294        5.66919        5.70466
        5.72047        5.74211        6.11486        6.14702        6.19261
        6.24114       37.00702       51.49326       51.53085       51.56306
       51.57570
 Time used in FCKEIG, thr_jaco:   2.43D-01  2.40D-02  9.66D-07
 CPU and wall times used in FCKEIG, THR_FCKEIG:   2.43D-01  2.40D-02  2.21D-04
 -----------------------------------------------------------------------------

 *** DIIS iteration number    6
 RDSUPM called. NFMAT, ISYMDM(1:NFMAT)                     1
                     1

 ITDIIS, energy, error norm, change in energy, scr.thr., difden:
@ DIIS iter.   6    -360.708873396        6.45515D-03   -7.22D-05  -20    F

 (DIIS_RED) Control Parameters C2DIIS =         F NEVC =    6


 (DIIS_RED) B matrix:

               Column   1     Column   2     Column   3     Column   4     Column   5     Column   6
       1      14.12112821
       2       1.02628828     0.80298065
       3       0.54969335     0.07710399     0.09941249
       4      -0.00416029     0.07431406    -0.00880532     0.01379927
       5       0.01158701     0.00587257     0.00441739     0.00057717     0.00048912
       6      -0.00214310    -0.00023494     0.00039919     0.00012402     0.00006013     0.00004167
    ==== End of matrix output ====

 DIIS C vector; C2DIIS = F, LAMBDA = -2.85D-05
    0.000384    0.006664   -0.021422   -0.060868    0.116543    0.958700
* Read MO coefficients from SIRIUS.RST with label "NEWORB  " and header info:  1Jan19  DIIS   6
      Virial theorem: -V/T =      2.002440
@      MULPOP N      -0.65; H       0.22; H       0.21; H       0.23; O      -0.66; O      -0.65; O      -0.66; O      -0.75; H       0.32; H       0.36; 
@             H       0.35; H       0.31; H       0.32; H       0.36; H       0.35; H       0.35; 

 DIIS Fock eigenvalues in symmetry 1
      -20.58891      -20.53478      -20.52951      -20.52086      -15.53566
       -1.37165       -1.32814       -1.29872       -1.29527       -1.12923
       -0.73801       -0.70225       -0.67953       -0.67849       -0.62339
       -0.61061       -0.59920       -0.57072       -0.54753       -0.54340
       -0.53538       -0.49164       -0.48234       -0.48069       -0.43382
        0.13631        0.17128        0.18837        0.20968        0.24926
        0.25083        0.27503        0.28313        0.30577        0.34767
        0.37074        0.48163        0.50413        0.53344        0.58336
        0.58610        0.59380        0.60301        0.61495        0.62163
        0.63646        0.70053        0.92178        0.92303        0.95824
        0.97972        0.99180        0.99971        1.01474        1.02751
        1.06770        1.07863        1.08948        1.09377        1.12737
        1.14462        1.17529        1.25377        1.31947        1.33494
        1.35041        1.38879        1.39247        1.48501        1.50978
        1.51445        1.52588        1.53346        1.54495        1.59116
        1.66122        1.68207        1.71042        1.76402        1.77074
        1.77580        1.81230        1.81947        1.85951        1.86793
        1.91097        1.94792        1.97298        2.02991        2.13662
        2.16938        2.22113        2.26982        2.30460        2.31564
        2.34507        2.35276        2.40451        2.50850        2.60494
        2.60540        2.66188        2.68185        2.69579        2.75520
        2.76550        2.77609        2.80183        2.81944        2.83156
        2.91909        2.94259        3.00540        3.13595        3.40967
        3.42198        3.43048        3.44797        3.46839        3.49804
        3.50614        3.55581        3.57072        3.57796        3.63814
        3.64015        3.64632        3.69370        3.97719        4.06819
        4.07539        4.08552        4.19160        4.19642        4.19809
        4.24125        4.58980        5.11243        5.17631        5.33486
        5.34046        5.34886        5.36289        5.66818        5.70437
        5.72039        5.74187        6.11458        6.14671        6.19161
        6.24108       37.00430       51.49278       51.53033       51.56299
       51.57375
 Time used in FCKEIG, thr_jaco:   2.75D-01  2.90D-02  2.82D-07
 CPU and wall times used in FCKEIG, THR_FCKEIG:   2.75D-01  2.90D-02  6.46D-05
 -----------------------------------------------------------------------------

 *** DIIS iteration number    7
 RDSUPM called. NFMAT, ISYMDM(1:NFMAT)                     1
                     1

 ITDIIS, energy, error norm, change in energy, scr.thr., difden:
@ DIIS iter.   7    -360.708877894        2.40118D-03   -4.50D-06  -20    F

 (DIIS_RED) Control Parameters C2DIIS =         F NEVC =    7


 (DIIS_RED) B matrix:

               Column   1     Column   2     Column   3     Column   4     Column   5     Column   6
       1      14.12112821
       2       1.02628828     0.80298065
       3       0.54969335     0.07710399     0.09941249
       4      -0.00416029     0.07431406    -0.00880532     0.01379927
       5       0.01158701     0.00587257     0.00441739     0.00057717     0.00048912
       6      -0.00214310    -0.00023494     0.00039919     0.00012402     0.00006013     0.00004167
       7       0.00074174     0.00004764     0.00006328    -0.00000177     0.00002972    -0.00000059

               Column   7
       7       0.00000577
    ==== End of matrix output ====

 DIIS C vector; C2DIIS = F, LAMBDA = -1.12D-06
   -0.000204   -0.001663    0.011263    0.022802   -0.177474    0.102176    1.043101
* Read MO coefficients from SIRIUS.RST with label "NEWORB  " and header info:  1Jan19  DIIS   7
      Virial theorem: -V/T =      2.002413
@      MULPOP N      -0.65; H       0.22; H       0.21; H       0.24; O      -0.66; O      -0.65; O      -0.66; O      -0.75; H       0.32; H       0.36; 
@             H       0.35; H       0.31; H       0.32; H       0.36; H       0.35; H       0.35; 

 DIIS Fock eigenvalues in symmetry 1
      -20.58880      -20.53481      -20.52936      -20.52010      -15.53502
       -1.37158       -1.32811       -1.29863       -1.29493       -1.12902
       -0.73799       -0.70226       -0.67933       -0.67842       -0.62335
       -0.61054       -0.59907       -0.57076       -0.54729       -0.54328
       -0.53537       -0.49158       -0.48223       -0.48032       -0.43359
        0.13634        0.17129        0.18838        0.20974        0.24929
        0.25086        0.27504        0.28313        0.30579        0.34770
        0.37083        0.48170        0.50420        0.53348        0.58339
        0.58617        0.59381        0.60303        0.61504        0.62171
        0.63646        0.70059        0.92184        0.92314        0.95838
        0.97976        0.99199        0.99979        1.01484        1.02769
        1.06778        1.07870        1.08953        1.09382        1.12740
        1.14479        1.17534        1.25388        1.31953        1.33497
        1.35049        1.38887        1.39255        1.48507        1.50984
        1.51444        1.52595        1.53351        1.54504        1.59116
        1.66122        1.68220        1.71047        1.76411        1.77074
        1.77581        1.81234        1.81954        1.85953        1.86795
        1.91096        1.94800        1.97304        2.02996        2.13672
        2.16948        2.22114        2.26982        2.30460        2.31579
        2.34508        2.35277        2.40450        2.50862        2.60493
        2.60548        2.66187        2.68185        2.69589        2.75521
        2.76552        2.77610        2.80184        2.81946        2.83161
        2.91924        2.94278        3.00557        3.13607        3.40981
        3.42213        3.43061        3.44826        3.46840        3.49811
        3.50637        3.55588        3.57104        3.57798        3.63823
        3.64023        3.64661        3.69371        3.97725        4.06820
        4.07546        4.08585        4.19172        4.19661        4.19828
        4.24127        4.59016        5.11274        5.17661        5.33496
        5.34057        5.34930        5.36292        5.66863        5.70447
        5.72041        5.74193        6.11465        6.14680        6.19205
        6.24108       37.00493       51.49289       51.53047       51.56296
       51.57449
 Time used in FCKEIG, thr_jaco:   3.33D-01  3.50D-02  1.05D-07
 CPU and wall times used in FCKEIG, THR_FCKEIG:   3.33D-01  3.50D-02  2.40D-05
 -----------------------------------------------------------------------------

 *** DIIS iteration number    8
 RDSUPM called. NFMAT, ISYMDM(1:NFMAT)                     1
                     1

 ITDIIS, energy, error norm, change in energy, scr.thr., difden:
@ DIIS iter.   8    -360.708878434        3.37811D-04   -5.40D-07  -20    F

 (DIIS_RED) Control Parameters C2DIIS =         F NEVC =    8


 (DIIS_RED) B matrix:

               Column   1     Column   2     Column   3     Column   4     Column   5     Column   6
       1      14.12112821
       2       1.02628828     0.80298065
       3       0.54969335     0.07710399     0.09941249
       4      -0.00416029     0.07431406    -0.00880532     0.01379927
       5       0.01158701     0.00587257     0.00441739     0.00057717     0.00048912
       6      -0.00214310    -0.00023494     0.00039919     0.00012402     0.00006013     0.00004167
       7       0.00074174     0.00004764     0.00006328    -0.00000177     0.00002972    -0.00000059
       8       0.00001230     0.00000445    -0.00000090     0.00000369     0.00000103     0.00000117

               Column   7     Column   8
       7       0.00000577
       8       0.00000023     0.00000011
    ==== End of matrix output ====

 DIIS C vector; C2DIIS = F, LAMBDA = -5.30D-08
    0.000022    0.000138   -0.001469   -0.002795    0.030312   -0.055148   -0.191025    1.219964
* Read MO coefficients from SIRIUS.RST with label "NEWORB  " and header info:  1Jan19  DIIS   8
      Virial theorem: -V/T =      2.002430
@      MULPOP N      -0.65; H       0.22; H       0.21; H       0.24; O      -0.66; O      -0.65; O      -0.66; O      -0.75; H       0.32; H       0.36; 
@             H       0.35; H       0.31; H       0.32; H       0.36; H       0.35; H       0.35; 

 DIIS Fock eigenvalues in symmetry 1
      -20.58879      -20.53479      -20.52937      -20.52014      -15.53505
       -1.37157       -1.32810       -1.29863       -1.29494       -1.12903
       -0.73799       -0.70225       -0.67933       -0.67842       -0.62336
       -0.61056       -0.59908       -0.57077       -0.54730       -0.54327
       -0.53539       -0.49158       -0.48223       -0.48032       -0.43361
        0.13633        0.17129        0.18837        0.20974        0.24929
        0.25086        0.27504        0.28313        0.30579        0.34770
        0.37082        0.48169        0.50419        0.53348        0.58339
        0.58616        0.59380        0.60303        0.61504        0.62171
        0.63646        0.70059        0.92183        0.92313        0.95837
        0.97976        0.99199        0.99978        1.01484        1.02768
        1.06777        1.07870        1.08953        1.09382        1.12741
        1.14480        1.17533        1.25387        1.31953        1.33497
        1.35048        1.38887        1.39254        1.48506        1.50983
        1.51444        1.52594        1.53350        1.54503        1.59115
        1.66122        1.68219        1.71046        1.76410        1.77074
        1.77581        1.81233        1.81953        1.85952        1.86795
        1.91096        1.94799        1.97303        2.02996        2.13670
        2.16947        2.22113        2.26981        2.30459        2.31579
        2.34507        2.35277        2.40450        2.50860        2.60493
        2.60546        2.66187        2.68185        2.69589        2.75520
        2.76551        2.77609        2.80184        2.81945        2.83160
        2.91922        2.94276        3.00555        3.13606        3.40980
        3.42212        3.43061        3.44825        3.46841        3.49811
[...]

 Principal values of diagonalized transition strength matrix:

             a.u.               
 1      -0.00000000
 2       0.00000000
 3       0.00007637

 Principal axis of diagonalized transition strength matrix:


               Column   1     Column   2     Column   3
       1       0.45324520     0.79250323     0.40805322
       2      -0.05833032    -0.43042355     0.90074033
       3       0.88947533    -0.43205810    -0.14886044
    ==== End of matrix output ====


 CCSD   oscillator strength matrix for state nr. 13 of symmetry 1
 CCSD  excitation energy:15.12462743


               Column   1     Column   2     Column   3
       1     1.282112D-04   2.830269D-04  -4.678463D-05
       2     2.830269D-04   6.247545D-04  -1.032484D-04
       3    -4.678463D-05  -1.032484D-04   1.704306D-05
    ==== End of matrix output ====

 Principal values of diagonalized oscillator strength matrix:

             a.u.               
 1      -0.00000003
 2      -0.00000000
 3       0.00077003

 Principal axis of diagonalized oscillator strength matrix:


               Column   1     Column   2     Column   3
       1       0.45324520     0.79250323     0.40805322
       2      -0.05833032    -0.43042355     0.90074033
       3       0.88947533    -0.43205810    -0.14886044
    ==== End of matrix output ====


 CCSD  Transition strength matrix for state nr. 14 of symmetry 1
 CCSD  excitation energy:15.22559765

 Gauge: length

               Column   1     Column   2     Column   3
       1     2.237140D-06   1.361057D-06   6.456551D-06
       2     1.361057D-06   8.280162D-07   3.928941D-06
       3     6.456551D-06   3.928941D-06   1.861671D-05
    ==== End of matrix output ====

 Principal values of diagonalized transition strength matrix:

             a.u.               
 1      -0.00000000
 2      -0.00000000
 3       0.00002168

 Principal axis of diagonalized transition strength matrix:


               Column   1     Column   2     Column   3
       1       0.73459578    -0.59760570     0.32130433
       2       0.56601150     0.80087781     0.19551396
       3      -0.37416576     0.03823821     0.92657316
    ==== End of matrix output ====


 CCSD   oscillator strength matrix for state nr. 14 of symmetry 1
 CCSD  excitation energy:15.22559765


               Column   1     Column   2     Column   3
       1     2.270786D-05   1.381527D-05   6.553656D-05
       2     1.381527D-05   8.404695D-06   3.988032D-05
       3     6.553656D-05   3.988032D-05   1.889670D-04
    ==== End of matrix output ====

 Principal values of diagonalized oscillator strength matrix:

             a.u.               
 1      -0.00000003
 2       0.00000000
 3       0.00022011

 Principal axis of diagonalized oscillator strength matrix:


               Column   1     Column   2     Column   3
       1       0.73459578    -0.59760570     0.32130433
       2       0.56601150     0.80087781     0.19551396
       3      -0.37416576     0.03823821     0.92657316
    ==== End of matrix output ====


 CCSD  Transition strength matrix for state nr. 15 of symmetry 1
 CCSD  excitation energy:15.28379886

 Gauge: length

               Column   1     Column   2     Column   3
       1     3.264369D-06  -8.056660D-06   3.531094D-05
       2    -8.056660D-06   1.985866D-05  -8.707533D-05
       3     3.531094D-05  -8.707533D-05   3.817467D-04
    ==== End of matrix output ====

 Principal values of diagonalized transition strength matrix:

             a.u.               
 1      -0.00000000
 2      -0.00000000
 3       0.00040487

 Principal axis of diagonalized transition strength matrix:


               Column   1     Column   2     Column   3
       1       0.63270018     0.76917041     0.08981847
       2       0.76564199    -0.60393423    -0.22148543
       3       0.11611559    -0.20890266     0.97101846
    ==== End of matrix output ====


 CCSD   oscillator strength matrix for state nr. 15 of symmetry 1
 CCSD  excitation energy:15.28379886


               Column   1     Column   2     Column   3
       1       0.00003326    -0.00008209     0.00035979
       2      -0.00008209     0.00020234    -0.00088723
       3       0.00035979    -0.00088723     0.00388969
    ==== End of matrix output ====

 Principal values of diagonalized oscillator strength matrix:

             a.u.               
 1      -0.00000005
 2       0.00000000
 3       0.00412535

 Principal axis of diagonalized oscillator strength matrix:


               Column   1     Column   2     Column   3
       1       0.63270018     0.76917041     0.08981847
       2       0.76564199    -0.60393423    -0.22148543
       3       0.11611559    -0.20890266     0.97101846
    ==== End of matrix output ====

  Total time for    135 linear response residues:     270.41 seconds.
  

 *******************************************************************************
 *******************************************************************************
 *                                                                             *
 *                                                                             *
 *                   SUMMARY OF COUPLED CLUSTER CALCULATION                    *
 *                                                                             *
 *                                                                             *
 *******************************************************************************
 *******************************************************************************

                                                                                
                                                                                
            Total SCF   energy:                  -360.7088784517                
            Total MP2   energy:                  -361.8050486794                
            Total CCSD  energy:                  -361.8460607800                
                                                                                
                                                                                
            Total SCF   energy:                  -360.7088784517                
            Total RSTAR energy:                  -361.8460607800                
            Total CCSD  energy:                  -361.8461911056                
                                                                                
                                                                                
            Total SCF   energy:                  -360.7088784517                
            Total RSTAR energy:                  -361.8461911056                
            Total CCSD  energy:                  -361.8461918461                
                                                                                
                                                                                
            Total SCF   energy:                  -360.7088784517                
            Total RSTAR energy:                  -361.8461918461                
            Total CCSD  energy:                  -361.8461919349                
                                                                                
                                                                                
            Total SCF   energy:                  -360.7088784517                
            Total RSTAR energy:                  -361.8461919349                
            Total CCSD  energy:                  -361.8461919382                
                                                                                
                                                                                
            Total SCF   energy:                  -360.7088784517                
            Total RSTAR energy:                  -361.8461919382                
            Total CCSD  energy:                  -361.8461919383                
            CCSD Total  energy:                  -362.1764451547                
            CCSD E(QM/MM)     :                    -0.3260899255                
                                                                                
                                                                                
                                                                                
 +=============================================================================+
 |  sym. | Exci.  |        CCSD       Excitation energies            | ||T1||  |
 |(spin, |        +------------------------------------------------------------+
 | spat) |        |     Hartree    |       eV.      |     cm-1       |    %    |
 +=============================================================================+
 | ^1A   |    1   |    14.8191323  |     403.24910  |   3252423.562  |  88.19  |
 | ^1A   |    2   |    14.8834602  |     404.99955  |   3266541.903  |  88.65  |
 | ^1A   |    3   |    14.8970866  |     405.37035  |   3269532.564  |  88.61  |
 | ^1A   |    4   |    14.9625326  |     407.15122  |   3283896.289  |  88.30  |
 | ^1A   |    5   |    14.9782384  |     407.57860  |   3287343.325  |  88.03  |
 | ^1A   |    6   |    15.0093119  |     408.42415  |   3294163.175  |  87.93  |
 | ^1A   |    7   |    15.0115598  |     408.48532  |   3294656.528  |  87.95  |
 | ^1A   |    8   |    15.0432581  |     409.34788  |   3301613.499  |  87.85  |
 | ^1A   |    9   |    15.0791729  |     410.32517  |   3309495.892  |  87.73  |
 | ^1A   |   10   |    15.0901512  |     410.62390  |   3311905.336  |  88.08  |
 | ^1A   |   11   |    15.0984263  |     410.84908  |   3313721.521  |  87.84  |
 | ^1A   |   12   |    15.1034579  |     410.98600  |   3314825.824  |  87.82  |
 | ^1A   |   13   |    15.1246274  |     411.56205  |   3319471.999  |  87.83  |
 | ^1A   |   14   |    15.2255977  |     414.30959  |   3341632.401  |  87.47  |
 | ^1A   |   15   |    15.2837989  |     415.89332  |   3354406.090  |  87.99  |
 +=============================================================================+
                                                                                
                                                                                
     Total energies in Hartree:                                                 
             1 ^1A       -347.0312229605                                        
             2 ^1A       -346.9668950637                                        
             3 ^1A       -346.9532686099                                        
             4 ^1A       -346.8878226624                                        
             5 ^1A       -346.8721168126                                        
             6 ^1A       -346.8410432889                                        
             7 ^1A       -346.8387954079                                        
             8 ^1A       -346.8070971123                                        
             9 ^1A       -346.7711822902                                        
            10 ^1A       -346.7602040549                                        
            11 ^1A       -346.7519289057                                        
            12 ^1A       -346.7468973317                                        
            13 ^1A       -346.7257278013                                        
            14 ^1A       -346.6247575776                                        
            15 ^1A       -346.5665563671                                        
                                                                                
                                                                                
 +=============================================================================+
 |  sym. | Exci.  |        CCSD       Length   Gauge Oscillator Strength       |
 |(spin, |        +------------------------------------------------------------+
 | spat) |        | Dipole Strength(a.u.) | Oscillator strength  | Direction   |
 +=============================================================================+
 | ^1A   |    1   |        0.0006874      |      0.0067916       |  (Y,Z)      |
 | ^1A   |    2   |        0.0039954      |      0.0396441       |  (Y,Z)      |
 | ^1A   |    3   |        0.0033088      |      0.0328606       |  (Y,Z)      |
 | ^1A   |    4   |        0.0016562      |      0.0165202       |  (Y,Z)      |
 | ^1A   |    5   |        0.0008203      |      0.0081910       |  (Y,Z)      |
 | ^1A   |    6   |        0.0005808      |      0.0058113       |  (Y,Z)      |
 | ^1A   |    7   |        0.0002003      |      0.0020044       |  (Y,Z)      |
 | ^1A   |    8   |        0.0000122      |      0.0001223       |  (Y,Z)      |
 | ^1A   |    9   |        0.0000895      |      0.0008992       |  (Y,Z)      |
 | ^1A   |   10   |        0.0009258      |      0.0093132       |  (Y,Z)      |
 | ^1A   |   11   |        0.0001037      |      0.0010443       |  (Y,Z)      |
 | ^1A   |   12   |        0.0000597      |      0.0006006       |  (Y,Z)      |
 | ^1A   |   13   |        0.0000764      |      0.0007700       |  (Y,Z)      |
 | ^1A   |   14   |        0.0000217      |      0.0002201       |  (Y,Z)      |
 | ^1A   |   15   |        0.0004049      |      0.0041253       |  (Y,Z)      |
 +=============================================================================+

  1 a.u. =        27.21138 eV.  
  1 a.u. =    219474.62934 cm-1.
  

 *******************************************************************************
 *******************************************************************************
 *                                                                             *
 *                                                                             *
 *                      END OF COUPLED CLUSTER CALCULATION                     *
 *                                                                             *
 *                                                                             *
 *******************************************************************************
 *******************************************************************************


 CPU and wall time for CC :  477619.446   52287.188

 
     Date and time (Linux)  : Wed Jan  2 09:52:49 2019
     Host name              : n-62-24-6                               


                      .-------------------------------------.
                      | End of Coupled Cluster Section (CC) |
                      `-------------------------------------'

  Total CPU  time used in DALTON: 132 hours 52 minutes  6 seconds
  Total wall time used in DALTON:  14 hours 33 minutes 54 seconds

 
     Date and time (Linux)  : Wed Jan  2 09:52:49 2019
     Host name              : n-62-24-6                               
  

 +---------------------------------------------------------+ 
 | List of selected calculated molecular properties (a.u.) | 
 +---------------------------------------------------------+ 

  Properties are read from unit number                      4

 CCSD       properties :
 #  1 1 CCSD/MM  Ground state Energy =    -362.1764451547
 #  2 1 E_QM/MM  Ground state Energy =      -0.3260899255
 #  3 1 Sy: 1 Sp: 1 Exc:  1 E_tot:   -347.0312229605 w:     14.8191322687 E_grs:   -361.8503552292
 #  4 1 Exctot   Excited state Energy =    -347.0312229605
 #  5 1 Sy: 1 Sp: 1 Exc:  2 E_tot:   -346.9668950637 w:     14.8834601655 E_grs:   -361.8503552292
 #  6 1 Exctot   Excited state Energy =    -346.9668950637
 #  7 1 Sy: 1 Sp: 1 Exc:  3 E_tot:   -346.9532686099 w:     14.8970866193 E_grs:   -361.8503552292
 #  8 1 Exctot   Excited state Energy =    -346.9532686099
 #  9 1 Sy: 1 Sp: 1 Exc:  4 E_tot:   -346.8878226624 w:     14.9625325669 E_grs:   -361.8503552292
 # 10 1 Exctot   Excited state Energy =    -346.8878226624
 # 11 1 Sy: 1 Sp: 1 Exc:  5 E_tot:   -346.8721168126 w:     14.9782384166 E_grs:   -361.8503552292
 # 12 1 Exctot   Excited state Energy =    -346.8721168126
 # 13 1 Sy: 1 Sp: 1 Exc:  6 E_tot:   -346.8410432889 w:     15.0093119403 E_grs:   -361.8503552292
 # 14 1 Exctot   Excited state Energy =    -346.8410432889
 # 15 1 Sy: 1 Sp: 1 Exc:  7 E_tot:   -346.8387954079 w:     15.0115598213 E_grs:   -361.8503552292
 # 16 1 Exctot   Excited state Energy =    -346.8387954079
 # 17 1 Sy: 1 Sp: 1 Exc:  8 E_tot:   -346.8070971123 w:     15.0432581169 E_grs:   -361.8503552292
 # 18 1 Exctot   Excited state Energy =    -346.8070971123
 # 19 1 Sy: 1 Sp: 1 Exc:  9 E_tot:   -346.7711822902 w:     15.0791729390 E_grs:   -361.8503552292
 # 20 1 Exctot   Excited state Energy =    -346.7711822902
 # 21 1 Sy: 1 Sp: 1 Exc: 10 E_tot:   -346.7602040549 w:     15.0901511743 E_grs:   -361.8503552292
 # 22 1 Exctot   Excited state Energy =    -346.7602040549
 # 23 1 Sy: 1 Sp: 1 Exc: 11 E_tot:   -346.7519289057 w:     15.0984263235 E_grs:   -361.8503552292
 # 24 1 Exctot   Excited state Energy =    -346.7519289057
 # 25 1 Sy: 1 Sp: 1 Exc: 12 E_tot:   -346.7468973317 w:     15.1034578975 E_grs:   -361.8503552292
 # 26 1 Exctot   Excited state Energy =    -346.7468973317
 # 27 1 Sy: 1 Sp: 1 Exc: 13 E_tot:   -346.7257278013 w:     15.1246274279 E_grs:   -361.8503552292
 # 28 1 Exctot   Excited state Energy =    -346.7257278013
 # 29 1 Sy: 1 Sp: 1 Exc: 14 E_tot:   -346.6247575776 w:     15.2255976516 E_grs:   -361.8503552292
 # 30 1 Exctot   Excited state Energy =    -346.6247575776
 # 31 1 Sy: 1 Sp: 1 Exc: 15 E_tot:   -346.5665563671 w:     15.2837988621 E_grs:   -361.8503552292
 # 32 1 Exctot   Excited state Energy =    -346.5665563671
 # 33 1 |<O|XDIPLEN |i(14.819132)>| =     0.00457497
 # 35 1 |<O|XDIPLEN |i(14.883460)>| =     0.02173455
 # 37 1 |<O|XDIPLEN |i(14.897087)>| =     0.05235643
 # 39 1 |<O|XDIPLEN |i(14.962533)>| =     0.01568684
 # 41 1 |<O|XDIPLEN |i(14.978238)>| =     0.02766745
 # 43 1 |<O|XDIPLEN |i(15.009312)>| =     0.01235225
 # 45 1 |<O|XDIPLEN |i(15.011560)>| =     0.00318299
 # 47 1 |<O|XDIPLEN |i(15.043258)>| =     0.00274092
 # 49 1 |<O|XDIPLEN |i(15.079173)>| =     0.00062452
 # 51 1 |<O|XDIPLEN |i(15.090151)>| =     0.00070435
 # 53 1 |<O|XDIPLEN |i(15.098426)>| =     0.00766676
 # 55 1 |<O|XDIPLEN |i(15.103458)>| =     0.00391617
 # 57 1 |<O|XDIPLEN |i(15.124627)>| =     0.00356588
 # 59 1 |<O|XDIPLEN |i(15.225598)>| =     0.00149571
 # 61 1 |<O|XDIPLEN |i(15.283799)>| =     0.00180676
 # 63 1 |<O|YDIPLEN |i(14.819132)>| =     0.01557209
 # 65 1 |<O|YDIPLEN |i(14.883460)>| =     0.05009095
 # 67 1 |<O|YDIPLEN |i(14.897087)>| =     0.01348472
 # 69 1 |<O|YDIPLEN |i(14.962533)>| =     0.02004498
 # 71 1 |<O|YDIPLEN |i(14.978238)>| =     0.00210582
 # 73 1 |<O|YDIPLEN |i(15.009312)>| =     0.01846318
 # 75 1 |<O|YDIPLEN |i(15.011560)>| =     0.00216407
 # 77 1 |<O|YDIPLEN |i(15.043258)>| =     0.00022588
 # 79 1 |<O|YDIPLEN |i(15.079173)>| =     0.00820441
 # 81 1 |<O|YDIPLEN |i(15.090151)>| =     0.01621199
 # 83 1 |<O|YDIPLEN |i(15.098426)>| =     0.00315880
 # 85 1 |<O|YDIPLEN |i(15.103458)>| =     0.00092518
 # 87 1 |<O|YDIPLEN |i(15.124627)>| =     0.00787151
 # 89 1 |<O|YDIPLEN |i(15.225598)>| =     0.00090995
 # 91 1 |<O|YDIPLEN |i(15.283799)>| =     0.00445631
 # 93 1 |<O|ZDIPLEN |i(14.819132)>| =     0.02059192
 # 95 1 |<O|ZDIPLEN |i(14.883460)>| =     0.03184266
 # 97 1 |<O|ZDIPLEN |i(14.897087)>| =     0.01963999
 # 99 1 |<O|ZDIPLEN |i(14.962533)>| =     0.03175339
 #101 1 |<O|ZDIPLEN |i(14.978238)>| =     0.00709690
 #103 1 |<O|ZDIPLEN |i(15.009312)>| =     0.00934359
 #105 1 |<O|ZDIPLEN |i(15.011560)>| =     0.01361880
 #107 1 |<O|ZDIPLEN |i(15.043258)>| =     0.00215133
 #109 1 |<O|ZDIPLEN |i(15.079173)>| =     0.00466355
 #111 1 |<O|ZDIPLEN |i(15.090151)>| =     0.02573768
 #113 1 |<O|ZDIPLEN |i(15.098426)>| =     0.00591518
 #115 1 |<O|ZDIPLEN |i(15.103458)>| =     0.00659246
 #117 1 |<O|ZDIPLEN |i(15.124627)>| =     0.00130010
 #119 1 |<O|ZDIPLEN |i(15.225598)>| =     0.00431471
 #121 1 |<O|ZDIPLEN |i(15.283799)>| =     0.01953834

 THE_END   
