

     ************************************************************************
     *************** Dalton - An Electronic Structure Program ***************
     ************************************************************************

    This is output from DALTON release Dalton2017.alpha (2016)
         ( Web site: http://daltonprogram.org )

   ----------------------------------------------------------------------------

    NOTE:
     
    Dalton is an experimental code for the evaluation of molecular
    properties using (MC)SCF, DFT, CI, and CC wave functions.
    The authors accept no responsibility for the performance of
    the code or for the correctness of the results.
     
    The code (in whole or part) is provided under a licence and
    is not to be reproduced for further distribution without
    the written permission of the authors or their representatives.
     
    See the home page "http://daltonprogram.org" for further information.
     
    If results obtained with this code are published,
    the appropriate citations would be both of:
     
       K. Aidas, C. Angeli, K. L. Bak, V. Bakken, R. Bast,
       L. Boman, O. Christiansen, R. Cimiraglia, S. Coriani,
       P. Dahle, E. K. Dalskov, U. Ekstroem,
       T. Enevoldsen, J. J. Eriksen, P. Ettenhuber, B. Fernandez,
       L. Ferrighi, H. Fliegl, L. Frediani, K. Hald, A. Halkier,
       C. Haettig, H. Heiberg, T. Helgaker, A. C. Hennum,
       H. Hettema, E. Hjertenaes, S. Hoest, I.-M. Hoeyvik,
       M. F. Iozzi, B. Jansik, H. J. Aa. Jensen, D. Jonsson,
       P. Joergensen, J. Kauczor, S. Kirpekar,
       T. Kjaergaard, W. Klopper, S. Knecht, R. Kobayashi, H. Koch,
       J. Kongsted, A. Krapp, K. Kristensen, A. Ligabue,
       O. B. Lutnaes, J. I. Melo, K. V. Mikkelsen, R. H. Myhre,
       C. Neiss, C. B. Nielsen, P. Norman, J. Olsen,
       J. M. H. Olsen, A. Osted, M. J. Packer, F. Pawlowski,
       T. B. Pedersen, P. F. Provasi, S. Reine, Z. Rinkevicius,
       T. A. Ruden, K. Ruud, V. Rybkin, P. Salek, C. C. M. Samson,
       A. Sanchez de Meras, T. Saue, S. P. A. Sauer,
       B. Schimmelpfennig, K. Sneskov, A. H. Steindal,
       K. O. Sylvester-Hvid, P. R. Taylor, A. M. Teale,
       E. I. Tellgren, D. P. Tew, A. J. Thorvaldsen, L. Thoegersen,
       O. Vahtras, M. A. Watson, D. J. D. Wilson, M. Ziolkowski
       and H. Agren,
       "The Dalton quantum chemistry program system",
       WIREs Comput. Mol. Sci. 2014, 4:269–284 (doi: 10.1002/wcms.1172)
     
    and
     
       Dalton, a Molecular Electronic Structure Program,
       Release Dalton2017.alpha (2016), see http://daltonprogram.org
   ----------------------------------------------------------------------------

    Authors in alphabetical order (major contribution(s) in parenthesis):

  Kestutis Aidas,           Vilnius University,           Lithuania   (QM/MM)
  Celestino Angeli,         University of Ferrara,        Italy       (NEVPT2)
  Keld L. Bak,              UNI-C,                        Denmark     (AOSOPPA, non-adiabatic coupling, magnetic properties)
  Vebjoern Bakken,          University of Oslo,           Norway      (DALTON; geometry optimizer, symmetry detection)
  Radovan Bast,             UiT The Arctic U. of Norway,  Norway      (DALTON installation and execution frameworks)
  Pablo Baudin,             University of Valencia,       Spain       (Cholesky excitation energies)
  Linus Boman,              NTNU,                         Norway      (Cholesky decomposition and subsystems)
  Ove Christiansen,         Aarhus University,            Denmark     (CC module)
  Renzo Cimiraglia,         University of Ferrara,        Italy       (NEVPT2)
  Sonia Coriani,            University of Trieste,        Italy       (CC module, MCD in RESPONS)
  Janusz Cukras,            University of Trieste,        Italy       (MChD in RESPONS)
  Paal Dahle,               University of Oslo,           Norway      (Parallelization)
  Erik K. Dalskov,          UNI-C,                        Denmark     (SOPPA)
  Thomas Enevoldsen,        Univ. of Southern Denmark,    Denmark     (SOPPA)
  Janus J. Eriksen,         Aarhus University,            Denmark     (Polarizable embedding model, TDA)
  Rasmus Faber,             University of Copenhagen,     Denmark     (Vib.avg. NMR with SOPPA, parallel AO-SOPPA)
  Berta Fernandez,          U. of Santiago de Compostela, Spain       (doublet spin, ESR in RESPONS)
  Lara Ferrighi,            Aarhus University,            Denmark     (PCM Cubic response)
  Heike Fliegl,             University of Oslo,           Norway      (CCSD(R12))
  Luca Frediani,            UiT The Arctic U. of Norway,  Norway      (PCM)
  Bin Gao,                  UiT The Arctic U. of Norway,  Norway      (Gen1Int library)
  Christof Haettig,         Ruhr-University Bochum,       Germany     (CC module)
  Kasper Hald,              Aarhus University,            Denmark     (CC module)
  Asger Halkier,            Aarhus University,            Denmark     (CC module)
  Frederik Beyer Hansen,    University of Copenhagen,     Denmark     (Parallel AO-SOPPA)
  Erik D. Hedegaard,        Univ. of Southern Denmark,    Denmark     (Polarizable embedding model, QM/MM)
  Hanne Heiberg,            University of Oslo,           Norway      (geometry analysis, selected one-electron integrals)
  Trygve Helgaker,          University of Oslo,           Norway      (DALTON; ABACUS, ERI, DFT modules, London, and much more)
  Alf Christian Hennum,     University of Oslo,           Norway      (Parity violation)
  Hinne Hettema,            University of Auckland,       New Zealand (quadratic response in RESPONS; SIRIUS supersymmetry)
  Eirik Hjertenaes,         NTNU,                         Norway      (Cholesky decomposition)
  Pi A. B. Haase,           University of Copenhagen,     Denmark     (Triplet AO-SOPPA)
  Maria Francesca Iozzi,    University of Oslo,           Norway      (RPA)
  Brano Jansik              Technical Univ. of Ostrava    Czech Rep.  (DFT cubic response)
  Hans Joergen Aa. Jensen,  Univ. of Southern Denmark,    Denmark     (DALTON; SIRIUS, RESPONS, ABACUS modules, London, and much more)
  Dan Jonsson,              UiT The Arctic U. of Norway,  Norway      (cubic response in RESPONS module)
  Poul Joergensen,          Aarhus University,            Denmark     (RESPONS, ABACUS, and CC modules)
  Maciej Kaminski,          University of Warsaw,         Poland      (CPPh in RESPONS)
  Joanna Kauczor,           Linkoeping University,        Sweden      (Complex polarization propagator (CPP) module)
  Sheela Kirpekar,          Univ. of Southern Denmark,    Denmark     (Mass-velocity & Darwin integrals)
  Wim Klopper,              KIT Karlsruhe,                Germany     (R12 code in CC, SIRIUS, and ABACUS modules)
  Stefan Knecht,            ETH Zurich,                   Switzerland (Parallel CI and MCSCF)
  Rika Kobayashi,           Australian National Univ.,    Australia   (DIIS in CC, London in MCSCF)
  Henrik Koch,              NTNU,                         Norway      (CC module, Cholesky decomposition)
  Jacob Kongsted,           Univ. of Southern Denmark,    Denmark     (Polarizable embedding model, QM/MM)
  Andrea Ligabue,           University of Modena,         Italy       (CTOCD, AOSOPPA)
  Nanna H. List             Univ. of Southern Denmark,    Denmark     (Polarizable embedding model)
  Ola B. Lutnaes,           University of Oslo,           Norway      (DFT Hessian)
  Juan I. Melo,             University of Buenos Aires,   Argentina   (LRESC, Relativistic Effects on NMR Shieldings)
  Kurt V. Mikkelsen,        University of Copenhagen,     Denmark     (MC-SCRF and QM/MM)
  Rolf H. Myhre,            NTNU,                         Norway      (Cholesky, subsystems and ECC2)
  Christian Neiss,          Univ. Erlangen-Nuernberg,     Germany     (CCSD(R12))
  Christian B. Nielsen,     University of Copenhagen,     Denmark     (QM/MM)
  Patrick Norman,           Linkoeping University,        Sweden      (Cubic response and complex frequency response in RESPONS)
  Jeppe Olsen,              Aarhus University,            Denmark     (SIRIUS CI/density modules)
  Jogvan Magnus H. Olsen,   Univ. of Southern Denmark,    Denmark     (Polarizable embedding model, QM/MM)
  Anders Osted,             Copenhagen University,        Denmark     (QM/MM)
  Martin J. Packer,         University of Sheffield,      UK          (SOPPA)
  Filip Pawlowski,          Kazimierz Wielki University,  Poland      (CC3)
  Morten N. Pedersen,       Univ. of Southern Denmark,    Denmark     (Polarizable embedding model)
  Thomas B. Pedersen,       University of Oslo,           Norway      (Cholesky decomposition)
  Patricio F. Provasi,      University of Northeastern,   Argentina   (Analysis of coupling constants in localized orbitals)
  Zilvinas Rinkevicius,     KTH Stockholm,                Sweden      (open-shell DFT, ESR)
  Elias Rudberg,            KTH Stockholm,                Sweden      (DFT grid and basis info)
  Torgeir A. Ruden,         University of Oslo,           Norway      (Numerical derivatives in ABACUS)
  Kenneth Ruud,             UiT The Arctic U. of Norway,  Norway      (DALTON; ABACUS magnetic properties and much more)
  Pawel Salek,              KTH Stockholm,                Sweden      (DALTON; DFT code)
  Claire C. M. Samson       University of Karlsruhe       Germany     (Boys localization, r12 integrals in ERI)
  Alfredo Sanchez de Meras, University of Valencia,       Spain       (CC module, Cholesky decomposition)
  Trond Saue,               Paul Sabatier University,     France      (direct Fock matrix construction)
  Stephan P. A. Sauer,      University of Copenhagen,     Denmark     (SOPPA(CCSD), SOPPA prop., AOSOPPA, vibrational g-factors)
  Bernd Schimmelpfennig,    Forschungszentrum Karlsruhe,  Germany     (AMFI module)
  Kristian Sneskov,         Aarhus University,            Denmark     (Polarizable embedding model, QM/MM)
  Arnfinn H. Steindal,      UiT The Arctic U. of Norway,  Norway      (parallel QM/MM, Polarizable embedding model)
  Casper Steinmann,         Univ. of Southern Denmark,    Denmark     (QFIT, Polarizable embedding model)
  K. O. Sylvester-Hvid,     University of Copenhagen,     Denmark     (MC-SCRF)
  Peter R. Taylor,          VLSCI/Univ. of Melbourne,     Australia   (Symmetry handling ABACUS, integral transformation)
  Andrew M. Teale,          University of Nottingham,     England     (DFT-AC, DFT-D)
  David P. Tew,             University of Bristol,        England     (CCSD(R12))
  Olav Vahtras,             KTH Stockholm,                Sweden      (triplet response, spin-orbit, ESR, TDDFT, open-shell DFT)
  David J. Wilson,          La Trobe University,          Australia   (DFT Hessian and DFT magnetizabilities)
  Hans Agren,               KTH Stockholm,                Sweden      (SIRIUS module, RESPONS, MC-SCRF solvation model)
 --------------------------------------------------------------------------------

     Date and time (Linux)  : Mon Dec 24 23:37:45 2018
     Host name              : n-62-29-31                              

 * Work memory size             :  1280000000 =  9.537 gigabytes.

 * Directories for basis set searches:
   1) /zhome/37/3/129401/NH3NH4/CCSD/AIMD_SAMPLING/nh3_4h2o_nd
   2) /zhome/9a/4/124800/source/dalton/build-mlcc/basis


Compilation information
-----------------------

 Who compiled             | rfaber
 Host                     | hpclogin1
 System                   | Linux-2.6.32-696.1.1.el6.x86_64
 CMake generator          | Unix Makefiles
 Processor                | x86_64
 64-bit integers          | ON
 MPI                      | OFF
 Fortran compiler         | /opt/intel/2016update2/compilers_and_libraries_201
                          | 6.2.181/linux/bin/intel64/ifort
 Fortran compiler version | ifort (IFORT) 16.0.2 20160204
 C compiler               | /opt/intel/2016update2/compilers_and_libraries_201
                          | 6.2.181/linux/bin/intel64/icc
 C compiler version       | icc (ICC) 16.0.2 20160204
 C++ compiler             | /opt/intel/2016update2/compilers_and_libraries_201
                          | 6.2.181/linux/bin/intel64/icpc
 C++ compiler version     | icpc (ICC) 16.0.2 20160204
 Static linking           | OFF
 Last Git revision        | bb4d1599ca5680a9f3980451fc8bbefdba436d59
 Git branch               | mlcc
 Configuration time       | 2017-06-13 16:11:03.928841


   Content of the .dal input file
 ----------------------------------

**DALTON
.RUN WAVE FUNCTIONS
*QMMM
.QMMM
**INTEGRALS
.DIPLEN
**WAVE FUNCTIONS
.CC
*PRINT
!To check the origin of excit
.PRINTL
   0 11
*SCF INP
.THRESH
1.0D-7
*CC INP
.CCSD
.THRLEQ
 1.0D-9
.THRENR
 1.0D-10
.FROIMP
4
0
.PRINT
 1
.MAX IT
 1200
.MAXRED
 1200
.MXLRV
1199
*CCSLV
.CCMM
.MXSLIT
200
.MXINIT
4 5
*CCEXCI
.NCCEXC
 15
.CVSEPARA
1
1
*CCLRSD
.DIPOLE
**END OF DALTON INPUT


   Content of the .mol file
 ----------------------------

ATOMBASIS


Atomtypes=4 Charge=0 Nosymm Angstrom
   7.00000    1    Basis=6-311G**
N          0.000000        0.000000        0.000000
   1.00000    3    Basis=6-311G**
H         -0.967676       -0.159525        0.308401
H          0.448393       -0.928900       -0.008361
H          0.372803        0.608103        0.700507
   8.00000    4    Basis=6-311G**
O         -3.704592       -0.317806        0.068746
O         -0.564121       -3.217645       -1.356461
O          1.949973        1.981188        1.957350
O         -0.274915        1.679487       -2.296890
   1.00000    8    Basis=6-311G**
H         -4.142661        0.303075        0.618955
H         -3.354811        0.130052       -0.730410
H          0.119886       -3.695310       -0.780153
H         -1.383703       -3.343439       -0.915331
H          1.258021        2.580015        2.261656
H          2.827038        2.443481        1.993833
H          0.433315        1.591047       -3.062364
H         -0.065868        0.979882       -1.599959


       *******************************************************************
       *********** Output from DALTON general input processing ***********
       *******************************************************************

 --------------------------------------------------------------------------------
   Overall default print level:    0
   Print level for DALTON.STAT:    1

    HERMIT 1- and 2-electron integral sections will be executed
    "Old" integral transformation used (limited to max 255 basis functions)
    Wave function sections will be executed (SIRIUS module)
 --------------------------------------------------------------------------------


 Changes of defaults for *QMMM  :
 --------------------------------

 +------------------+
 |  WORD: | CHANGE: |
 +------------------+
 |   QMMM |       T |
 +------------------+
 


   ****************************************************************************
   *************** Output of molecule and basis set information ***************
   ****************************************************************************


    The two title cards from your ".mol" input:
    ------------------------------------------------------------------------
 1:                                                                         
 2:                                                                         
    ------------------------------------------------------------------------

  Coordinates are entered in Angstrom and converted to atomic units.
          - Conversion factor : 1 bohr = 0.52917721 A

  Atomic type no.    1
  --------------------
  Nuclear charge:   7.00000
  Number of symmetry independent centers:    1
  Number of basis sets to read;    2
  The basis set is "6-311G**" from the basis set library.
  Basis set file used for this atomic type with Z =   7 :
     "/zhome/9a/4/124800/source/dalton/build-mlcc/basis/6-311G**"

  Info about the basis set file: your basis has no documentation.
  Basis set: 6-311G**                                                                        

  Atomic type no.    2
  --------------------
  Nuclear charge:   1.00000
  Number of symmetry independent centers:    3
  Number of basis sets to read;    2
  The basis set is "6-311G**" from the basis set library.
  Basis set file used for this atomic type with Z =   1 :
     "/zhome/9a/4/124800/source/dalton/build-mlcc/basis/6-311G**"

  Info about the basis set file: your basis has no documentation.
  Basis set: 6-311G**                                                                        

  Atomic type no.    3
  --------------------
  Nuclear charge:   8.00000
  Number of symmetry independent centers:    4
  Number of basis sets to read;    2
  The basis set is "6-311G**" from the basis set library.
  Basis set file used for this atomic type with Z =   8 :
     "/zhome/9a/4/124800/source/dalton/build-mlcc/basis/6-311G**"

  Info about the basis set file: your basis has no documentation.
  Basis set: 6-311G**                                                                        

  Atomic type no.    4
  --------------------
  Nuclear charge:   1.00000
  Number of symmetry independent centers:    8
  Number of basis sets to read;    2
  The basis set is "6-311G**" from the basis set library.
  Basis set file used for this atomic type with Z =   1 :
     "/zhome/9a/4/124800/source/dalton/build-mlcc/basis/6-311G**"

  Info about the basis set file: your basis has no documentation.
  Basis set: 6-311G**                                                                        


                         SYMGRP: Point group information
                         -------------------------------

@    Point group: C1 


                                 Isotopic Masses
                                 ---------------

                           N          14.003074
                           H           1.007825
                           H           1.007825
                           H           1.007825
                           O          15.994915
                           O          15.994915
                           O          15.994915
                           O          15.994915
                           H           1.007825
                           H           1.007825
                           H           1.007825
                           H           1.007825
                           H           1.007825
                           H           1.007825
                           H           1.007825
                           H           1.007825

                       Total mass:    89.068809 amu
                       Natural abundance:  98.514 %

 Center-of-mass coordinates (a.u.):   -0.975436    0.053368   -0.578160


  Atoms and basis sets
  --------------------

  Number of atom types :    4
  Total number of atoms:   16

  label    atoms   charge   prim   cont     basis
  ----------------------------------------------------------------------
  N           1    7.0000    31    18      [11s5p1d|4s3p1d]                                   
  H           3    1.0000     8     6      [5s1p|3s1p]                                        
  O           4    8.0000    31    18      [11s5p1d|4s3p1d]                                   
  H           8    1.0000     8     6      [5s1p|3s1p]                                        
  ----------------------------------------------------------------------
  total:     16   50.0000   243   156
  ----------------------------------------------------------------------
  Spherical harmonic basis used.

  Threshold for neglecting AO integrals:  1.00D-12


  Cartesian Coordinates (a.u.)
  ----------------------------

  Total number of coordinates:   48
  N       :     1  x   0.0000000000    2  y   0.0000000000    3  z   0.0000000000
  H       :     4  x  -1.8286426177    5  y  -0.3014585601    6  z   0.5827934267
  H       :     7  x   0.8473399664    8  y  -1.7553665975    9  z  -0.0158000001
  H       :    10  x   0.7044955686   11  y   1.1491481258   12  z   1.3237663786
  O       :    13  x  -7.0006642848   14  y  -0.6005663009   15  z   0.1299111122
  O       :    16  x  -1.0660341914   17  y  -6.0804678175   18  z  -2.5633397892
  O       :    19  x   3.6849149211   20  y   3.7439027221   21  z   3.6988554308
  O       :    22  x  -0.5195140577   23  y   3.1737704605   24  z  -4.3404930392
  H       :    25  x  -7.8284947187   26  y   0.5727287453   27  z   1.1696554337
  H       :    28  x  -6.3396739911   29  y   0.2457626620   30  z  -1.3802748590
  H       :    31  x   0.2265517062   32  y  -6.9831238470   33  z  -1.4742755056
  H       :    34  x  -2.6148197083   35  y  -6.3181840256   36  z  -1.7297249037
  H       :    37  x   2.3773151495   38  y   4.8755217484   39  z   4.2739104289
  H       :    40  x   5.3423275649   41  y   4.6175098816   42  z   3.7677983090
  H       :    43  x   0.8188466759   44  y   3.0066430820   45  z  -5.7870292550
  H       :    46  x  -0.1244724804   47  y   1.8517086148   48  z  -3.0234843212


   Interatomic separations (in Angstrom):
   --------------------------------------

            N           H           H           H           O           O     
            ------      ------      ------      ------      ------      ------
 N     :    0.000000
 H     :    1.028084    0.000000
 H     :    1.031495    1.642415    0.000000
 H     :    0.999741    1.593701    1.694280    0.000000
 O     :    3.718834    2.751944    4.198412    4.228662    0.000000
 O     :    3.537154    3.505242    2.842694    4.443567    4.505867    0.000000
 O     :    3.399812    3.976727    3.819342    2.439771    6.389546    6.658069
 O     :    2.858664    3.263346    3.544605    3.248352    4.620400    4.994992
 H     :    4.199595    3.223503    4.794691    4.526490    0.938151    5.394783
 H     :    3.435865    2.619427    4.013365    4.021338    0.980599    4.403063
 H     :    3.778667    3.856101    2.890779    4.558035    5.172504    1.013982
 H     :    3.732432    3.436263    3.163727    4.616376    3.938196    0.939220
 H     :    3.654337    4.034106    4.256872    2.666315    6.150914    7.072753
 H     :    4.235341    4.900630    4.586904    3.326345    7.347983    7.400863
 H     :    3.478112    4.048374    3.959456    3.889607    5.529000    5.198894
 H     :    1.877332    2.398613    2.537932    2.371243    4.208192    4.234003

            O           O           H           H           H           H     
            ------      ------      ------      ------      ------      ------
 O     :    0.000000
 O     :    4.810375    0.000000
 H     :    6.459687    5.035486    0.000000
 H     :    6.228282    3.786868    1.572078    0.000000
 H     :    6.562452    5.598643    6.009484    5.168113    0.000000
 H     :    6.907774    5.326153    4.823168    3.998075    1.550118    0.000000
 H     :    0.964362    4.892973    6.086895    6.019385    7.065951    7.222137
 H     :    0.992113    5.349402    7.419456    7.140638    7.260057    7.725414
 H     :    5.258326    1.046595    6.012532    4.682138    5.766480    5.679829
 H     :    4.209593    1.009386    4.690617    3.506490    4.750159    4.571270

            H           H           H           H     
            ------      ------      ------      ------
 H     :    0.000000
 H     :    1.597556    0.000000
 H     :    5.477535    5.658770    0.000000
 H     :    4.384653    4.840079    1.661726    0.000000


  Max    interatomic separation is    7.7254 Angstrom (   14.5989 Bohr)
  between atoms   14 and   12, "H     " and "H     ".

  Min HX interatomic separation is    0.9382 Angstrom (    1.7728 Bohr)

  Min YX interatomic separation is    2.8587 Angstrom (    5.4021 Bohr)


  Bond distances (Angstrom):
  --------------------------

                  atom 1     atom 2       distance
                  ------     ------       --------
  bond distance:  H          N            1.028084
  bond distance:  H          N            1.031495
  bond distance:  H          N            0.999741
  bond distance:  H          O            0.938151
  bond distance:  H          O            0.980599
  bond distance:  H          O            1.013982
  bond distance:  H          O            0.939220
  bond distance:  H          O            0.964362
  bond distance:  H          O            0.992113
  bond distance:  H          O            1.046595
  bond distance:  H          O            1.009386


  Bond angles (degrees):
  ----------------------

                  atom 1     atom 2     atom 3         angle
                  ------     ------     ------         -----
  bond angle:     H          N          H            105.775
  bond angle:     H          N          H            103.602
  bond angle:     H          N          H            113.038
  bond angle:     H          O          H            110.015
  bond angle:     H          O          H            104.987
  bond angle:     H          O          H            109.473
  bond angle:     H          O          H            107.835




 Principal moments of inertia (u*A**2) and principal axes
 --------------------------------------------------------

   IA     342.139064          0.637507    0.678772    0.364490
   IB     619.135919          0.739912   -0.671258   -0.044082
   IC     665.332746         -0.214746   -0.297793    0.930163


 Rotational constants
 --------------------

               A                   B                   C

           1477.1158            816.2650            759.5884 MHz
            0.049271            0.027228            0.025337 cm-1


@  Nuclear repulsion energy :  171.032702297015 Hartree


                     .---------------------------------------.
                     | Starting in Integral Section (HERMIT) |
                     `---------------------------------------'



 ***************************************************************************************
 ****************** Output from **INTEGRALS input processing (HERMIT) ******************
 ***************************************************************************************



    *************************************************************************
    ****************** Output from HERMIT input processing ******************
    *************************************************************************


 Default print level:        1

 * Nuclear model: Point charge

 Calculation of one- and two-electron Hamiltonian integrals.

 The following one-electron property integrals are calculated as requested:
          - overlap integrals
          - dipole length integrals

 Center of mass  (bohr):     -0.975436261198      0.053368070875     -0.578160069780
 Operator center (bohr):      0.000000000000      0.000000000000      0.000000000000
 Gauge origin    (bohr):      0.000000000000      0.000000000000      0.000000000000
 Dipole origin   (bohr):      0.000000000000      0.000000000000      0.000000000000
 
  *********************************** 
  QMMM electrostatic potential: 
  Multipole order                                    0
  Isotropic polarization  
  *********************************** 
 
  ---------------- 
  QMMM information 
  ---------------- 
 
  MM coordinates in au 
  -------------------- 
     1      9.458654      6.952529      9.674423
     2     11.163253      7.652905      9.669475
     3      8.572465      8.461224     10.251182
     4    -11.060954     -8.242449      1.886922
     5     -9.166092     -8.340973      2.097339
     6    -11.707810     -7.033706      3.134135
     7     -6.329774     -2.836649      8.279255
     8     -5.090166     -2.913814      9.724461
     9     -7.648394     -4.143771      8.491998
    10     -8.274234      7.938396      8.269836
    11     -7.217006      9.526213      8.357113
    12     -9.084246      8.217635      6.636147
    13      1.315391     -3.686674     -6.524374
    14      0.438770     -2.022776     -6.478558
    15      0.470154     -4.720564     -5.245555
    16      9.040805      4.923183     -8.852386
    17      7.591604      5.740124     -8.081200
    18      8.954471      5.457512    -10.743488
    19      1.379152     -6.699941    -11.223539
    20      0.848173     -4.958333    -10.809105
    21      0.458603     -7.289974    -12.735541
    22      6.164109     -4.226854      9.409761
    23      7.105544     -4.380871     11.091914
    24      4.741799     -5.303662     10.000678
    25     -9.650278      4.738261     -7.345309
    26    -11.225272      5.655344     -7.890344
    27     -9.814094      3.391909     -8.586868
    28     -6.807965     -1.904993     -7.815246
    29     -6.432448     -0.619256     -6.540535
    30     -8.441904     -2.525681     -7.220655
    31     -3.237154      5.930146      9.425818
    32     -2.933006      7.292602     10.656725
    33     -5.163490      5.999862      9.149924
    34     11.158315      1.357201     -4.145721
    35     11.937674      2.660120     -4.929436
    36      9.649361      1.976591     -3.325362
    37     10.768602      9.238848     -4.904204
    38     10.146266     10.864540     -4.240419
    39     11.637032      9.688414     -6.550053
    40     11.145378     10.851287      4.488719
    41     10.614599     12.342370      3.487888
    42      9.925291      9.536117      4.054746
    43     -0.478507      1.432753     10.284653
    44      0.851085      1.159967      8.995102
    45     -1.452268      2.881409      9.625057
    46     -6.232048    -10.859256      8.485369
    47     -4.465897    -10.209038      8.916618
    48     -7.484521     -9.582478      9.270524
    49     -8.501685      6.338005     -0.990867
    50     -9.522268      7.205074     -2.286663
    51     -7.355647      7.533197     -0.309280
    52    -11.192561     -5.585892      6.069812
    53    -11.871870     -4.049770      6.757417
    54    -12.046516     -6.950284      6.968701
    55     -1.367655     -8.644505      7.961038
    56     -0.158437     -9.828290      7.032952
    57     -1.218964     -7.187906      6.762941
    58     10.872804    -10.393496      9.249387
    59     11.099180    -11.209304      7.589682
    60     12.261596    -11.002040     10.334631
    61      2.749398      8.240474     -8.984554
    62      3.870786      9.057830    -10.302507
    63      2.546466      6.306906     -9.349513
    64      8.533431     -5.608926     -9.574503
    65      9.947955     -4.819308     -8.617161
    66      7.962083     -6.931837     -8.420223
    67      6.329760     11.705933      2.281168
    68      5.765690     12.401596      0.721652
    69      5.975650      9.885014      1.930824
    70      3.283590     -0.198531      7.415232
    71      4.624005     -1.165651      8.344163
    72      3.850209      1.181336      6.229201
    73     -1.718279     10.597223    -10.599419
    74     -3.123404      9.584268     -9.939273
    75     -0.092124      9.653171    -10.104396
    76     -5.586210      2.223127     -3.869469
    77     -6.687472      3.603640     -3.552277
    78     -3.827557      2.783729     -4.160196
    79      7.248789     -5.451083     -1.633152
    80      7.326525     -4.887263      0.129665
    81      7.072523     -4.093094     -2.968395
    82      6.187464    -11.737609     10.625029
    83      5.485729    -11.044164     12.255414
    84      8.100740    -11.141245     10.439684
    85      2.093083      2.877968     -8.785569
    86      1.141094      2.623847    -10.366406
    87      3.751649      1.917386     -9.064438
    88     -3.851865     -7.434500     -8.333934
    89     -3.114407     -5.835333     -8.875832
    90     -2.590410     -8.741554     -8.686359
    91      5.700943      6.953920     -4.401788
    92      4.869915      7.745107     -5.896769
    93      7.309054      7.832699     -4.139485
    94      6.206101     -1.300527     -4.715360
    95      4.534241     -1.968836     -5.063754
    96      5.959147      0.138387     -3.318756
    97      4.064801     -9.904259     -8.070688
    98      2.947497     -9.096747     -9.351045
    99      2.769877    -10.836298     -7.025378
   100     -4.360154     -4.240731      3.368429
   101     -4.893518     -3.817315      5.280035
   102     -4.934589     -2.720499      2.469107
   103    -10.141527      1.497755    -11.325663
   104     -9.232091      2.223473    -12.691057
   105     -9.072229      0.165086    -10.563788
   106      3.161986     -8.912825     -1.028929
   107      4.526183     -7.698376     -1.407566
   108      2.958066     -9.834615     -2.620100
   109     -0.282990      7.312713      4.624749
   110     -1.770881      6.841041      5.916209
   111      0.547066      8.770119      5.439894
   112     -3.403047     -2.674157    -11.512508
   113     -2.451202     -1.113126    -12.079834
   114     -4.506647     -2.224073    -10.025583
   115     -5.650026      8.309526     -8.040422
   116     -7.019877      6.905811     -7.698931
   117     -4.485994      8.147601     -6.510951
   118     -8.780851     -8.443926     -6.773869
   119     -6.985764     -8.262463     -6.397148
   120     -9.640440     -8.913339     -5.211164
   121      0.306757    -10.957331     -5.170512
   122     -0.630106    -12.402977     -4.480917
   123     -0.892537     -9.503293     -5.285982
   124    -10.134599     11.260829    -10.181345
   125     -9.509279     12.640849     -9.048600
   126     -8.547942     10.396353    -10.557745
   127     -2.307133      7.959921     -3.662561
   128     -1.541257      6.156422     -3.816022
   129     -2.794850      8.218706     -1.869138
   130      2.841283     11.469617      6.384115
   131      4.005305     11.938086      7.902708
   132      4.149130     11.662656      5.030047
   133     10.829242     -9.203713     -2.942714
   134     11.048161     -9.316890     -1.122014
   135      9.426944     -7.901943     -3.014867
   136     -4.266996      9.451195      1.162030
   137     -3.099761      8.977526      2.528835
   138     -4.705479     11.145285      1.757137
   139      6.768498      0.373967    -10.307999
   140      6.917751     -1.167781     -9.274623
   141      7.996903      1.624550     -9.570423
   142    -10.576990      3.277099      2.875143
   143    -10.064436      3.892989      1.148706
   144    -11.945409      2.008603      2.676107
   145      6.104889      2.847883     -1.715027
   146      5.409951      4.210518     -2.874769
   147      5.265962      3.120403     -0.013241
   148     -8.627592     -6.760724     11.514940
   149     -7.191835     -6.573828     12.740813
   150    -10.033531     -7.188482     12.653878
   151     -8.982530     -5.209370     -1.796973
   152     -8.233820     -3.706509     -1.237534
   153     -9.940415     -5.694225     -0.265781
   154      9.806726     -0.437018      8.585479
   155     11.305957      0.109392      9.464928
   156      8.482075     -0.296458      9.854102
   157      8.224519      6.137256      4.187741
   158      9.871769      5.406964      3.688993
   159      8.256941      6.314958      6.102219
   160      0.430943     -4.425089      5.351360
   161      1.215823     -2.894155      6.093908
   162     -0.972723     -3.852012      4.222688
   163     -6.079428     -9.144385      2.686803
   164     -6.318938     -9.479902      4.521597
   165     -5.406771     -7.387958      2.775036
   166     -7.688993      2.428421      7.172000
   167     -8.794279      2.945350      5.813688
   168     -7.203160      0.775759      6.604840
   169      6.433584     -5.308360      3.929512
   170      4.682139     -5.998350      3.714744
   171      6.658348     -5.501597      5.743343
   172      8.445235      0.145114      3.677150
   173      9.086525      0.073168      5.399881
   174      7.767020     -1.550766      3.491898
   175    -11.388794     -3.073687     -6.652454
   176    -11.414477     -3.960443     -4.942839
   177    -11.887349     -1.431700     -5.960508
 
  MM charges 
  ---------- 
     1     -0.674440
     2      0.337220
     3      0.337220
     4     -0.674440
     5      0.337220
     6      0.337220
     7     -0.674440
     8      0.337220
     9      0.337220
    10     -0.674440
    11      0.337220
    12      0.337220
    13     -0.674440
    14      0.337220
    15      0.337220
    16     -0.674440
    17      0.337220
    18      0.337220
    19     -0.674440
    20      0.337220
    21      0.337220
    22     -0.674440
    23      0.337220
    24      0.337220
    25     -0.674440
    26      0.337220
    27      0.337220
    28     -0.674440
    29      0.337220
    30      0.337220
    31     -0.674440
    32      0.337220
    33      0.337220
    34     -0.674440
    35      0.337220
    36      0.337220
    37     -0.674440
    38      0.337220
    39      0.337220
    40     -0.674440
    41      0.337220
    42      0.337220
    43     -0.674440
    44      0.337220
    45      0.337220
    46     -0.674440
    47      0.337220
    48      0.337220
    49     -0.674440
    50      0.337220
    51      0.337220
    52     -0.674440
    53      0.337220
    54      0.337220
    55     -0.674440
    56      0.337220
    57      0.337220
    58     -0.674440
    59      0.337220
    60      0.337220
    61     -0.674440
    62      0.337220
    63      0.337220
    64     -0.674440
    65      0.337220
    66      0.337220
    67     -0.674440
    68      0.337220
    69      0.337220
    70     -0.674440
    71      0.337220
    72      0.337220
    73     -0.674440
    74      0.337220
    75      0.337220
    76     -0.674440
    77      0.337220
    78      0.337220
    79     -0.674440
    80      0.337220
    81      0.337220
    82     -0.674440
    83      0.337220
    84      0.337220
    85     -0.674440
    86      0.337220
    87      0.337220
    88     -0.674440
    89      0.337220
    90      0.337220
    91     -0.674440
    92      0.337220
    93      0.337220
    94     -0.674440
    95      0.337220
    96      0.337220
    97     -0.674440
    98      0.337220
    99      0.337220
   100     -0.674440
   101      0.337220
   102      0.337220
   103     -0.674440
   104      0.337220
   105      0.337220
   106     -0.674440
   107      0.337220
   108      0.337220
   109     -0.674440
   110      0.337220
   111      0.337220
   112     -0.674440
   113      0.337220
   114      0.337220
   115     -0.674440
   116      0.337220
   117      0.337220
   118     -0.674440
   119      0.337220
   120      0.337220
   121     -0.674440
   122      0.337220
   123      0.337220
   124     -0.674440
   125      0.337220
   126      0.337220
   127     -0.674440
   128      0.337220
   129      0.337220
   130     -0.674440
   131      0.337220
   132      0.337220
   133     -0.674440
   134      0.337220
   135      0.337220
   136     -0.674440
   137      0.337220
   138      0.337220
   139     -0.674440
   140      0.337220
   141      0.337220
   142     -0.674440
   143      0.337220
   144      0.337220
   145     -0.674440
   146      0.337220
   147      0.337220
   148     -0.674440
   149      0.337220
   150      0.337220
   151     -0.674440
   152      0.337220
   153      0.337220
   154     -0.674440
   155      0.337220
   156      0.337220
   157     -0.674440
   158      0.337220
   159      0.337220
   160     -0.674440
   161      0.337220
   162      0.337220
   163     -0.674440
   164      0.337220
   165      0.337220
   166     -0.674440
   167      0.337220
   168      0.337220
   169     -0.674440
   170      0.337220
   171      0.337220
   172     -0.674440
   173      0.337220
   174      0.337220
   175     -0.674440
   176      0.337220
   177      0.337220
 
  MM isotropic polarizabilities in au 
  ----------------------------------- 
     1      5.739350
     2      2.308390
     3      2.308390
     4      5.739350
     5      2.308390
     6      2.308390
     7      5.739350
     8      2.308390
     9      2.308390
    10      5.739350
    11      2.308390
    12      2.308390
    13      5.739350
    14      2.308390
    15      2.308390
    16      5.739350
    17      2.308390
    18      2.308390
    19      5.739350
    20      2.308390
    21      2.308390
    22      5.739350
    23      2.308390
    24      2.308390
    25      5.739350
    26      2.308390
    27      2.308390
    28      5.739350
    29      2.308390
    30      2.308390
    31      5.739350
    32      2.308390
    33      2.308390
    34      5.739350
    35      2.308390
    36      2.308390
    37      5.739350
    38      2.308390
    39      2.308390
    40      5.739350
    41      2.308390
    42      2.308390
    43      5.739350
    44      2.308390
    45      2.308390
    46      5.739350
    47      2.308390
    48      2.308390
    49      5.739350
    50      2.308390
    51      2.308390
    52      5.739350
    53      2.308390
    54      2.308390
    55      5.739350
    56      2.308390
    57      2.308390
    58      5.739350
    59      2.308390
    60      2.308390
    61      5.739350
    62      2.308390
    63      2.308390
    64      5.739350
    65      2.308390
    66      2.308390
    67      5.739350
    68      2.308390
    69      2.308390
    70      5.739350
    71      2.308390
    72      2.308390
    73      5.739350
    74      2.308390
    75      2.308390
    76      5.739350
    77      2.308390
    78      2.308390
    79      5.739350
    80      2.308390
    81      2.308390
    82      5.739350
    83      2.308390
    84      2.308390
    85      5.739350
    86      2.308390
    87      2.308390
    88      5.739350
    89      2.308390
    90      2.308390
    91      5.739350
    92      2.308390
    93      2.308390
    94      5.739350
    95      2.308390
    96      2.308390
    97      5.739350
    98      2.308390
    99      2.308390
   100      5.739350
   101      2.308390
   102      2.308390
   103      5.739350
   104      2.308390
   105      2.308390
   106      5.739350
   107      2.308390
   108      2.308390
   109      5.739350
   110      2.308390
   111      2.308390
   112      5.739350
   113      2.308390
   114      2.308390
   115      5.739350
   116      2.308390
   117      2.308390
   118      5.739350
   119      2.308390
   120      2.308390
   121      5.739350
   122      2.308390
   123      2.308390
   124      5.739350
   125      2.308390
   126      2.308390
   127      5.739350
   128      2.308390
   129      2.308390
   130      5.739350
   131      2.308390
   132      2.308390
   133      5.739350
   134      2.308390
   135      2.308390
   136      5.739350
   137      2.308390
   138      2.308390
   139      5.739350
   140      2.308390
   141      2.308390
   142      5.739350
   143      2.308390
   144      2.308390
   145      5.739350
   146      2.308390
   147      2.308390
   148      5.739350
   149      2.308390
   150      2.308390
   151      5.739350
   152      2.308390
   153      2.308390
   154      5.739350
   155      2.308390
   156      2.308390
   157      5.739350
   158      2.308390
   159      2.308390
   160      5.739350
   161      2.308390
   162      2.308390
   163      5.739350
   164      2.308390
   165      2.308390
   166      5.739350
   167      2.308390
   168      2.308390
   169      5.739350
   170      2.308390
   171      2.308390
   172      5.739350
   173      2.308390
   174      2.308390
   175      5.739350
   176      2.308390
   177      2.308390


     ************************************************************************
     ************************** Output from HERINT **************************
     ************************************************************************



                      Nuclear contribution to dipole moments
                      --------------------------------------

                 au               Debye          C m (/(10**-30)

      x    -47.62960779      -121.06237973      -403.82063157
      y      2.85400234         7.25414992        24.19723954
      z    -26.89319515       -68.35567948      -228.01000377


  Time used in HUCKEL     is       0.40 seconds
  Time used in OVERLAP    is       0.19 seconds
  Time used in POPOVLP    is       0.19 seconds
  Time used in DIPLEN     is       1.48 seconds
  Time used in QUADRUP    is       0.40 seconds
  Time used in KINENE     is       0.27 seconds

 Threshold for neglecting two-electron integrals:  1.00D-12
 HERMIT - Number of two-electron integrals written:    23270911 ( 31.0% )
 HERMIT - Megabytes written:                            266.463

  Time used in TWOINT     is      12.56 seconds
  Total CPU  time used in HERMIT:  15.54 seconds
  Total wall time used in HERMIT:   5.10 seconds


                        .----------------------------------.
                        | End of Integral Section (HERMIT) |
                        `----------------------------------'



                   .--------------------------------------------.
                   | Starting in Wave Function Section (SIRIUS) |
                   `--------------------------------------------'

NCCEXCI for singlet:   15
 CCSD_INPUT: core-val requested
 Requested number of core orbs per sym
                     1
 Indices of requested core orbs
                     1

 *** Output from Huckel module :

     Using EWMO model:          T
     Using EHT  model:          F
     Number of Huckel orbitals each symmetry:   36

 EWMO - Energy Weighted Maximum Overlap - is a Huckel type method,
        which normally is better than Extended Huckel Theory.
 Reference: Linderberg and Ohrn, Propagators in Quantum Chemistry (Wiley, 1973)

 Huckel EWMO eigenvalues for symmetry :  1
          -20.684952     -20.684709     -20.684656     -20.683988     -15.673875
           -1.664378      -1.603800      -1.599440      -1.587045      -1.475581
           -0.805206      -0.798278      -0.790174      -0.777451      -0.733249
           -0.713123      -0.691766      -0.687868      -0.679239      -0.665753
           -0.616867      -0.614234      -0.607635      -0.603828      -0.519153
           -0.253070      -0.241121      -0.240519      -0.233979      -0.189139
           -0.173463      -0.171979      -0.166779      -0.163918      -0.152978
           -0.142606

 **********************************************************************
 *SIRIUS* a direct, restricted step, second order MCSCF program       *
 **********************************************************************

 
     Date and time (Linux)  : Mon Dec 24 23:37:50 2018
     Host name              : n-62-29-31                              

 Title lines from ".mol" input file:
                                                                             
                                                                             

 Print level on unit LUPRI =   2 is   0
 Print level on unit LUW4  =   2 is  11

@    (Integral direct) CC calculation.

@    This is a combination run starting with
@              a restricted, closed shell Hartree-Fock calculation


 Initial molecular orbitals are obtained according to
 ".MOSTART EWMO  " input option

@    QM part is embedded in an environment :

@         Model: QMMM

     Wave function specification
     ============================

     For the specification of the Coupled Cluster: see later.

@    Wave function type        --- CC ---
@    Number of closed shell electrons          50
@    Number of electrons in active shells       0
@    Total charge of the molecule               0

@    Spin multiplicity and 2 M_S                1         0
@    Total number of symmetries                 1 (point group: C1 )
@    Reference state symmetry                   1 (irrep name : A  )

     Orbital specifications
     ======================
@    Abelian symmetry species          All |    1
@                                          |  A  
                                       --- |  ---
@    Occupied SCF orbitals              25 |   25
@    Secondary orbitals                131 |  131
@    Total number of orbitals          156 |  156
@    Number of basis functions         156 |  156

     Optimization information
     ========================
@    Number of configurations                 1
@    Number of orbital rotations           3275
     ------------------------------------------
@    Total number of variables             3276

     Maximum number of Fock   iterations      0
     Maximum number of DIIS   iterations     60
     Maximum number of QC-SCF iterations     60
     Threshold for SCF convergence     1.00D-07


 Changes of defaults for CC:
 ---------------------------


 -Implicit frozen core calculation
 -Excitation energies calculated
 -One-photon absorption strengths will be calculated
 -Oscillator strengths calculated
  
* Read MO coefficients from SIRIUS.RST with label "NEWORB  " and header info: 24Dec18  REORTHO 


 ***********************************************
 ***** DIIS acceleration of SCF iterations *****
 ***********************************************

 C1-DIIS algorithm; max error vectors =    8
 -----------------------------------------------------------------------------

 *** DIIS iteration number    1
 RDSUPM called. NFMAT, ISYMDM(1:NFMAT)                     1
                     1

Calculating AOSUPINT
     (Precalculated two-electron integrals are transformed to P-supermatrix elements.
      Threshold for discarding integrals :  1.00D-12 )
  CPU  time used in FORMSUP    is   5.98 seconds
  WALL time used in FORMSUP    is   6.23 seconds

 ITDIIS, energy, error norm, change in energy, scr.thr., difden:
@ DIIS iter.   1    -359.868474734        3.78781D+00   -3.60D+02  -20    F

 (DIIS_RED) Control Parameters C2DIIS =         F NEVC =    1


 (DIIS_RED) B matrix:

               Column   1
       1      14.34747718
    ==== End of matrix output ====

 DIIS C vector; C2DIIS = F, LAMBDA = -1.43D+01
    1.000000
* Read MO coefficients from SIRIUS.RST with label "NEWORB  " and header info: 24Dec18  DIIS   1
      Virial theorem: -V/T =      1.998714
@      MULPOP N      -0.38; H       0.16; H       0.16; H       0.16; O      -0.65; O      -0.65; O      -0.62; O      -0.80; H       0.33; H       0.33; 
@             H       0.33; H       0.34; H       0.33; H       0.31; H       0.32; H       0.31; 
   1  Level shift: doubly occupied orbital energies shifted by -2.00D-01

 DIIS Fock eigenvalues in symmetry 1
      -20.76155      -20.73383      -20.72102      -20.58454      -16.00317
       -1.59002       -1.55804       -1.55031       -1.47337       -1.45634
       -0.98047       -0.96777       -0.94983       -0.94470       -0.92952
       -0.87905       -0.82653       -0.79570       -0.79551       -0.78783
       -0.77113       -0.76516       -0.74679       -0.73113       -0.68768
        0.08361        0.12826        0.14419        0.17686        0.19584
        0.20677        0.24734        0.25645        0.27230        0.28651
        0.34195        0.41167        0.43574        0.49747        0.51600
        0.54075        0.54720        0.55493        0.56615        0.57147
        0.59829        0.60474        0.79983        0.84587        0.88114
        0.92117        0.93549        0.95182        0.96934        0.98870
        1.02130        1.03357        1.05813        1.06749        1.09909
        1.11159        1.12093        1.20308        1.20799        1.26302
        1.28559        1.30011        1.34981        1.42946        1.44372
        1.46290        1.46893        1.48478        1.50947        1.52580
        1.53091        1.57771        1.65794        1.66895        1.67900
        1.68829        1.70178        1.74500        1.79963        1.80539
        1.83031        1.85841        1.91647        1.92241        2.04876
        2.10411        2.18389        2.20780        2.20855        2.21838
        2.29279        2.29813        2.32853        2.35367        2.46972
        2.56256        2.56812        2.57083        2.59453        2.62291
        2.67988        2.70227        2.73655        2.74844        2.76078
        2.78150        2.83060        2.87184        3.05106        3.26538
        3.33348        3.38262        3.39618        3.42083        3.43464
        3.49313        3.49405        3.51070        3.53175        3.61070
        3.62233        3.63196        3.64732        3.96239        3.98475
        3.99059        4.02402        4.15687        4.17337        4.19051
        4.20399        4.37693        4.94931        5.06873        5.29528
        5.31558        5.34414        5.39383        5.65944        5.70255
        5.70819        5.73451        6.10961        6.11648        6.12203
        6.16242       36.76325       51.53577       51.54503       51.55842
       51.68337
 Time used in FCKEIG, thr_jaco:   4.48D-01  4.50D-02  1.65D-04
 CPU and wall times used in FCKEIG, THR_FCKEIG:   4.49D-01  4.50D-02  3.79D-02
 -----------------------------------------------------------------------------

 *** DIIS iteration number    2
 RDSUPM called. NFMAT, ISYMDM(1:NFMAT)                     1
                     1

 ITDIIS, energy, error norm, change in energy, scr.thr., difden:
@ DIIS iter.   2    -360.661017654        9.19656D-01   -7.93D-01  -20    F

 (DIIS_RED) Control Parameters C2DIIS =         F NEVC =    2


 (DIIS_RED) B matrix:

               Column   1     Column   2
       1      14.34747718
       2       1.01180116     0.84576784
    ==== End of matrix output ====

 DIIS C vector; C2DIIS = F, LAMBDA = -8.44D-01
   -0.012607    1.012607
* Read MO coefficients from SIRIUS.RST with label "NEWORB  " and header info: 24Dec18  DIIS   2
      Virial theorem: -V/T =      2.003440
@      MULPOP N      -0.65; H       0.21; H       0.23; H       0.23; O      -0.60; O      -0.58; O      -0.58; O      -0.70; H       0.27; H       0.34; 
@             H       0.32; H       0.27; H       0.29; H       0.31; H       0.31; H       0.31; 
   2  Level shift: doubly occupied orbital energies shifted by -5.00D-02

 DIIS Fock eigenvalues in symmetry 1
      -20.68350      -20.63217      -20.62297      -20.61252      -15.49856
       -1.41845       -1.39312       -1.38462       -1.38407       -1.17207
       -0.79470       -0.76550       -0.74784       -0.74754       -0.68274
       -0.66206       -0.66035       -0.65564       -0.63675       -0.63240
       -0.59864       -0.58979       -0.58433       -0.56677       -0.47898
        0.12795        0.16115        0.17675        0.19781        0.22917
        0.24197        0.26553        0.27850        0.30711        0.32673
        0.36218        0.47474        0.49909        0.53576        0.55483
        0.57578        0.58263        0.58955        0.60430        0.60877
        0.64792        0.66306        0.90363        0.93391        0.94072
        0.94933        0.95850        0.96755        0.96928        0.98695
        1.06390        1.06658        1.08153        1.09516        1.10973
        1.11948        1.15435        1.25425        1.31193        1.31737
        1.32923        1.36360        1.39227        1.48270        1.50511
        1.50662        1.52300        1.53469        1.54031        1.57730
        1.58051        1.58802        1.71841        1.72676        1.72939
        1.74169        1.78106        1.82379        1.86645        1.87076
        1.90341        1.92297        1.97859        2.00403        2.16498
        2.21202        2.22836        2.23858        2.25987        2.27719
        2.36276        2.36655        2.40223        2.44369        2.54826
        2.62721        2.63068        2.63884        2.65236        2.69061
        2.76085        2.76307        2.80699        2.81278        2.82014
        2.89109        2.98593        3.01679        3.19288        3.37512
        3.41999        3.42065        3.44264        3.45294        3.46453
        3.52475        3.53072        3.53277        3.54854        3.58623
        3.65182        3.65806        3.68115        3.97780        3.99267
        4.02167        4.02552        4.14211        4.19619        4.20709
        4.23422        4.57468        5.17349        5.26684        5.28672
        5.31470        5.33609        5.35696        5.59550        5.67691
        5.71013        5.74282        6.01361        6.14359        6.14957
        6.20191       37.11175       51.43936       51.50846       51.51778
       51.51964
 Time used in FCKEIG, thr_jaco:   2.96D-01  3.00D-02  4.02D-05
 CPU and wall times used in FCKEIG, THR_FCKEIG:   2.97D-01  3.00D-02  9.20D-03
 -----------------------------------------------------------------------------

 *** DIIS iteration number    3
 RDSUPM called. NFMAT, ISYMDM(1:NFMAT)                     1
                     1

 ITDIIS, energy, error norm, change in energy, scr.thr., difden:
@ DIIS iter.   3    -360.721014190        3.34057D-01   -6.00D-02  -20    F

 (DIIS_RED) Control Parameters C2DIIS =         F NEVC =    3


 (DIIS_RED) B matrix:

               Column   1     Column   2     Column   3
       1      14.34747718
       2       1.01180116     0.84576784
       3       0.58583723     0.06759498     0.11159394
    ==== End of matrix output ====

 DIIS C vector; C2DIIS = F, LAMBDA = -9.01D-02
   -0.038360    0.075442    0.962917
* Read MO coefficients from SIRIUS.RST with label "NEWORB  " and header info: 24Dec18  DIIS   3
      Virial theorem: -V/T =      2.001917
@      MULPOP N      -0.57; H       0.17; H       0.21; H       0.21; O      -0.64; O      -0.62; O      -0.64; O      -0.79; H       0.28; H       0.37; 
@             H       0.34; H       0.29; H       0.31; H       0.34; H       0.37; H       0.35; 
   3  Level shift: doubly occupied orbital energies shifted by -2.50D-02

 DIIS Fock eigenvalues in symmetry 1
      -20.59028      -20.57108      -20.55966      -20.52987      -15.61016
       -1.38578       -1.35799       -1.34877       -1.31725       -1.18439
       -0.76002       -0.72943       -0.71068       -0.69144       -0.68178
       -0.65895       -0.62310       -0.59752       -0.59506       -0.59124
       -0.55706       -0.53982       -0.52244       -0.51433       -0.47981
        0.13056        0.16401        0.17937        0.20356        0.23012
        0.24313        0.26864        0.28156        0.30841        0.32618
        0.36717        0.47278        0.49761        0.54679        0.56286
        0.58326        0.59025        0.59651        0.61163        0.61628
        0.65394        0.66340        0.89682        0.93009        0.95060
        0.96172        0.97184        0.97661        0.97948        1.00045
        1.06932        1.07461        1.09029        1.10054        1.12478
        1.13284        1.16005        1.25644        1.30920        1.32335
        1.33558        1.36253        1.39085        1.49477        1.51451
        1.51686        1.53270        1.54385        1.55152        1.58566
        1.58988        1.60592        1.72831        1.73502        1.73804
        1.75035        1.78247        1.82361        1.87299        1.87744
        1.90611        1.93041        1.98255        2.00644        2.15276
        2.20940        2.23656        2.24804        2.26987        2.28763
        2.37370        2.37738        2.41354        2.45181        2.55382
        2.63583        2.64006        2.64725        2.66149        2.69521
        2.76734        2.76980        2.81296        2.82016        2.82919
        2.87555        2.95921        2.99349        3.16978        3.40515
        3.42686        3.43453        3.43977        3.46321        3.47935
        3.53935        3.54244        3.54671        3.56086        3.63473
        3.66663        3.67505        3.69889        4.00847        4.02501
        4.03826        4.04124        4.19246        4.21221        4.22610
        4.25298        4.51284        5.11732        5.23461        5.32637
        5.34795        5.35202        5.37879        5.66995        5.69261
        5.73105        5.76263        6.08643        6.16458        6.17020
        6.21815       36.97935       51.53437       51.53562       51.54772
       51.56746
 Time used in FCKEIG, thr_jaco:   2.80D-01  2.80D-02  1.46D-05
 CPU and wall times used in FCKEIG, THR_FCKEIG:   2.81D-01  2.80D-02  3.34D-03
 -----------------------------------------------------------------------------

 *** DIIS iteration number    4
 RDSUPM called. NFMAT, ISYMDM(1:NFMAT)                     1
                     1

 ITDIIS, energy, error norm, change in energy, scr.thr., difden:
@ DIIS iter.   4    -360.728878029        1.19129D-01   -7.86D-03  -20    F

 (DIIS_RED) Control Parameters C2DIIS =         F NEVC =    4


 (DIIS_RED) B matrix:

               Column   1     Column   2     Column   3     Column   4
       1      14.34747718
       2       1.01180116     0.84576784
       3       0.58583723     0.06759498     0.11159394
       4       0.00266716     0.08026842    -0.00878049     0.01419183
    ==== End of matrix output ====

 DIIS C vector; C2DIIS = F, LAMBDA = -3.94D-03
    0.000149   -0.097127    0.166607    0.930371
* Read MO coefficients from SIRIUS.RST with label "NEWORB  " and header info: 24Dec18  DIIS   4
      Virial theorem: -V/T =      2.002487
@      MULPOP N      -0.64; H       0.19; H       0.23; H       0.23; O      -0.65; O      -0.63; O      -0.65; O      -0.78; H       0.29; H       0.38; 
@             H       0.35; H       0.30; H       0.32; H       0.35; H       0.38; H       0.35; 
   4  Level shift: doubly occupied orbital energies shifted by -1.25D-02

 DIIS Fock eigenvalues in symmetry 1
      -20.58157      -20.56620      -20.55865      -20.55443      -15.56023
       -1.37556       -1.34906       -1.33961       -1.31790       -1.15990
       -0.74952       -0.71992       -0.70073       -0.68696       -0.65940
       -0.63564       -0.61064       -0.58873       -0.58619       -0.58322
       -0.54279       -0.52699       -0.51204       -0.50937       -0.45450
        0.13123        0.16370        0.17879        0.20226        0.23066
        0.24413        0.26826        0.28188        0.30950        0.32851
        0.36821        0.47712        0.50202        0.54690        0.56284
        0.58261        0.58944        0.59518        0.61074        0.61517
        0.65268        0.66652        0.90306        0.93685        0.95117
        0.96314        0.97033        0.97888        0.97964        0.99654
        1.07218        1.07541        1.08958        1.10068        1.12238
        1.12988        1.16021        1.25704        1.31466        1.32345
        1.33520        1.36695        1.39497        1.49263        1.51262
        1.51529        1.53098        1.54193        1.54983        1.58439
        1.58874        1.60257        1.72732        1.73402        1.73677
        1.74877        1.78673        1.82662        1.87300        1.87680
        1.90838        1.92881        1.98470        2.01004        2.16101
        2.21662        2.23193        2.24580        2.26744        2.28599
        2.37183        2.37469        2.41094        2.45434        2.55654
        2.63401        2.63843        2.64593        2.66115        2.69822
        2.76740        2.77124        2.81179        2.81824        2.82857
        2.88491        2.97184        3.00486        3.18040        3.41054
        3.42272        3.43386        3.44019        3.46351        3.48240
        3.53542        3.54020        3.54598        3.55942        3.62262
        3.66597        3.67314        3.69714        4.00580        4.01436
        4.03610        4.03944        4.18039        4.21148        4.22386
        4.25118        4.53313        5.13672        5.25274        5.32122
        5.33002        5.34986        5.37456        5.64858        5.69119
        5.72782        5.75940        6.06556        6.16061        6.16595
        6.21596       37.01609       51.52372       51.52902       51.53317
       51.54068
 Time used in FCKEIG, thr_jaco:   2.70D-01  2.70D-02  5.20D-06
 CPU and wall times used in FCKEIG, THR_FCKEIG:   2.70D-01  2.70D-02  1.19D-03
 -----------------------------------------------------------------------------

 *** DIIS iteration number    5
 RDSUPM called. NFMAT, ISYMDM(1:NFMAT)                     1
                     1

 ITDIIS, energy, error norm, change in energy, scr.thr., difden:
@ DIIS iter.   5    -360.730011146        2.41710D-02   -1.13D-03  -20    F

 (DIIS_RED) Control Parameters C2DIIS =         F NEVC =    5


 (DIIS_RED) B matrix:

               Column   1     Column   2     Column   3     Column   4     Column   5
       1      14.34747718
       2       1.01180116     0.84576784
       3       0.58583723     0.06759498     0.11159394
       4       0.00266716     0.08026842    -0.00878049     0.01419183
       5       0.01357103     0.00612818     0.00506311     0.00065815     0.00058424
    ==== End of matrix output ====

 DIIS C vector; C2DIIS = F, LAMBDA = -3.13D-04
    0.001341    0.006855   -0.070925   -0.115456    1.178185
* Read MO coefficients from SIRIUS.RST with label "NEWORB  " and header info: 24Dec18  DIIS   5
      Virial theorem: -V/T =      2.002201
@      MULPOP N      -0.63; H       0.18; H       0.23; H       0.23; O      -0.66; O      -0.64; O      -0.66; O      -0.80; H       0.29; H       0.39; 
@             H       0.36; H       0.30; H       0.33; H       0.35; H       0.39; H       0.36; 

 DIIS Fock eigenvalues in symmetry 1
      -20.56837      -20.55277      -20.54128      -20.53894      -15.54444
       -1.36278       -1.33633       -1.32688       -1.30286       -1.14660
       -0.73735       -0.70777       -0.68847       -0.67309       -0.64652
       -0.62245       -0.59816       -0.57427       -0.57388       -0.57076
       -0.52903       -0.51337       -0.49623       -0.49580       -0.44056
        0.13126        0.16357        0.17857        0.20227        0.23070
        0.24415        0.26811        0.28191        0.30949        0.32859
        0.36853        0.47731        0.50219        0.54723        0.56280
        0.58264        0.58940        0.59488        0.61056        0.61501
        0.65238        0.66682        0.90394        0.93752        0.95160
        0.96413        0.97116        0.97934        0.98006        0.99842
        1.07276        1.07607        1.08954        1.10063        1.12281
        1.13020        1.16039        1.25735        1.31499        1.32364
        1.33530        1.36728        1.39541        1.49275        1.51212
        1.51531        1.53071        1.54149        1.55001        1.58402
        1.58849        1.60331        1.72723        1.73366        1.73644
        1.74836        1.78681        1.82671        1.87268        1.87638
        1.90843        1.92825        1.98480        2.01020        2.16138
        2.21695        2.23225        2.24523        2.26679        2.28547
        2.37141        2.37417        2.41050        2.45478        2.55706
        2.63341        2.63797        2.64545        2.66093        2.69812
        2.76670        2.77125        2.81107        2.81746        2.82809
        2.88545        2.97247        3.00546        3.18104        3.41280
        3.42398        3.43411        3.44056        3.46377        3.48400
        3.53711        3.54030        3.54609        3.55962        3.62512
        3.66615        3.67327        3.69721        4.00610        4.01656
        4.03611        4.03956        4.18303        4.21164        4.22402
        4.25126        4.53477        5.13814        5.25410        5.32274
        5.33335        5.35048        5.37527        5.65258        5.69147
        5.72804        5.75976        6.06923        6.16064        6.16609
        6.21603       37.01932       51.52745       51.53061       51.53653
       51.54132
 Time used in FCKEIG, thr_jaco:   2.70D-01  2.80D-02  1.06D-06
 CPU and wall times used in FCKEIG, THR_FCKEIG:   2.71D-01  2.80D-02  2.42D-04
 -----------------------------------------------------------------------------

 *** DIIS iteration number    6
 RDSUPM called. NFMAT, ISYMDM(1:NFMAT)                     1
                     1

 ITDIIS, energy, error norm, change in energy, scr.thr., difden:
@ DIIS iter.   6    -360.730094537        7.80196D-03   -8.34D-05  -20    F

 (DIIS_RED) Control Parameters C2DIIS =         F NEVC =    6


 (DIIS_RED) B matrix:

               Column   1     Column   2     Column   3     Column   4     Column   5     Column   6
       1      14.34747718
       2       1.01180116     0.84576784
       3       0.58583723     0.06759498     0.11159394
       4       0.00266716     0.08026842    -0.00878049     0.01419183
       5       0.01357103     0.00612818     0.00506311     0.00065815     0.00058424
       6      -0.00207169    -0.00024769     0.00052777     0.00019035     0.00006343     0.00006087
    ==== End of matrix output ====

 DIIS C vector; C2DIIS = F, LAMBDA = -3.54D-05
    0.000460    0.008132   -0.025775   -0.080136    0.178546    0.918773
* Read MO coefficients from SIRIUS.RST with label "NEWORB  " and header info: 24Dec18  DIIS   6
      Virial theorem: -V/T =      2.002328
@      MULPOP N      -0.63; H       0.18; H       0.23; H       0.23; O      -0.66; O      -0.65; O      -0.66; O      -0.80; H       0.29; H       0.39; 
@             H       0.36; H       0.30; H       0.33; H       0.35; H       0.39; H       0.36; 

 DIIS Fock eigenvalues in symmetry 1
      -20.56852      -20.55305      -20.54142      -20.54132      -15.54779
       -1.36277       -1.33638       -1.32684       -1.30351       -1.14768
       -0.73750       -0.70797       -0.68857       -0.67377       -0.64752
       -0.62338       -0.59831       -0.57494       -0.57406       -0.57103
       -0.52885       -0.51328       -0.49673       -0.49561       -0.44149
        0.13116        0.16349        0.17849        0.20216        0.23055
        0.24403        0.26804        0.28184        0.30936        0.32836
        0.36833        0.47698        0.50188        0.54699        0.56270
        0.58247        0.58924        0.59474        0.61046        0.61488
        0.65228        0.66648        0.90342        0.93691        0.95143
        0.96382        0.97091        0.97923        0.97983        0.99809
        1.07251        1.07599        1.08944        1.10045        1.12257
        1.12997        1.16023        1.25701        1.31454        1.32355
        1.33521        1.36687        1.39496        1.49250        1.51193
        1.51508        1.53057        1.54135        1.54971        1.58385
        1.58836        1.60299        1.72701        1.73351        1.73626
        1.74819        1.78642        1.82628        1.87245        1.87616
        1.90806        1.92809        1.98445        2.00983        2.16068
        2.21626        2.23174        2.24506        2.26657        2.28531
        2.37125        2.37397        2.41035        2.45429        2.55656
        2.63320        2.63782        2.64527        2.66066        2.69778
        2.76649        2.77094        2.81081        2.81727        2.82790
        2.88461        2.97143        3.00448        3.18012        3.41190
        3.42297        3.43407        3.44022        3.46364        3.48304
        3.53626        3.54016        3.54602        3.55949        3.62437
        3.66610        3.67314        3.69720        4.00599        4.01583
        4.03598        4.03945        4.18221        4.21158        4.22389
        4.25124        4.53295        5.13644        5.25247        5.32238
        5.33230        5.35043        5.37521        5.65128        5.69138
        5.72801        5.75958        6.06794        6.16058        6.16589
        6.21591       37.01604       51.52650       51.53010       51.53511
       51.54127
 Time used in FCKEIG, thr_jaco:   2.73D-01  2.80D-02  3.41D-07
 CPU and wall times used in FCKEIG, THR_FCKEIG:   2.74D-01  2.80D-02  7.80D-05
 -----------------------------------------------------------------------------

 *** DIIS iteration number    7
 RDSUPM called. NFMAT, ISYMDM(1:NFMAT)                     1
                     1

 ITDIIS, energy, error norm, change in energy, scr.thr., difden:
@ DIIS iter.   7    -360.730100607        2.46443D-03   -6.07D-06  -20    F

 (DIIS_RED) Control Parameters C2DIIS =         F NEVC =    7


 (DIIS_RED) B matrix:

               Column   1     Column   2     Column   3     Column   4     Column   5     Column   6
       1      14.34747718
       2       1.01180116     0.84576784
       3       0.58583723     0.06759498     0.11159394
       4       0.00266716     0.08026842    -0.00878049     0.01419183
       5       0.01357103     0.00612818     0.00506311     0.00065815     0.00058424
       6      -0.00207169    -0.00024769     0.00052777     0.00019035     0.00006343     0.00006087
       7       0.00056022     0.00001079     0.00007177     0.00000020     0.00003684    -0.00000076

               Column   7
       7       0.00000607
    ==== End of matrix output ====

 DIIS C vector; C2DIIS = F, LAMBDA = -1.18D-06
   -0.000205   -0.001513    0.010430    0.022375   -0.166014    0.032639    1.102287
* Read MO coefficients from SIRIUS.RST with label "NEWORB  " and header info: 24Dec18  DIIS   7
      Virial theorem: -V/T =      2.002300
@      MULPOP N      -0.64; H       0.18; H       0.23; H       0.23; O      -0.66; O      -0.65; O      -0.66; O      -0.81; H       0.29; H       0.39; 
@             H       0.36; H       0.30; H       0.33; H       0.35; H       0.39; H       0.36; 

 DIIS Fock eigenvalues in symmetry 1
      -20.56853      -20.55305      -20.54137      -20.54068      -15.54718
       -1.36272       -1.33634       -1.32681       -1.30316       -1.14749
       -0.73751       -0.70798       -0.68858       -0.67354       -0.64740
       -0.62327       -0.59837       -0.57474       -0.57413       -0.57107
       -0.52875       -0.51321       -0.49635       -0.49554       -0.44125
        0.13119        0.16351        0.17850        0.20222        0.23058
        0.24405        0.26805        0.28186        0.30937        0.32839
        0.36843        0.47705        0.50195        0.54710        0.56273
        0.58251        0.58929        0.59475        0.61048        0.61491
        0.65228        0.66656        0.90354        0.93703        0.95146
        0.96392        0.97100        0.97926        0.97988        0.99832
        1.07260        1.07606        1.08946        1.10049        1.12266
        1.13005        1.16026        1.25712        1.31460        1.32360
        1.33524        1.36694        1.39504        1.49257        1.51191
        1.51515        1.53058        1.54133        1.54983        1.58385
        1.58837        1.60315        1.72707        1.73352        1.73628
        1.74820        1.78645        1.82636        1.87247        1.87617
        1.90811        1.92808        1.98455        2.00987        2.16076
        2.21636        2.23186        2.24504        2.26656        2.28531
        2.37124        2.37396        2.41034        2.45440        2.55666
        2.63319        2.63781        2.64526        2.66073        2.69780
        2.76648        2.77094        2.81079        2.81724        2.82799
        2.88474        2.97159        3.00464        3.18025        3.41220
        3.42320        3.43409        3.44028        3.46366        3.48328
        3.53652        3.54018        3.54605        3.55953        3.62470
        3.66613        3.67317        3.69722        4.00603        4.01612
        4.03600        4.03948        4.18255        4.21162        4.22392
        4.25126        4.53330        5.13673        5.25275        5.32250
        5.33267        5.35045        5.37524        5.65173        5.69139
        5.72800        5.75959        6.06839        6.16057        6.16590
        6.21593       37.01663       51.52677       51.53019       51.53548
       51.54123
 Time used in FCKEIG, thr_jaco:   2.64D-01  2.60D-02  1.08D-07
 CPU and wall times used in FCKEIG, THR_FCKEIG:   2.64D-01  2.60D-02  2.46D-05
 -----------------------------------------------------------------------------

 *** DIIS iteration number    8
 RDSUPM called. NFMAT, ISYMDM(1:NFMAT)                     1
                     1

 ITDIIS, energy, error norm, change in energy, scr.thr., difden:
@ DIIS iter.   8    -360.730101219        3.31716D-04   -6.11D-07  -20    F

 (DIIS_RED) Control Parameters C2DIIS =         F NEVC =    8


 (DIIS_RED) B matrix:

               Column   1     Column   2     Column   3     Column   4     Column   5     Column   6
       1      14.34747718
       2       1.01180116     0.84576784
       3       0.58583723     0.06759498     0.11159394
       4       0.00266716     0.08026842    -0.00878049     0.01419183
       5       0.01357103     0.00612818     0.00506311     0.00065815     0.00058424
       6      -0.00207169    -0.00024769     0.00052777     0.00019035     0.00006343     0.00006087
       7       0.00056022     0.00001079     0.00007177     0.00000020     0.00003684    -0.00000076
       8       0.00006327     0.00000217    -0.00000125     0.00000351     0.00000094     0.00000126

               Column   7     Column   8
       7       0.00000607
       8       0.00000027     0.00000011
    ==== End of matrix output ====

 DIIS C vector; C2DIIS = F, LAMBDA = -5.60D-08
    0.000011    0.000072   -0.001005   -0.001922    0.022970   -0.034516   -0.177530    1.191919
* Read MO coefficients from SIRIUS.RST with label "NEWORB  " and header info: 24Dec18  DIIS   8
      Virial theorem: -V/T =      2.002315
@      MULPOP N      -0.63; H       0.18; H       0.23; H       0.23; O      -0.67; O      -0.65; O      -0.66; O      -0.81; H       0.29; H       0.39; 
@             H       0.36; H       0.30; H       0.33; H       0.35; H       0.39; H       0.36; 

 DIIS Fock eigenvalues in symmetry 1
      -20.56851      -20.55301      -20.54134      -20.54072      -15.54721
       -1.36271       -1.33632       -1.32679       -1.30318       -1.14749
       -0.73750       -0.70796       -0.68856       -0.67355       -0.64741
       -0.62328       -0.59837       -0.57476       -0.57413       -0.57107
       -0.52874       -0.51319       -0.49635       -0.49553       -0.44126
        0.13119        0.16351        0.17849        0.20221        0.23058
        0.24405        0.26805        0.28186        0.30937        0.32838
        0.36842        0.47704        0.50194        0.54709        0.56273
        0.58252        0.58929        0.59475        0.61048        0.61491
        0.65228        0.66655        0.90353        0.93703        0.95146
        0.96392        0.97099        0.97926        0.97988        0.99832
        1.07260        1.07606        1.08947        1.10049        1.12267
        1.13005        1.16026        1.25711        1.31460        1.32360
        1.33525        1.36694        1.39503        1.49256        1.51191
        1.51514        1.53058        1.54133        1.54982        1.58385
        1.58837        1.60314        1.72707        1.73351        1.73628
        1.74819        1.78645        1.82635        1.87246        1.87616
        1.90810        1.92808        1.98453        2.00986        2.16075
        2.21636        2.23186        2.24504        2.26656        2.28531
        2.37124        2.37396        2.41034        2.45438        2.55665
        2.63319        2.63781        2.64526        2.66072        2.69779
        2.76647        2.77094        2.81079        2.81724        2.82798
        2.88473        2.97158        3.00463        3.18024        3.41218
        3.42319        3.43409        3.44028        3.46367        3.48327
[...]
    ==== End of matrix output ====


 CCSD   oscillator strength matrix for state nr. 13 of symmetry 1
 CCSD  excitation energy:15.13149983


               Column   1     Column   2     Column   3
       1     4.919713D-05  -9.470093D-06   8.969059D-05
       2    -9.470093D-06   1.777670D-06  -1.720539D-05
       3     8.969059D-05  -1.720539D-05   1.634357D-04
    ==== End of matrix output ====

 Principal values of diagonalized oscillator strength matrix:

             a.u.               
 1      -0.00000005
 2       0.00000000
 3       0.00021446

 Principal axis of diagonalized oscillator strength matrix:


               Column   1     Column   2     Column   3
       1       0.54337730     0.68939942     0.47902980
       2       0.81211377    -0.57620889    -0.09194859
       3      -0.21263192    -0.43898948     0.87296959
    ==== End of matrix output ====


 CCSD  Transition strength matrix for state nr. 14 of symmetry 1
 CCSD  excitation energy:15.20498318

 Gauge: length

               Column   1     Column   2     Column   3
       1     2.007333D-05  -6.280616D-06   2.164434D-05
       2    -6.280616D-06   1.965030D-06  -6.771538D-06
       3     2.164434D-05  -6.771538D-06   2.333299D-05
    ==== End of matrix output ====

 Principal values of diagonalized transition strength matrix:

             a.u.               
 1      -0.00000000
 2      -0.00000000
 3       0.00004537

 Principal axis of diagonalized transition strength matrix:


               Column   1     Column   2     Column   3
       1       0.72411843     0.18227730     0.66515222
       2      -0.05466832     0.97657751    -0.20810511
       3      -0.68750554     0.11432999     0.71712257
    ==== End of matrix output ====


 CCSD   oscillator strength matrix for state nr. 14 of symmetry 1
 CCSD  excitation energy:15.20498318


               Column   1     Column   2     Column   3
       1     2.034764D-04  -6.366445D-05   2.194012D-04
       2    -6.366445D-05   1.991883D-05  -6.864075D-05
       3     2.194012D-04  -6.864075D-05   2.365184D-04
    ==== End of matrix output ====

 Principal values of diagonalized oscillator strength matrix:

             a.u.               
 1      -0.00000003
 2      -0.00000000
 3       0.00045994

 Principal axis of diagonalized oscillator strength matrix:


               Column   1     Column   2     Column   3
       1       0.72411843     0.18227730     0.66515222
       2      -0.05466832     0.97657751    -0.20810511
       3      -0.68750554     0.11432999     0.71712257
    ==== End of matrix output ====


 CCSD  Transition strength matrix for state nr. 15 of symmetry 1
 CCSD  excitation energy:15.28440279

 Gauge: length

               Column   1     Column   2     Column   3
       1     6.916884D-07   6.697527D-06  -1.125247D-05
       2     6.697527D-06   6.484450D-05  -1.089496D-04
       3    -1.125247D-05  -1.089496D-04   1.830501D-04
    ==== End of matrix output ====

 Principal values of diagonalized transition strength matrix:

             a.u.               
 1      -0.00000000
 2      -0.00000000
 3       0.00024859

 Principal axis of diagonalized transition strength matrix:


               Column   1     Column   2     Column   3
       1      -0.19154171     0.98006590    -0.05275049
       2       0.84853158     0.13834522    -0.51073942
       3       0.49326051     0.14258836     0.85811574
    ==== End of matrix output ====


 CCSD   oscillator strength matrix for state nr. 15 of symmetry 1
 CCSD  excitation energy:15.28440279


               Column   1     Column   2     Column   3
       1       0.00000705     0.00006825    -0.00011466
       2       0.00006825     0.00066074    -0.00111015
       3      -0.00011466    -0.00111015     0.00186521
    ==== End of matrix output ====

 Principal values of diagonalized oscillator strength matrix:

             a.u.               
 1      -0.00000001
 2       0.00000000
 3       0.00253301

 Principal axis of diagonalized oscillator strength matrix:


               Column   1     Column   2     Column   3
       1      -0.19154171     0.98006590    -0.05275049
       2       0.84853158     0.13834522    -0.51073942
       3       0.49326051     0.14258836     0.85811574
    ==== End of matrix output ====

  Total time for    135 linear response residues:     139.81 seconds.
  

 *******************************************************************************
 *******************************************************************************
 *                                                                             *
 *                                                                             *
 *                   SUMMARY OF COUPLED CLUSTER CALCULATION                    *
 *                                                                             *
 *                                                                             *
 *******************************************************************************
 *******************************************************************************

                                                                                
                                                                                
            Total SCF   energy:                  -360.7301012345                
            Total MP2   energy:                  -361.8256097395                
            Total CCSD  energy:                  -361.8661528351                
                                                                                
                                                                                
            Total SCF   energy:                  -360.7301012345                
            Total RSTAR energy:                  -361.8661528351                
            Total CCSD  energy:                  -361.8662922534                
                                                                                
                                                                                
            Total SCF   energy:                  -360.7301012345                
            Total RSTAR energy:                  -361.8662922534                
            Total CCSD  energy:                  -361.8662941572                
                                                                                
                                                                                
            Total SCF   energy:                  -360.7301012345                
            Total RSTAR energy:                  -361.8662941572                
            Total CCSD  energy:                  -361.8662943001                
                                                                                
                                                                                
            Total SCF   energy:                  -360.7301012345                
            Total RSTAR energy:                  -361.8662943001                
            Total CCSD  energy:                  -361.8662943085                
                                                                                
                                                                                
            Total SCF   energy:                  -360.7301012345                
            Total RSTAR energy:                  -361.8662943085                
            Total CCSD  energy:                  -361.8662943090                
                                                                                
                                                                                
            Total SCF   energy:                  -360.7301012345                
            Total RSTAR energy:                  -361.8662943090                
            Total CCSD  energy:                  -361.8662943090                
            CCSD Total  energy:                  -362.2206406106                
            CCSD E(QM/MM)     :                    -0.3494212404                
                                                                                
                                                                                
                                                                                
 +=============================================================================+
 |  sym. | Exci.  |        CCSD       Excitation energies            | ||T1||  |
 |(spin, |        +------------------------------------------------------------+
 | spat) |        |     Hartree    |       eV.      |     cm-1       |    %    |
 +=============================================================================+
 | ^1A   |    1   |    14.8165125  |     403.17781  |   3251848.584  |  88.29  |
 | ^1A   |    2   |    14.8766587  |     404.81448  |   3265049.154  |  88.74  |
 | ^1A   |    3   |    14.9038583  |     405.55461  |   3271018.776  |  88.79  |
 | ^1A   |    4   |    14.9620948  |     407.13931  |   3283800.219  |  88.36  |
 | ^1A   |    5   |    14.9910354  |     407.92683  |   3290151.948  |  88.00  |
 | ^1A   |    6   |    15.0053414  |     408.31611  |   3293291.734  |  88.00  |
 | ^1A   |    7   |    15.0221851  |     408.77445  |   3296988.497  |  88.13  |
 | ^1A   |    8   |    15.0644253  |     409.92386  |   3306259.149  |  87.97  |
 | ^1A   |    9   |    15.0795025  |     410.33414  |   3309568.219  |  87.94  |
 | ^1A   |   10   |    15.0985525  |     410.85251  |   3313749.219  |  88.05  |
 | ^1A   |   11   |    15.1092440  |     411.14344  |   3316095.729  |  88.01  |
 | ^1A   |   12   |    15.1191810  |     411.41384  |   3318276.651  |  87.94  |
 | ^1A   |   13   |    15.1314998  |     411.74906  |   3320980.317  |  87.96  |
 | ^1A   |   14   |    15.2049832  |     413.74864  |   3337108.048  |  87.54  |
 | ^1A   |   15   |    15.2844028  |     415.90976  |   3354538.638  |  88.06  |
 +=============================================================================+
                                                                                
                                                                                
     Total energies in Hartree:                                                 
             1 ^1A       -347.0547068924                                        
             2 ^1A       -346.9945606708                                        
             3 ^1A       -346.9673610711                                        
             4 ^1A       -346.9091245308                                        
             5 ^1A       -346.8801839245                                        
             6 ^1A       -346.8658780054                                        
             7 ^1A       -346.8490343142                                        
             8 ^1A       -346.8067941150                                        
             9 ^1A       -346.7917168822                                        
            10 ^1A       -346.7726668472                                        
            11 ^1A       -346.7619753605                                        
            12 ^1A       -346.7520383486                                        
            13 ^1A       -346.7397195371                                        
            14 ^1A       -346.6662361881                                        
            15 ^1A       -346.5868165763                                        
                                                                                
                                                                                
 +=============================================================================+
 |  sym. | Exci.  |        CCSD       Length   Gauge Oscillator Strength       |
 |(spin, |        +------------------------------------------------------------+
 | spat) |        | Dipole Strength(a.u.) | Oscillator strength  | Direction   |
 +=============================================================================+
 | ^1A   |    1   |        0.0007059      |      0.0069725       |  (Y,Z)      |
 | ^1A   |    2   |        0.0038075      |      0.0377624       |  (Y,Z)      |
 | ^1A   |    3   |        0.0034492      |      0.0342714       |  (Y,Z)      |
 | ^1A   |    4   |        0.0016647      |      0.0166047       |  (Y,Z)      |
 | ^1A   |    5   |        0.0003660      |      0.0036576       |  (Y,Z)      |
 | ^1A   |    6   |        0.0001802      |      0.0018030       |  (Y,Z)      |
 | ^1A   |    7   |        0.0006599      |      0.0066089       |  (Y,Z)      |
 | ^1A   |    8   |        0.0001251      |      0.0012569       |  (Y,Z)      |
 | ^1A   |    9   |        0.0001951      |      0.0019610       |  (Y,Z)      |
 | ^1A   |   10   |        0.0005993      |      0.0060321       |  (Y,Z)      |
 | ^1A   |   11   |        0.0002335      |      0.0023517       |  (Y,Z)      |
 | ^1A   |   12   |        0.0002040      |      0.0020565       |  (Y,Z)      |
 | ^1A   |   13   |        0.0000213      |      0.0002144       |  (Y,Z)      |
 | ^1A   |   14   |        0.0000454      |      0.0004599       |  (Y,Z)      |
 | ^1A   |   15   |        0.0002486      |      0.0025330       |  (Y,Z)      |
 +=============================================================================+

  1 a.u. =        27.21138 eV.  
  1 a.u. =    219474.62934 cm-1.
  

 *******************************************************************************
 *******************************************************************************
 *                                                                             *
 *                                                                             *
 *                      END OF COUPLED CLUSTER CALCULATION                     *
 *                                                                             *
 *                                                                             *
 *******************************************************************************
 *******************************************************************************


 CPU and wall time for CC :  595367.155  125605.110

 
     Date and time (Linux)  : Wed Dec 26 10:33:06 2018
     Host name              : n-62-29-31                              


                      .-------------------------------------.
                      | End of Coupled Cluster Section (CC) |
                      `-------------------------------------'

  Total CPU  time used in DALTON: 165 hours 33 minutes  2 seconds
  Total wall time used in DALTON:  34 hours 55 minutes 22 seconds

 
     Date and time (Linux)  : Wed Dec 26 10:33:07 2018
     Host name              : n-62-29-31                              
  

 +---------------------------------------------------------+ 
 | List of selected calculated molecular properties (a.u.) | 
 +---------------------------------------------------------+ 

  Properties are read from unit number                      4

 CCSD       properties :
 #  1 1 CCSD/MM  Ground state Energy =    -362.2206406106
 #  2 1 E_QM/MM  Ground state Energy =      -0.3494212404
 #  3 1 Sy: 1 Sp: 1 Exc:  1 E_tot:   -347.0547068924 w:     14.8165124779 E_grs:   -361.8712193703
 #  4 1 Exctot   Excited state Energy =    -347.0547068924
 #  5 1 Sy: 1 Sp: 1 Exc:  2 E_tot:   -346.9945606708 w:     14.8766586995 E_grs:   -361.8712193703
 #  6 1 Exctot   Excited state Energy =    -346.9945606708
 #  7 1 Sy: 1 Sp: 1 Exc:  3 E_tot:   -346.9673610711 w:     14.9038582992 E_grs:   -361.8712193703
 #  8 1 Exctot   Excited state Energy =    -346.9673610711
 #  9 1 Sy: 1 Sp: 1 Exc:  4 E_tot:   -346.9091245308 w:     14.9620948394 E_grs:   -361.8712193703
 # 10 1 Exctot   Excited state Energy =    -346.9091245308
 # 11 1 Sy: 1 Sp: 1 Exc:  5 E_tot:   -346.8801839245 w:     14.9910354458 E_grs:   -361.8712193703
 # 12 1 Exctot   Excited state Energy =    -346.8801839245
 # 13 1 Sy: 1 Sp: 1 Exc:  6 E_tot:   -346.8658780054 w:     15.0053413649 E_grs:   -361.8712193703
 # 14 1 Exctot   Excited state Energy =    -346.8658780054
 # 15 1 Sy: 1 Sp: 1 Exc:  7 E_tot:   -346.8490343142 w:     15.0221850561 E_grs:   -361.8712193703
 # 16 1 Exctot   Excited state Energy =    -346.8490343142
 # 17 1 Sy: 1 Sp: 1 Exc:  8 E_tot:   -346.8067941150 w:     15.0644252552 E_grs:   -361.8712193703
 # 18 1 Exctot   Excited state Energy =    -346.8067941150
 # 19 1 Sy: 1 Sp: 1 Exc:  9 E_tot:   -346.7917168822 w:     15.0795024881 E_grs:   -361.8712193703
 # 20 1 Exctot   Excited state Energy =    -346.7917168822
 # 21 1 Sy: 1 Sp: 1 Exc: 10 E_tot:   -346.7726668472 w:     15.0985525231 E_grs:   -361.8712193703
 # 22 1 Exctot   Excited state Energy =    -346.7726668472
 # 23 1 Sy: 1 Sp: 1 Exc: 11 E_tot:   -346.7619753605 w:     15.1092440098 E_grs:   -361.8712193703
 # 24 1 Exctot   Excited state Energy =    -346.7619753605
 # 25 1 Sy: 1 Sp: 1 Exc: 12 E_tot:   -346.7520383486 w:     15.1191810216 E_grs:   -361.8712193703
 # 26 1 Exctot   Excited state Energy =    -346.7520383486
 # 27 1 Sy: 1 Sp: 1 Exc: 13 E_tot:   -346.7397195371 w:     15.1314998332 E_grs:   -361.8712193703
 # 28 1 Exctot   Excited state Energy =    -346.7397195371
 # 29 1 Sy: 1 Sp: 1 Exc: 14 E_tot:   -346.6662361881 w:     15.2049831822 E_grs:   -361.8712193703
 # 30 1 Exctot   Excited state Energy =    -346.6662361881
 # 31 1 Sy: 1 Sp: 1 Exc: 15 E_tot:   -346.5868165763 w:     15.2844027940 E_grs:   -361.8712193703
 # 32 1 Exctot   Excited state Energy =    -346.5868165763
 # 33 1 |<O|XDIPLEN |i(14.816512)>| =     0.01145853
 # 35 1 |<O|XDIPLEN |i(14.876659)>| =     0.05547308
 # 37 1 |<O|XDIPLEN |i(14.903858)>| =     0.02442209
 # 39 1 |<O|XDIPLEN |i(14.962095)>| =     0.00320261
 # 41 1 |<O|XDIPLEN |i(14.991035)>| =     0.01874198
 # 43 1 |<O|XDIPLEN |i(15.005341)>| =     0.00790278
 # 45 1 |<O|XDIPLEN |i(15.022185)>| =     0.01245054
 # 47 1 |<O|XDIPLEN |i(15.064425)>| =     0.00208895
 # 49 1 |<O|XDIPLEN |i(15.079502)>| =     0.00138887
 # 51 1 |<O|XDIPLEN |i(15.098553)>| =     0.00566323
 # 53 1 |<O|XDIPLEN |i(15.109244)>| =     0.00715543
 # 55 1 |<O|XDIPLEN |i(15.119181)>| =     0.00026300
 # 57 1 |<O|XDIPLEN |i(15.131500)>| =     0.00220838
 # 59 1 |<O|XDIPLEN |i(15.204983)>| =     0.00448033
 # 61 1 |<O|XDIPLEN |i(15.284403)>| =     0.00083168
 # 63 1 |<O|YDIPLEN |i(14.816512)>| =     0.01531807
 # 65 1 |<O|YDIPLEN |i(14.876659)>| =     0.02587599
 # 67 1 |<O|YDIPLEN |i(14.903858)>| =     0.04739158
 # 69 1 |<O|YDIPLEN |i(14.962095)>| =     0.01701067
 # 71 1 |<O|YDIPLEN |i(14.991035)>| =     0.00366695
 # 73 1 |<O|YDIPLEN |i(15.005341)>| =     0.01072416
 # 75 1 |<O|YDIPLEN |i(15.022185)>| =     0.01649464
 # 77 1 |<O|YDIPLEN |i(15.064425)>| =     0.00537859
 # 79 1 |<O|YDIPLEN |i(15.079502)>| =     0.01292655
 # 81 1 |<O|YDIPLEN |i(15.098553)>| =     0.01161218
 # 83 1 |<O|YDIPLEN |i(15.109244)>| =     0.00763512
 # 85 1 |<O|YDIPLEN |i(15.119181)>| =     0.00337664
 # 87 1 |<O|YDIPLEN |i(15.131500)>| =     0.00041979
 # 89 1 |<O|YDIPLEN |i(15.204983)>| =     0.00140180
 # 91 1 |<O|YDIPLEN |i(15.284403)>| =     0.00805261
 # 93 1 |<O|ZDIPLEN |i(14.816512)>| =     0.01843762
 # 95 1 |<O|ZDIPLEN |i(14.876659)>| =     0.00779201
 # 97 1 |<O|ZDIPLEN |i(14.903858)>| =     0.02463424
 # 99 1 |<O|ZDIPLEN |i(14.962095)>| =     0.03694668
 #101 1 |<O|ZDIPLEN |i(14.991035)>| =     0.00112848
 #103 1 |<O|ZDIPLEN |i(15.005341)>| =     0.00166422
 #105 1 |<O|ZDIPLEN |i(15.022185)>| =     0.01525861
 #107 1 |<O|ZDIPLEN |i(15.064425)>| =     0.00958408
 #109 1 |<O|ZDIPLEN |i(15.079502)>| =     0.00510294
 #111 1 |<O|ZDIPLEN |i(15.098553)>| =     0.02079329
 #113 1 |<O|ZDIPLEN |i(15.109244)>| =     0.01113436
 #115 1 |<O|ZDIPLEN |i(15.119181)>| =     0.01387655
 #117 1 |<O|ZDIPLEN |i(15.131500)>| =     0.00402511
 #119 1 |<O|ZDIPLEN |i(15.204983)>| =     0.00483042
 #121 1 |<O|ZDIPLEN |i(15.284403)>| =     0.01352960

 THE_END   
