

     ************************************************************************
     *************** Dalton - An Electronic Structure Program ***************
     ************************************************************************

    This is output from DALTON release Dalton2017.alpha (2016)
         ( Web site: http://daltonprogram.org )

   ----------------------------------------------------------------------------

    NOTE:
     
    Dalton is an experimental code for the evaluation of molecular
    properties using (MC)SCF, DFT, CI, and CC wave functions.
    The authors accept no responsibility for the performance of
    the code or for the correctness of the results.
     
    The code (in whole or part) is provided under a licence and
    is not to be reproduced for further distribution without
    the written permission of the authors or their representatives.
     
    See the home page "http://daltonprogram.org" for further information.
     
    If results obtained with this code are published,
    the appropriate citations would be both of:
     
       K. Aidas, C. Angeli, K. L. Bak, V. Bakken, R. Bast,
       L. Boman, O. Christiansen, R. Cimiraglia, S. Coriani,
       P. Dahle, E. K. Dalskov, U. Ekstroem,
       T. Enevoldsen, J. J. Eriksen, P. Ettenhuber, B. Fernandez,
       L. Ferrighi, H. Fliegl, L. Frediani, K. Hald, A. Halkier,
       C. Haettig, H. Heiberg, T. Helgaker, A. C. Hennum,
       H. Hettema, E. Hjertenaes, S. Hoest, I.-M. Hoeyvik,
       M. F. Iozzi, B. Jansik, H. J. Aa. Jensen, D. Jonsson,
       P. Joergensen, J. Kauczor, S. Kirpekar,
       T. Kjaergaard, W. Klopper, S. Knecht, R. Kobayashi, H. Koch,
       J. Kongsted, A. Krapp, K. Kristensen, A. Ligabue,
       O. B. Lutnaes, J. I. Melo, K. V. Mikkelsen, R. H. Myhre,
       C. Neiss, C. B. Nielsen, P. Norman, J. Olsen,
       J. M. H. Olsen, A. Osted, M. J. Packer, F. Pawlowski,
       T. B. Pedersen, P. F. Provasi, S. Reine, Z. Rinkevicius,
       T. A. Ruden, K. Ruud, V. Rybkin, P. Salek, C. C. M. Samson,
       A. Sanchez de Meras, T. Saue, S. P. A. Sauer,
       B. Schimmelpfennig, K. Sneskov, A. H. Steindal,
       K. O. Sylvester-Hvid, P. R. Taylor, A. M. Teale,
       E. I. Tellgren, D. P. Tew, A. J. Thorvaldsen, L. Thoegersen,
       O. Vahtras, M. A. Watson, D. J. D. Wilson, M. Ziolkowski
       and H. Agren,
       "The Dalton quantum chemistry program system",
       WIREs Comput. Mol. Sci. 2014, 4:269–284 (doi: 10.1002/wcms.1172)
     
    and
     
       Dalton, a Molecular Electronic Structure Program,
       Release Dalton2017.alpha (2016), see http://daltonprogram.org
   ----------------------------------------------------------------------------

    Authors in alphabetical order (major contribution(s) in parenthesis):

  Kestutis Aidas,           Vilnius University,           Lithuania   (QM/MM)
  Celestino Angeli,         University of Ferrara,        Italy       (NEVPT2)
  Keld L. Bak,              UNI-C,                        Denmark     (AOSOPPA, non-adiabatic coupling, magnetic properties)
  Vebjoern Bakken,          University of Oslo,           Norway      (DALTON; geometry optimizer, symmetry detection)
  Radovan Bast,             UiT The Arctic U. of Norway,  Norway      (DALTON installation and execution frameworks)
  Pablo Baudin,             University of Valencia,       Spain       (Cholesky excitation energies)
  Linus Boman,              NTNU,                         Norway      (Cholesky decomposition and subsystems)
  Ove Christiansen,         Aarhus University,            Denmark     (CC module)
  Renzo Cimiraglia,         University of Ferrara,        Italy       (NEVPT2)
  Sonia Coriani,            University of Trieste,        Italy       (CC module, MCD in RESPONS)
  Janusz Cukras,            University of Trieste,        Italy       (MChD in RESPONS)
  Paal Dahle,               University of Oslo,           Norway      (Parallelization)
  Erik K. Dalskov,          UNI-C,                        Denmark     (SOPPA)
  Thomas Enevoldsen,        Univ. of Southern Denmark,    Denmark     (SOPPA)
  Janus J. Eriksen,         Aarhus University,            Denmark     (Polarizable embedding model, TDA)
  Rasmus Faber,             University of Copenhagen,     Denmark     (Vib.avg. NMR with SOPPA, parallel AO-SOPPA)
  Berta Fernandez,          U. of Santiago de Compostela, Spain       (doublet spin, ESR in RESPONS)
  Lara Ferrighi,            Aarhus University,            Denmark     (PCM Cubic response)
  Heike Fliegl,             University of Oslo,           Norway      (CCSD(R12))
  Luca Frediani,            UiT The Arctic U. of Norway,  Norway      (PCM)
  Bin Gao,                  UiT The Arctic U. of Norway,  Norway      (Gen1Int library)
  Christof Haettig,         Ruhr-University Bochum,       Germany     (CC module)
  Kasper Hald,              Aarhus University,            Denmark     (CC module)
  Asger Halkier,            Aarhus University,            Denmark     (CC module)
  Frederik Beyer Hansen,    University of Copenhagen,     Denmark     (Parallel AO-SOPPA)
  Erik D. Hedegaard,        Univ. of Southern Denmark,    Denmark     (Polarizable embedding model, QM/MM)
  Hanne Heiberg,            University of Oslo,           Norway      (geometry analysis, selected one-electron integrals)
  Trygve Helgaker,          University of Oslo,           Norway      (DALTON; ABACUS, ERI, DFT modules, London, and much more)
  Alf Christian Hennum,     University of Oslo,           Norway      (Parity violation)
  Hinne Hettema,            University of Auckland,       New Zealand (quadratic response in RESPONS; SIRIUS supersymmetry)
  Eirik Hjertenaes,         NTNU,                         Norway      (Cholesky decomposition)
  Pi A. B. Haase,           University of Copenhagen,     Denmark     (Triplet AO-SOPPA)
  Maria Francesca Iozzi,    University of Oslo,           Norway      (RPA)
  Brano Jansik              Technical Univ. of Ostrava    Czech Rep.  (DFT cubic response)
  Hans Joergen Aa. Jensen,  Univ. of Southern Denmark,    Denmark     (DALTON; SIRIUS, RESPONS, ABACUS modules, London, and much more)
  Dan Jonsson,              UiT The Arctic U. of Norway,  Norway      (cubic response in RESPONS module)
  Poul Joergensen,          Aarhus University,            Denmark     (RESPONS, ABACUS, and CC modules)
  Maciej Kaminski,          University of Warsaw,         Poland      (CPPh in RESPONS)
  Joanna Kauczor,           Linkoeping University,        Sweden      (Complex polarization propagator (CPP) module)
  Sheela Kirpekar,          Univ. of Southern Denmark,    Denmark     (Mass-velocity & Darwin integrals)
  Wim Klopper,              KIT Karlsruhe,                Germany     (R12 code in CC, SIRIUS, and ABACUS modules)
  Stefan Knecht,            ETH Zurich,                   Switzerland (Parallel CI and MCSCF)
  Rika Kobayashi,           Australian National Univ.,    Australia   (DIIS in CC, London in MCSCF)
  Henrik Koch,              NTNU,                         Norway      (CC module, Cholesky decomposition)
  Jacob Kongsted,           Univ. of Southern Denmark,    Denmark     (Polarizable embedding model, QM/MM)
  Andrea Ligabue,           University of Modena,         Italy       (CTOCD, AOSOPPA)
  Nanna H. List             Univ. of Southern Denmark,    Denmark     (Polarizable embedding model)
  Ola B. Lutnaes,           University of Oslo,           Norway      (DFT Hessian)
  Juan I. Melo,             University of Buenos Aires,   Argentina   (LRESC, Relativistic Effects on NMR Shieldings)
  Kurt V. Mikkelsen,        University of Copenhagen,     Denmark     (MC-SCRF and QM/MM)
  Rolf H. Myhre,            NTNU,                         Norway      (Cholesky, subsystems and ECC2)
  Christian Neiss,          Univ. Erlangen-Nuernberg,     Germany     (CCSD(R12))
  Christian B. Nielsen,     University of Copenhagen,     Denmark     (QM/MM)
  Patrick Norman,           Linkoeping University,        Sweden      (Cubic response and complex frequency response in RESPONS)
  Jeppe Olsen,              Aarhus University,            Denmark     (SIRIUS CI/density modules)
  Jogvan Magnus H. Olsen,   Univ. of Southern Denmark,    Denmark     (Polarizable embedding model, QM/MM)
  Anders Osted,             Copenhagen University,        Denmark     (QM/MM)
  Martin J. Packer,         University of Sheffield,      UK          (SOPPA)
  Filip Pawlowski,          Kazimierz Wielki University,  Poland      (CC3)
  Morten N. Pedersen,       Univ. of Southern Denmark,    Denmark     (Polarizable embedding model)
  Thomas B. Pedersen,       University of Oslo,           Norway      (Cholesky decomposition)
  Patricio F. Provasi,      University of Northeastern,   Argentina   (Analysis of coupling constants in localized orbitals)
  Zilvinas Rinkevicius,     KTH Stockholm,                Sweden      (open-shell DFT, ESR)
  Elias Rudberg,            KTH Stockholm,                Sweden      (DFT grid and basis info)
  Torgeir A. Ruden,         University of Oslo,           Norway      (Numerical derivatives in ABACUS)
  Kenneth Ruud,             UiT The Arctic U. of Norway,  Norway      (DALTON; ABACUS magnetic properties and much more)
  Pawel Salek,              KTH Stockholm,                Sweden      (DALTON; DFT code)
  Claire C. M. Samson       University of Karlsruhe       Germany     (Boys localization, r12 integrals in ERI)
  Alfredo Sanchez de Meras, University of Valencia,       Spain       (CC module, Cholesky decomposition)
  Trond Saue,               Paul Sabatier University,     France      (direct Fock matrix construction)
  Stephan P. A. Sauer,      University of Copenhagen,     Denmark     (SOPPA(CCSD), SOPPA prop., AOSOPPA, vibrational g-factors)
  Bernd Schimmelpfennig,    Forschungszentrum Karlsruhe,  Germany     (AMFI module)
  Kristian Sneskov,         Aarhus University,            Denmark     (Polarizable embedding model, QM/MM)
  Arnfinn H. Steindal,      UiT The Arctic U. of Norway,  Norway      (parallel QM/MM, Polarizable embedding model)
  Casper Steinmann,         Univ. of Southern Denmark,    Denmark     (QFIT, Polarizable embedding model)
  K. O. Sylvester-Hvid,     University of Copenhagen,     Denmark     (MC-SCRF)
  Peter R. Taylor,          VLSCI/Univ. of Melbourne,     Australia   (Symmetry handling ABACUS, integral transformation)
  Andrew M. Teale,          University of Nottingham,     England     (DFT-AC, DFT-D)
  David P. Tew,             University of Bristol,        England     (CCSD(R12))
  Olav Vahtras,             KTH Stockholm,                Sweden      (triplet response, spin-orbit, ESR, TDDFT, open-shell DFT)
  David J. Wilson,          La Trobe University,          Australia   (DFT Hessian and DFT magnetizabilities)
  Hans Agren,               KTH Stockholm,                Sweden      (SIRIUS module, RESPONS, MC-SCRF solvation model)
 --------------------------------------------------------------------------------

     Date and time (Linux)  : Mon Dec 31 21:42:39 2018
     Host name              : n-62-29-7                               

 * Work memory size             :  1280000000 =  9.537 gigabytes.

 * Directories for basis set searches:
   1) /zhome/37/3/129401/NH3NH4/CCSD/AIMD_SAMPLING/nh3_4h2o_nd
   2) /zhome/9a/4/124800/source/dalton/build-mlcc/basis


Compilation information
-----------------------

 Who compiled             | rfaber
 Host                     | hpclogin1
 System                   | Linux-2.6.32-696.1.1.el6.x86_64
 CMake generator          | Unix Makefiles
 Processor                | x86_64
 64-bit integers          | ON
 MPI                      | OFF
 Fortran compiler         | /opt/intel/2016update2/compilers_and_libraries_201
                          | 6.2.181/linux/bin/intel64/ifort
 Fortran compiler version | ifort (IFORT) 16.0.2 20160204
 C compiler               | /opt/intel/2016update2/compilers_and_libraries_201
                          | 6.2.181/linux/bin/intel64/icc
 C compiler version       | icc (ICC) 16.0.2 20160204
 C++ compiler             | /opt/intel/2016update2/compilers_and_libraries_201
                          | 6.2.181/linux/bin/intel64/icpc
 C++ compiler version     | icpc (ICC) 16.0.2 20160204
 Static linking           | OFF
 Last Git revision        | bb4d1599ca5680a9f3980451fc8bbefdba436d59
 Git branch               | mlcc
 Configuration time       | 2017-06-13 16:11:03.928841


   Content of the .dal input file
 ----------------------------------

**DALTON
.RUN WAVE FUNCTIONS
*QMMM
.QMMM
**INTEGRALS
.DIPLEN
**WAVE FUNCTIONS
.CC
*PRINT
!To check the origin of excit
.PRINTL
   0 11
*SCF INP
.THRESH
1.0D-7
*CC INP
.CCSD
.THRLEQ
 1.0D-9
.THRENR
 1.0D-10
.FROIMP
4
0
.PRINT
 1
.MAX IT
 1200
.MAXRED
 1200
.MXLRV
1199
*CCSLV
.CCMM
.MXSLIT
200
.MXINIT
4 5
*CCEXCI
.NCCEXC
 15
.CVSEPARA
1
1
*CCLRSD
.DIPOLE
**END OF DALTON INPUT


   Content of the .mol file
 ----------------------------

ATOMBASIS


Atomtypes=4 Charge=0 Nosymm Angstrom
   7.00000    1    Basis=6-311G**
N          0.000000        0.000000        0.000000
   1.00000    3    Basis=6-311G**
H         -0.295698        0.316941        0.912920
H         -0.423657       -0.936615       -0.167568
H          1.051547       -0.099009       -0.016277
   8.00000    4    Basis=6-311G**
O         -2.709221       -0.959657        1.869739
O         -0.512709       -2.395276       -1.888695
O         -1.157689        1.749777       -1.805391
O          2.937328        0.394503        0.647241
   1.00000    8    Basis=6-311G**
H         -3.468454       -1.303315        2.405439
H         -3.151647       -0.434621        1.150648
H         -0.650267       -2.105811       -2.830275
H         -1.086466       -3.226174       -1.724152
H         -0.417962        1.590257       -2.423410
H         -0.900848        0.999724       -1.128649
H          3.240903        1.282506        0.838256
H          3.074879       -0.031170        1.529604


       *******************************************************************
       *********** Output from DALTON general input processing ***********
       *******************************************************************

 --------------------------------------------------------------------------------
   Overall default print level:    0
   Print level for DALTON.STAT:    1

    HERMIT 1- and 2-electron integral sections will be executed
    "Old" integral transformation used (limited to max 255 basis functions)
    Wave function sections will be executed (SIRIUS module)
 --------------------------------------------------------------------------------


 Changes of defaults for *QMMM  :
 --------------------------------

 +------------------+
 |  WORD: | CHANGE: |
 +------------------+
 |   QMMM |       T |
 +------------------+
 


   ****************************************************************************
   *************** Output of molecule and basis set information ***************
   ****************************************************************************


    The two title cards from your ".mol" input:
    ------------------------------------------------------------------------
 1:                                                                         
 2:                                                                         
    ------------------------------------------------------------------------

  Coordinates are entered in Angstrom and converted to atomic units.
          - Conversion factor : 1 bohr = 0.52917721 A

  Atomic type no.    1
  --------------------
  Nuclear charge:   7.00000
  Number of symmetry independent centers:    1
  Number of basis sets to read;    2
  The basis set is "6-311G**" from the basis set library.
  Basis set file used for this atomic type with Z =   7 :
     "/zhome/9a/4/124800/source/dalton/build-mlcc/basis/6-311G**"

  Info about the basis set file: your basis has no documentation.
  Basis set: 6-311G**                                                                        

  Atomic type no.    2
  --------------------
  Nuclear charge:   1.00000
  Number of symmetry independent centers:    3
  Number of basis sets to read;    2
  The basis set is "6-311G**" from the basis set library.
  Basis set file used for this atomic type with Z =   1 :
     "/zhome/9a/4/124800/source/dalton/build-mlcc/basis/6-311G**"

  Info about the basis set file: your basis has no documentation.
  Basis set: 6-311G**                                                                        

  Atomic type no.    3
  --------------------
  Nuclear charge:   8.00000
  Number of symmetry independent centers:    4
  Number of basis sets to read;    2
  The basis set is "6-311G**" from the basis set library.
  Basis set file used for this atomic type with Z =   8 :
     "/zhome/9a/4/124800/source/dalton/build-mlcc/basis/6-311G**"

  Info about the basis set file: your basis has no documentation.
  Basis set: 6-311G**                                                                        

  Atomic type no.    4
  --------------------
  Nuclear charge:   1.00000
  Number of symmetry independent centers:    8
  Number of basis sets to read;    2
  The basis set is "6-311G**" from the basis set library.
  Basis set file used for this atomic type with Z =   1 :
     "/zhome/9a/4/124800/source/dalton/build-mlcc/basis/6-311G**"

  Info about the basis set file: your basis has no documentation.
  Basis set: 6-311G**                                                                        


                         SYMGRP: Point group information
                         -------------------------------

@    Point group: C1 


                                 Isotopic Masses
                                 ---------------

                           N          14.003074
                           H           1.007825
                           H           1.007825
                           H           1.007825
                           O          15.994915
                           O          15.994915
                           O          15.994915
                           O          15.994915
                           H           1.007825
                           H           1.007825
                           H           1.007825
                           H           1.007825
                           H           1.007825
                           H           1.007825
                           H           1.007825
                           H           1.007825

                       Total mass:    89.068809 amu
                       Natural abundance:  98.514 %

 Center-of-mass coordinates (a.u.):   -0.554189   -0.495245   -0.430536


  Atoms and basis sets
  --------------------

  Number of atom types :    4
  Total number of atoms:   16

  label    atoms   charge   prim   cont     basis
  ----------------------------------------------------------------------
  N           1    7.0000    31    18      [11s5p1d|4s3p1d]                                   
  H           3    1.0000     8     6      [5s1p|3s1p]                                        
  O           4    8.0000    31    18      [11s5p1d|4s3p1d]                                   
  H           8    1.0000     8     6      [5s1p|3s1p]                                        
  ----------------------------------------------------------------------
  total:     16   50.0000   243   156
  ----------------------------------------------------------------------
  Spherical harmonic basis used.

  Threshold for neglecting AO integrals:  1.00D-12


  Cartesian Coordinates (a.u.)
  ----------------------------

  Total number of coordinates:   48
  N       :     1  x   0.0000000000    2  y   0.0000000000    3  z   0.0000000000
  H       :     4  x  -0.5587882357    5  y   0.5989316878    6  z   1.7251687740
  H       :     7  x  -0.8005957009    8  y  -1.7699458346    9  z  -0.3166576273
  H       :    10  x   1.9871358376   11  y  -0.1870998939   12  z  -0.0307590721
  O       :    13  x  -5.1196857021   14  y  -1.8134889039   15  z   3.5332946352
  O       :    16  x  -0.9688795918   17  y  -4.5264156338   18  z  -3.5691162836
  O       :    19  x  -2.1877151479   20  y   3.3065993098   21  z  -3.4116945385
  O       :    22  x   5.5507454593   23  y   0.7455026255   24  z   1.2231082269
  H       :    25  x  -6.5544281371   26  y  -2.4629084046   27  z   4.5456209204
  H       :    28  x  -5.9557496727   29  y  -0.8213146582   30  z   2.1744095863
  H       :    31  x  -1.2288265381   32  y  -3.9794060610   33  z  -5.3484446084
  H       :    34  x  -2.0531231841   35  y  -6.0965852916   36  z  -3.2581750779
  H       :    37  x  -0.7898337107   38  y   3.0051501984   39  z  -4.5795811886
  H       :    40  x  -1.7023560002   41  y   1.8892045606   42  z  -2.1328375012
  H       :    43  x   6.1244190677   44  y   2.4235850937   45  z   1.5840742626
  H       :    46  x   5.8106791775   47  y  -0.0589027633   48  z   2.8905326397


   Interatomic separations (in Angstrom):
   --------------------------------------

            N           H           H           H           O           O     
            ------      ------      ------      ------      ------      ------
 N     :    0.000000
 H     :    1.010600    0.000000
 H     :    1.041543    1.659889    0.000000
 H     :    1.056323    1.688636    1.703144    0.000000
 O     :    3.428811    2.893147    3.061855    4.294316    0.000000
 O     :    3.093119    3.905414    2.257853    3.350476    4.583830    0.000000
 O     :    2.767923    3.191436    3.230785    3.391115    4.822330    4.195760
 O     :    3.033554    3.244851    3.705673    2.059121    5.933950    5.110440
 H     :    4.417572    3.862541    4.003202    5.267397    0.990712    5.326199
 H     :    3.383159    2.962736    3.071094    4.375064    0.994231    4.477250
 H     :    3.587164    4.472914    2.916913    3.852533    5.257670    0.994628
 H     :    3.815928    4.486995    2.846814    4.155370    4.548240    1.023065
 H     :    2.928571    3.573147    3.387320    3.287456    5.493911    4.022359
 H     :    1.756367    2.236158    2.213774    2.501286    4.012445    3.500621
 H     :    3.584822    3.666802    4.400589    2.726186    6.441679    5.920468
 H     :    3.434464    3.444165    3.992490    2.547199    5.868014    5.490406

            O           O           H           H           H           H     
            ------      ------      ------      ------      ------      ------
 O     :    0.000000
 O     :    4.961989    0.000000
 H     :    5.691405    6.856230    0.000000
 H     :    4.181582    6.165751    1.558684    0.000000
 H     :    4.021619    5.587086    5.999907    4.989742    0.000000
 H     :    4.977124    5.909630    5.140503    4.508017    1.633705    0.000000
 H     :    0.977031    4.702839    6.402815    4.934274    3.725644    4.912623
 H     :    1.042366    4.272198    4.938255    3.509792    3.550024    4.271685
 H     :    5.153137    0.957702    7.359212    6.626523    6.330878    6.754277
 H     :    5.675262    0.989284    6.723143    6.251080    6.098311    6.173473

            H           H           H           H     
            ------      ------      ------      ------
 H     :    0.000000
 H     :    1.502769    0.000000
 H     :    4.911259    4.593776    0.000000
 H     :    5.518631    4.892388    1.493744    0.000000


  Max    interatomic separation is    7.3592 Angstrom (   13.9069 Bohr)
  between atoms   15 and    9, "H     " and "H     ".

  Min HX interatomic separation is    0.9577 Angstrom (    1.8098 Bohr)

  Min YX interatomic separation is    2.7679 Angstrom (    5.2306 Bohr)


  Bond distances (Angstrom):
  --------------------------

                  atom 1     atom 2       distance
                  ------     ------       --------
  bond distance:  H          N            1.010600
  bond distance:  H          N            1.041543
  bond distance:  H          N            1.056323
  bond distance:  H          O            0.990712
  bond distance:  H          O            0.994231
  bond distance:  H          O            0.994628
  bond distance:  H          O            1.023065
  bond distance:  H          O            0.977031
  bond distance:  H          O            1.042366
  bond distance:  H          O            0.957702
  bond distance:  H          O            0.989284


  Bond angles (degrees):
  ----------------------

                  atom 1     atom 2     atom 3         angle
                  ------     ------     ------         -----
  bond angle:     H          N          H            107.959
  bond angle:     H          N          H            109.548
  bond angle:     H          N          H            108.551
  bond angle:     H          O          H            103.488
  bond angle:     H          O          H            108.123
  bond angle:     H          O          H             96.121
  bond angle:     H          O          H            100.195




 Principal moments of inertia (u*A**2) and principal axes
 --------------------------------------------------------

   IA     353.097662          0.947490    0.315391   -0.052838
   IB     494.887053          0.061329   -0.017053    0.997972
   IC     534.211928         -0.313851    0.948808    0.035500


 Rotational constants
 --------------------

               A                   B                   C

           1431.2726           1021.2007            946.0272 MHz
            0.047742            0.034064            0.031556 cm-1


@  Nuclear repulsion energy :  179.868070345308 Hartree


                     .---------------------------------------.
                     | Starting in Integral Section (HERMIT) |
                     `---------------------------------------'



 ***************************************************************************************
 ****************** Output from **INTEGRALS input processing (HERMIT) ******************
 ***************************************************************************************



    *************************************************************************
    ****************** Output from HERMIT input processing ******************
    *************************************************************************


 Default print level:        1

 * Nuclear model: Point charge

 Calculation of one- and two-electron Hamiltonian integrals.

 The following one-electron property integrals are calculated as requested:
          - overlap integrals
          - dipole length integrals

 Center of mass  (bohr):     -0.554188817684     -0.495244844734     -0.430536324641
 Operator center (bohr):      0.000000000000      0.000000000000      0.000000000000
 Gauge origin    (bohr):      0.000000000000      0.000000000000      0.000000000000
 Dipole origin   (bohr):      0.000000000000      0.000000000000      0.000000000000
 
  *********************************** 
  QMMM electrostatic potential: 
  Multipole order                                    0
  Isotropic polarization  
  *********************************** 
 
  ---------------- 
  QMMM information 
  ---------------- 
 
  MM coordinates in au 
  -------------------- 
     1      7.983602      7.117359     -8.601602
     2      8.627034      6.574064    -10.278037
     3      6.130137      7.595251     -8.433028
     4     -8.069066     -9.483899      6.343000
     5     -7.340571    -11.124513      6.516840
     6     -8.239006     -8.917391      8.216754
     7     -9.242715     -6.902990     11.448709
     8     -8.542885     -7.470853     13.170170
     9    -11.100813     -6.500626     11.554458
    10     10.632816      6.239764     10.652314
    11     12.368579      6.413853     11.265075
    12     10.584039      4.661637      9.673147
    13      8.566240      4.600247     -4.339303
    14      8.081389      6.112170     -3.382957
    15      8.373788      5.424330     -5.954036
    16     -1.478650     -9.412565     -8.807889
    17     -3.206085     -8.589478     -8.750509
    18     -1.516853    -10.367363    -10.497311
    19      6.287191     -9.368463     -9.783590
    20      6.656137     -8.861891     -8.034770
    21      5.027824     -8.091533    -10.289343
    22    -10.518087      3.302572     -3.673408
    23    -12.216915      3.834613     -4.050738
    24    -10.121413      2.209288     -5.070048
    25     -8.247060     -3.394317     -4.998188
    26     -7.153804     -2.406126     -3.863970
    27     -9.803506     -3.814380     -3.784224
    28     -4.032649     -8.722488     -2.773644
    29     -2.811939     -9.918908     -1.884888
    30     -5.139838     -7.926207     -1.408188
    31     -5.704529      1.604950     11.471170
    32     -5.070885      3.013293     12.627025
    33     -4.495154      0.988134     10.176644
    34     10.185475     -0.831899     -0.179645
    35     11.296972      0.468371     -1.246136
    36      8.579113      0.038307      0.086614
    37    -11.290242      7.212304      3.097991
    38    -11.769488      8.927233      3.817560
    39    -10.372966      7.777412      1.468081
    40      4.986836      4.997390      7.535153
    41      5.539719      4.963381      5.716433
    42      6.121687      3.648882      8.149695
    43     -1.195575     -2.105200     -9.156927
    44      0.245938     -3.201474     -9.528721
    45     -2.413290     -2.460030    -10.458958
    46     -8.431416      8.230390    -11.036524
    47     -7.362741      7.189915     -9.920013
    48     -9.484184      9.504077    -10.192784
    49     -8.072861      3.559061      4.607659
    50     -9.140770      4.986917      4.342963
    51     -6.798481      4.404581      5.750112
    52      9.388365     -6.124778     11.258603
    53      9.310191     -4.298258     11.889756
    54      8.429781     -7.120945     12.495498
    55     -1.716191    -10.962759      9.843634
    56     -0.232639    -12.037633      9.234870
    57     -1.667526     -9.244894      8.920503
    58      8.772175     11.392014      9.585201
    59      9.394743      9.702854     10.113614
    60      8.754457     12.398225     11.220413
    61      0.256052      6.233946    -10.910407
    62      1.597818      7.600671    -10.593967
    63      0.909606      4.745743    -10.019744
    64      6.059696     -8.104981     -4.543079
    65      5.539496     -6.321939     -4.071795
    66      7.217340     -8.826374     -3.232193
    67      3.716090      9.991572      2.864530
    68      1.997469      9.835913      1.944891
    69      3.501895     10.353407      4.626335
    70      2.520513     -6.381887    -10.615896
    71      0.955005     -7.447596    -10.394735
    72      2.255012     -5.657515    -12.388154
    73     -4.317697      5.452228     -8.829124
    74     -3.696382      4.969375     -7.139956
    75     -2.605339      6.049620     -9.627797
    76     -6.635261      0.443082     -1.518867
    77     -7.988330      1.588479     -1.870254
    78     -5.023497      1.044593     -2.233681
    79      4.856895     -5.682569      2.947595
    80      5.442891     -4.235764      3.788969
    81      6.373207     -6.530107      2.176613
    82      3.808974      9.441659     -8.775540
    83      3.026510     10.040022     -7.189352
    84      4.237259     11.120878     -9.528655
    85      6.124147     -1.532468      6.063118
    86      7.235614     -0.418145      7.227656
    87      4.495182     -1.965026      6.816201
    88      1.294988      2.517890     -7.486411
    89      0.308912      1.131508     -8.237086
    90      3.029327      1.731256     -7.338402
    91    -10.768693    -10.710781     -3.863808
    92    -10.573862     -8.866967     -3.517689
    93     -9.442791    -11.530757     -2.933565
    94      6.857376      5.737666      3.090161
    95      6.023230      7.394050      2.724775
    96      8.762350      6.152659      2.958236
    97      4.039913     -3.649670     -3.220269
    98      2.178229     -3.540833     -3.457813
    99      4.513276     -2.959725     -1.549403
   100      1.629267    -11.166749     -4.871111
   101      0.405932    -10.528261     -6.201834
   102      3.095379     -9.995351     -4.870712
   103     -5.191155     -3.821047     10.185374
   104     -6.519521     -4.963133     10.770636
   105     -5.935841     -2.125316      9.965841
   106    -10.015363      0.394318     -8.393564
   107     -8.501887      0.750499     -9.295448
   108     -9.262362     -1.101533     -7.197288
   109     -0.285910     -6.982884      2.186982
   110      1.613836     -6.670646      2.201041
   111     -0.571387     -8.737461      2.385981
   112      1.653890     -2.788986      8.543108
   113      0.350032     -1.426301      8.409688
   114      0.727977     -4.241451      7.915944
   115     -6.224815     -7.806135     -7.592334
   116     -6.680756     -6.168631     -6.784960
   117     -5.980877     -9.013663     -6.121925
   118     -8.640742      8.291126     -1.392273
   119     -9.024733      6.572398     -2.239957
   120     -6.867163      7.937222     -0.912099
   121      8.909254     -8.420933      0.953737
   122     10.294944     -7.170156      0.384546
   123      9.469423     -9.303828      2.593245
   124     -0.617723     11.399850     -0.236900
   125     -1.317186      9.754899     -0.650310
   126      0.339945     11.822234     -1.696770
   127      7.654336      9.488895     -1.858863
   128      6.673551     10.267328     -0.493307
   129      9.136255     10.620864     -2.227862
   130     -3.393385      7.166577     -0.396852
   131     -2.770480      5.764685     -1.391245
   132     -3.264290      6.944315      1.457002
   133      0.113992      4.475520      7.449761
   134     -0.042925      5.190314      9.163530
   135      2.047216      4.213617      7.259381
   136     10.650026    -10.965270      4.972123
   137     12.239612    -10.280492      5.434130
   138     10.039797    -11.235153      6.763275
   139     -2.914904      7.415488      4.407312
   140     -1.799703      6.110628      4.862723
   141     -3.804408      8.053236      5.959478
   142      5.745204      0.329510     -6.129952
   143      5.343352     -1.132292     -4.941195
   144      6.770715      1.614255     -5.133052
   145    -10.612927     -0.752789      4.846775
   146     -9.636071      0.896890      4.964065
   147    -11.677205     -0.333699      3.326782
   148    -11.667908     11.385097     -8.832827
   149    -11.262560     12.096037     -7.237912
   150    -12.942390     10.110235     -8.552598
   151     -6.774674     -6.879070      1.719908
   152     -5.682599     -5.459396      1.996074
   153     -7.270300     -7.612389      3.344044
   154      8.935842     -1.516216    -10.118924
   155     10.546701     -0.707793     -9.449810
   156      7.712520     -0.875300     -8.816309
   157      9.703337      1.224038      8.482011
   158     11.008146      0.449668      7.341994
   159      9.958350      0.381046     10.196144
   160     -1.597877     -6.701462      7.365618
   161     -2.991671     -5.436468      7.796980
   162     -1.275170     -6.821416      5.442632
   163     -5.778405      9.369581      8.345511
   164     -6.837532      9.005700      9.889007
   165     -4.539706     10.586673      8.916934
   166     -2.474379      0.274917      7.533707
   167     -1.707619      1.992317      7.356383
   168     -3.148486     -0.384794      6.040054
   169      3.238896     10.120258      8.539104
   170      4.521542     11.545951      8.614723
   171      4.513420      8.712938      8.547018
   172      5.483503     -7.560881      8.010086
   173      5.320426     -7.171344      6.200171
   174      7.034942     -6.648083      8.459741
   175    -10.855785     -5.676505     -0.854377
   176     -9.176773     -5.718600     -0.029886
   177    -11.732964     -4.118448     -0.484688
 
  MM charges 
  ---------- 
     1     -0.674440
     2      0.337220
     3      0.337220
     4     -0.674440
     5      0.337220
     6      0.337220
     7     -0.674440
     8      0.337220
     9      0.337220
    10     -0.674440
    11      0.337220
    12      0.337220
    13     -0.674440
    14      0.337220
    15      0.337220
    16     -0.674440
    17      0.337220
    18      0.337220
    19     -0.674440
    20      0.337220
    21      0.337220
    22     -0.674440
    23      0.337220
    24      0.337220
    25     -0.674440
    26      0.337220
    27      0.337220
    28     -0.674440
    29      0.337220
    30      0.337220
    31     -0.674440
    32      0.337220
    33      0.337220
    34     -0.674440
    35      0.337220
    36      0.337220
    37     -0.674440
    38      0.337220
    39      0.337220
    40     -0.674440
    41      0.337220
    42      0.337220
    43     -0.674440
    44      0.337220
    45      0.337220
    46     -0.674440
    47      0.337220
    48      0.337220
    49     -0.674440
    50      0.337220
    51      0.337220
    52     -0.674440
    53      0.337220
    54      0.337220
    55     -0.674440
    56      0.337220
    57      0.337220
    58     -0.674440
    59      0.337220
    60      0.337220
    61     -0.674440
    62      0.337220
    63      0.337220
    64     -0.674440
    65      0.337220
    66      0.337220
    67     -0.674440
    68      0.337220
    69      0.337220
    70     -0.674440
    71      0.337220
    72      0.337220
    73     -0.674440
    74      0.337220
    75      0.337220
    76     -0.674440
    77      0.337220
    78      0.337220
    79     -0.674440
    80      0.337220
    81      0.337220
    82     -0.674440
    83      0.337220
    84      0.337220
    85     -0.674440
    86      0.337220
    87      0.337220
    88     -0.674440
    89      0.337220
    90      0.337220
    91     -0.674440
    92      0.337220
    93      0.337220
    94     -0.674440
    95      0.337220
    96      0.337220
    97     -0.674440
    98      0.337220
    99      0.337220
   100     -0.674440
   101      0.337220
   102      0.337220
   103     -0.674440
   104      0.337220
   105      0.337220
   106     -0.674440
   107      0.337220
   108      0.337220
   109     -0.674440
   110      0.337220
   111      0.337220
   112     -0.674440
   113      0.337220
   114      0.337220
   115     -0.674440
   116      0.337220
   117      0.337220
   118     -0.674440
   119      0.337220
   120      0.337220
   121     -0.674440
   122      0.337220
   123      0.337220
   124     -0.674440
   125      0.337220
   126      0.337220
   127     -0.674440
   128      0.337220
   129      0.337220
   130     -0.674440
   131      0.337220
   132      0.337220
   133     -0.674440
   134      0.337220
   135      0.337220
   136     -0.674440
   137      0.337220
   138      0.337220
   139     -0.674440
   140      0.337220
   141      0.337220
   142     -0.674440
   143      0.337220
   144      0.337220
   145     -0.674440
   146      0.337220
   147      0.337220
   148     -0.674440
   149      0.337220
   150      0.337220
   151     -0.674440
   152      0.337220
   153      0.337220
   154     -0.674440
   155      0.337220
   156      0.337220
   157     -0.674440
   158      0.337220
   159      0.337220
   160     -0.674440
   161      0.337220
   162      0.337220
   163     -0.674440
   164      0.337220
   165      0.337220
   166     -0.674440
   167      0.337220
   168      0.337220
   169     -0.674440
   170      0.337220
   171      0.337220
   172     -0.674440
   173      0.337220
   174      0.337220
   175     -0.674440
   176      0.337220
   177      0.337220
 
  MM isotropic polarizabilities in au 
  ----------------------------------- 
     1      5.739350
     2      2.308390
     3      2.308390
     4      5.739350
     5      2.308390
     6      2.308390
     7      5.739350
     8      2.308390
     9      2.308390
    10      5.739350
    11      2.308390
    12      2.308390
    13      5.739350
    14      2.308390
    15      2.308390
    16      5.739350
    17      2.308390
    18      2.308390
    19      5.739350
    20      2.308390
    21      2.308390
    22      5.739350
    23      2.308390
    24      2.308390
    25      5.739350
    26      2.308390
    27      2.308390
    28      5.739350
    29      2.308390
    30      2.308390
    31      5.739350
    32      2.308390
    33      2.308390
    34      5.739350
    35      2.308390
    36      2.308390
    37      5.739350
    38      2.308390
    39      2.308390
    40      5.739350
    41      2.308390
    42      2.308390
    43      5.739350
    44      2.308390
    45      2.308390
    46      5.739350
    47      2.308390
    48      2.308390
    49      5.739350
    50      2.308390
    51      2.308390
    52      5.739350
    53      2.308390
    54      2.308390
    55      5.739350
    56      2.308390
    57      2.308390
    58      5.739350
    59      2.308390
    60      2.308390
    61      5.739350
    62      2.308390
    63      2.308390
    64      5.739350
    65      2.308390
    66      2.308390
    67      5.739350
    68      2.308390
    69      2.308390
    70      5.739350
    71      2.308390
    72      2.308390
    73      5.739350
    74      2.308390
    75      2.308390
    76      5.739350
    77      2.308390
    78      2.308390
    79      5.739350
    80      2.308390
    81      2.308390
    82      5.739350
    83      2.308390
    84      2.308390
    85      5.739350
    86      2.308390
    87      2.308390
    88      5.739350
    89      2.308390
    90      2.308390
    91      5.739350
    92      2.308390
    93      2.308390
    94      5.739350
    95      2.308390
    96      2.308390
    97      5.739350
    98      2.308390
    99      2.308390
   100      5.739350
   101      2.308390
   102      2.308390
   103      5.739350
   104      2.308390
   105      2.308390
   106      5.739350
   107      2.308390
   108      2.308390
   109      5.739350
   110      2.308390
   111      2.308390
   112      5.739350
   113      2.308390
   114      2.308390
   115      5.739350
   116      2.308390
   117      2.308390
   118      5.739350
   119      2.308390
   120      2.308390
   121      5.739350
   122      2.308390
   123      2.308390
   124      5.739350
   125      2.308390
   126      2.308390
   127      5.739350
   128      2.308390
   129      2.308390
   130      5.739350
   131      2.308390
   132      2.308390
   133      5.739350
   134      2.308390
   135      2.308390
   136      5.739350
   137      2.308390
   138      2.308390
   139      5.739350
   140      2.308390
   141      2.308390
   142      5.739350
   143      2.308390
   144      2.308390
   145      5.739350
   146      2.308390
   147      2.308390
   148      5.739350
   149      2.308390
   150      2.308390
   151      5.739350
   152      2.308390
   153      2.308390
   154      5.739350
   155      2.308390
   156      2.308390
   157      5.739350
   158      2.308390
   159      2.308390
   160      5.739350
   161      2.308390
   162      2.308390
   163      5.739350
   164      2.308390
   165      2.308390
   166      5.739350
   167      2.308390
   168      2.308390
   169      5.739350
   170      2.308390
   171      2.308390
   172      5.739350
   173      2.308390
   174      2.308390
   175      5.739350
   176      2.308390
   177      2.308390


     ************************************************************************
     ************************** Output from HERINT **************************
     ************************************************************************



                      Nuclear contribution to dipole moments
                      --------------------------------------

                 au               Debye          C m (/(10**-30)

      x    -27.52574696       -69.96346570      -233.37300132
      y    -25.76171219       -65.47973683      -218.41689169
      z    -20.54191257       -52.21233044      -174.16158760


  Time used in HUCKEL     is       0.49 seconds
  Time used in OVERLAP    is       0.14 seconds
  Time used in POPOVLP    is       0.22 seconds
  Time used in DIPLEN     is       1.48 seconds
  Time used in QUADRUP    is       0.60 seconds
  Time used in KINENE     is       0.26 seconds

 Threshold for neglecting two-electron integrals:  1.00D-12
 HERMIT - Number of two-electron integrals written:    27318469 ( 36.4% )
 HERMIT - Megabytes written:                            312.810

  Time used in TWOINT     is      14.75 seconds
  Total CPU  time used in HERMIT:  18.00 seconds
  Total wall time used in HERMIT:   6.29 seconds


                        .----------------------------------.
                        | End of Integral Section (HERMIT) |
                        `----------------------------------'



                   .--------------------------------------------.
                   | Starting in Wave Function Section (SIRIUS) |
                   `--------------------------------------------'

NCCEXCI for singlet:   15
 CCSD_INPUT: core-val requested
 Requested number of core orbs per sym
                     1
 Indices of requested core orbs
                     1

 *** Output from Huckel module :

     Using EWMO model:          T
     Using EHT  model:          F
     Number of Huckel orbitals each symmetry:   36

 EWMO - Energy Weighted Maximum Overlap - is a Huckel type method,
        which normally is better than Extended Huckel Theory.
 Reference: Linderberg and Ohrn, Propagators in Quantum Chemistry (Wiley, 1973)

 Huckel EWMO eigenvalues for symmetry :  1
          -20.684759     -20.684444     -20.684285     -20.684195     -15.673486
           -1.703018      -1.611513      -1.588643      -1.575486      -1.449928
           -0.806710      -0.787628      -0.772623      -0.765017      -0.755670
           -0.735708      -0.713894      -0.691030      -0.665218      -0.657406
           -0.616016      -0.613939      -0.610680      -0.587077      -0.508098
           -0.257070      -0.244280      -0.238457      -0.225175      -0.183899
           -0.183174      -0.179499      -0.173461      -0.164553      -0.151730
           -0.148034

 **********************************************************************
 *SIRIUS* a direct, restricted step, second order MCSCF program       *
 **********************************************************************

 
     Date and time (Linux)  : Mon Dec 31 21:42:46 2018
     Host name              : n-62-29-7                               

 Title lines from ".mol" input file:
                                                                             
                                                                             

 Print level on unit LUPRI =   2 is   0
 Print level on unit LUW4  =   2 is  11

@    (Integral direct) CC calculation.

@    This is a combination run starting with
@              a restricted, closed shell Hartree-Fock calculation


 Initial molecular orbitals are obtained according to
 ".MOSTART EWMO  " input option

@    QM part is embedded in an environment :

@         Model: QMMM

     Wave function specification
     ============================

     For the specification of the Coupled Cluster: see later.

@    Wave function type        --- CC ---
@    Number of closed shell electrons          50
@    Number of electrons in active shells       0
@    Total charge of the molecule               0

@    Spin multiplicity and 2 M_S                1         0
@    Total number of symmetries                 1 (point group: C1 )
@    Reference state symmetry                   1 (irrep name : A  )

     Orbital specifications
     ======================
@    Abelian symmetry species          All |    1
@                                          |  A  
                                       --- |  ---
@    Occupied SCF orbitals              25 |   25
@    Secondary orbitals                131 |  131
@    Total number of orbitals          156 |  156
@    Number of basis functions         156 |  156

     Optimization information
     ========================
@    Number of configurations                 1
@    Number of orbital rotations           3275
     ------------------------------------------
@    Total number of variables             3276

     Maximum number of Fock   iterations      0
     Maximum number of DIIS   iterations     60
     Maximum number of QC-SCF iterations     60
     Threshold for SCF convergence     1.00D-07


 Changes of defaults for CC:
 ---------------------------


 -Implicit frozen core calculation
 -Excitation energies calculated
 -One-photon absorption strengths will be calculated
 -Oscillator strengths calculated
  
* Read MO coefficients from SIRIUS.RST with label "NEWORB  " and header info: 31Dec18  REORTHO 


 ***********************************************
 ***** DIIS acceleration of SCF iterations *****
 ***********************************************

 C1-DIIS algorithm; max error vectors =    8
 -----------------------------------------------------------------------------

 *** DIIS iteration number    1
 RDSUPM called. NFMAT, ISYMDM(1:NFMAT)                     1
                     1

Calculating AOSUPINT
     (Precalculated two-electron integrals are transformed to P-supermatrix elements.
      Threshold for discarding integrals :  1.00D-12 )
  CPU  time used in FORMSUP    is   6.33 seconds
  WALL time used in FORMSUP    is   9.73 seconds

 ITDIIS, energy, error norm, change in energy, scr.thr., difden:
@ DIIS iter.   1    -359.926638379        3.79889D+00   -3.60D+02  -20    F

 (DIIS_RED) Control Parameters C2DIIS =         F NEVC =    1


 (DIIS_RED) B matrix:

               Column   1
       1      14.43156677
    ==== End of matrix output ====

 DIIS C vector; C2DIIS = F, LAMBDA = -1.44D+01
    1.000000
* Read MO coefficients from SIRIUS.RST with label "NEWORB  " and header info: 31Dec18  DIIS   1
      Virial theorem: -V/T =      1.998284
@      MULPOP N      -0.34; H       0.16; H       0.15; H       0.15; O      -0.63; O      -0.61; O      -0.86; O      -0.61; H       0.31; H       0.33; 
@             H       0.32; H       0.32; H       0.33; H       0.33; H       0.32; H       0.33; 
   1  Level shift: doubly occupied orbital energies shifted by -2.00D-01

 DIIS Fock eigenvalues in symmetry 1
      -20.75884      -20.72568      -20.71256      -20.52952      -15.98793
       -1.59090       -1.55074       -1.52639       -1.46658       -1.43379
       -0.95906       -0.95027       -0.93787       -0.92819       -0.91299
       -0.86154       -0.82756       -0.79928       -0.78772       -0.78166
       -0.77025       -0.75874       -0.73719       -0.69498       -0.66022
        0.09716        0.13389        0.15022        0.18437        0.21184
        0.22698        0.23243        0.24177        0.26921        0.28649
        0.33112        0.42299        0.43487        0.47383        0.50435
        0.53569        0.54815        0.56249        0.57161        0.57997
        0.59522        0.65158        0.80626        0.83283        0.85058
        0.95626        0.96662        0.97333        0.99734        1.00760
        1.01946        1.05623        1.05910        1.07781        1.08807
        1.12188        1.17475        1.21318        1.23838        1.27692
        1.30477        1.35161        1.36274        1.37351        1.38603
        1.43731        1.44536        1.45363        1.45691        1.51750
        1.53921        1.59118        1.61479        1.64312        1.65161
        1.69968        1.76536        1.78253        1.80687        1.84953
        1.85753        1.86428        1.91406        1.99234        2.07867
        2.13950        2.15752        2.16026        2.17351        2.27582
        2.29189        2.29821        2.31067        2.38470        2.45918
        2.53108        2.53480        2.58210        2.60110        2.64637
        2.69459        2.73326        2.76153        2.77593        2.83384
        2.84201        2.86612        2.91483        3.07836        3.26529
        3.29390        3.39723        3.41659        3.42097        3.45593
        3.46224        3.47845        3.51606        3.55692        3.60398
        3.62363        3.63131        3.70558        3.91270        3.94029
        3.97153        3.98659        4.15239        4.19377        4.20007
        4.23455        4.43521        4.96918        5.01866        5.29672
        5.30461        5.33524        5.43773        5.70534        5.74043
        5.80713        5.86599        6.04388        6.04686        6.04783
        6.15235       36.75067       51.52691       51.53431       51.53946
       51.75875
 Time used in FCKEIG, thr_jaco:   4.72D-01  4.80D-02  1.66D-04
 CPU and wall times used in FCKEIG, THR_FCKEIG:   4.73D-01  4.80D-02  3.80D-02
 -----------------------------------------------------------------------------

 *** DIIS iteration number    2
 RDSUPM called. NFMAT, ISYMDM(1:NFMAT)                     1
                     1

 ITDIIS, energy, error norm, change in energy, scr.thr., difden:
@ DIIS iter.   2    -360.714378105        9.41365D-01   -7.88D-01  -20    F

 (DIIS_RED) Control Parameters C2DIIS =         F NEVC =    2


 (DIIS_RED) B matrix:

               Column   1     Column   2
       1      14.43156677
       2       0.80268008     0.88616864
    ==== End of matrix output ====

 DIIS C vector; C2DIIS = F, LAMBDA = -8.86D-01
    0.006089    0.993911
* Read MO coefficients from SIRIUS.RST with label "NEWORB  " and header info: 31Dec18  DIIS   2
      Virial theorem: -V/T =      2.004526
@      MULPOP N      -0.67; H       0.22; H       0.25; H       0.23; O      -0.57; O      -0.58; O      -0.64; O      -0.55; H       0.28; H       0.31; 
@             H       0.28; H       0.33; H       0.26; H       0.28; H       0.28; H       0.30; 
   2  Level shift: doubly occupied orbital energies shifted by -5.00D-02

 DIIS Fock eigenvalues in symmetry 1
      -20.68258      -20.64787      -20.63587      -20.62548      -15.49202
       -1.42298       -1.39326       -1.38857       -1.37218       -1.15510
       -0.77367       -0.75376       -0.74068       -0.73356       -0.69038
       -0.67144       -0.66286       -0.65171       -0.64384       -0.62261
       -0.59815       -0.58822       -0.58255       -0.56666       -0.46266
        0.13771        0.16493        0.17652        0.21723        0.23440
        0.24794        0.25585        0.26871        0.28878        0.33224
        0.34777        0.47242        0.49733        0.51654        0.53968
        0.57434        0.59198        0.59907        0.61355        0.61575
        0.64108        0.68748        0.88869        0.90732        0.90970
        0.96448        0.98266        0.99826        1.01327        1.03062
        1.04633        1.07869        1.08883        1.09929        1.10515
        1.13756        1.15625        1.26883        1.30938        1.32016
        1.35763        1.40076        1.40809        1.41975        1.42777
        1.48474        1.50755        1.51372        1.51526        1.53802
        1.58623        1.61439        1.66842        1.68246        1.70245
        1.75480        1.83651        1.85947        1.86850        1.91162
        1.93175        1.93357        1.98881        2.04880        2.18869
        2.19767        2.21052        2.21725        2.26459        2.31593
        2.33594        2.35404        2.38047        2.49258        2.51145
        2.59545        2.60443        2.63522        2.65534        2.72901
        2.77349        2.80546        2.82492        2.84378        2.89851
        2.98368        3.00376        3.02285        3.20233        3.41023
        3.42585        3.43725        3.44618        3.45172        3.47917
        3.48139        3.48378        3.48995        3.49960        3.62625
        3.64378        3.64888        3.66468        3.91903        3.94261
        3.96037        3.98983        4.16934        4.20882        4.21445
        4.23111        4.58487        5.18358        5.23403        5.28496
        5.29309        5.31505        5.33266        5.69927        5.71939
        5.74626        5.81728        6.02874        6.05579        6.05971
        6.07443       37.09055       51.45891       51.47797       51.48056
       51.49092
 Time used in FCKEIG, thr_jaco:   3.07D-01  3.00D-02  4.11D-05
 CPU and wall times used in FCKEIG, THR_FCKEIG:   3.07D-01  3.00D-02  9.41D-03
 -----------------------------------------------------------------------------

 *** DIIS iteration number    3
 RDSUPM called. NFMAT, ISYMDM(1:NFMAT)                     1
                     1

 ITDIIS, energy, error norm, change in energy, scr.thr., difden:
@ DIIS iter.   3    -360.773891425        3.57593D-01   -5.95D-02  -20    F

 (DIIS_RED) Control Parameters C2DIIS =         F NEVC =    3


 (DIIS_RED) B matrix:

               Column   1     Column   2     Column   3
       1      14.43156677
       2       0.80268008     0.88616864
       3       0.64552327     0.03725960     0.12787275
    ==== End of matrix output ====

 DIIS C vector; C2DIIS = F, LAMBDA = -9.69D-02
   -0.041017    0.107263    0.933754
* Read MO coefficients from SIRIUS.RST with label "NEWORB  " and header info: 31Dec18  DIIS   3
      Virial theorem: -V/T =      2.002114
@      MULPOP N      -0.60; H       0.19; H       0.23; H       0.21; O      -0.62; O      -0.64; O      -0.74; O      -0.61; H       0.30; H       0.33; 
@             H       0.30; H       0.36; H       0.32; H       0.33; H       0.31; H       0.33; 
   3  Level shift: doubly occupied orbital energies shifted by -2.50D-02

 DIIS Fock eigenvalues in symmetry 1
      -20.59015      -20.57724      -20.56243      -20.51046      -15.59523
       -1.38417       -1.35552       -1.33259       -1.31591       -1.16365
       -0.73314       -0.71465       -0.70069       -0.67761       -0.66409
       -0.65938       -0.62052       -0.60639       -0.59674       -0.58406
       -0.55592       -0.54131       -0.51976       -0.50224       -0.45570
        0.14143        0.16914        0.18039        0.22071        0.23807
        0.25166        0.25892        0.27150        0.29284        0.33375
        0.35439        0.47534        0.49819        0.52832        0.55034
        0.58129        0.59876        0.60619        0.62098        0.62334
        0.64785        0.69607        0.88983        0.90552        0.91284
        0.98629        1.00440        1.01321        1.02281        1.03137
        1.05389        1.08958        1.10232        1.11053        1.11620
        1.15809        1.17348        1.27108        1.32115        1.32171
        1.36050        1.41078        1.41261        1.43025        1.43841
        1.49491        1.51879        1.52511        1.52615        1.55431
        1.59676        1.63024        1.67748        1.69494        1.71217
        1.76350        1.84158        1.86316        1.87579        1.92009
        1.93675        1.94208        1.99267        2.05681        2.17987
        2.21093        2.22139        2.22936        2.25642        2.33801
        2.35070        2.36682        2.39467        2.49225        2.52878
        2.60542        2.61374        2.64638        2.66570        2.73458
        2.77853        2.81425        2.83247        2.85145        2.90782
        2.96181        2.98702        3.01470        3.18637        3.40153
        3.43024        3.44116        3.45766        3.47184        3.50210
        3.50360        3.51198        3.52039        3.53878        3.64987
        3.66893        3.68634        3.69683        3.96289        3.97354
        3.98005        4.01099        4.19403        4.23470        4.24878
        4.26100        4.53907        5.13254        5.18476        5.31756
        5.33723        5.35644        5.37733        5.72500        5.75893
        5.81457        5.84200        6.08154        6.08409        6.09934
        6.11206       36.96631       51.51019       51.51692       51.52386
       51.60782
 Time used in FCKEIG, thr_jaco:   2.87D-01  2.80D-02  1.56D-05
 CPU and wall times used in FCKEIG, THR_FCKEIG:   2.87D-01  2.80D-02  3.58D-03
 -----------------------------------------------------------------------------

 *** DIIS iteration number    4
 RDSUPM called. NFMAT, ISYMDM(1:NFMAT)                     1
                     1

 ITDIIS, energy, error norm, change in energy, scr.thr., difden:
@ DIIS iter.   4    -360.782261675        1.19840D-01   -8.37D-03  -20    F

 (DIIS_RED) Control Parameters C2DIIS =         F NEVC =    4


 (DIIS_RED) B matrix:

               Column   1     Column   2     Column   3     Column   4
       1      14.43156677
       2       0.80268008     0.88616864
       3       0.64552327     0.03725960     0.12787275
       4      -0.00740688     0.08673753    -0.01148915     0.01436173
    ==== End of matrix output ====

 DIIS C vector; C2DIIS = F, LAMBDA = -3.80D-03
   -0.000487   -0.094341    0.144980    0.949848
* Read MO coefficients from SIRIUS.RST with label "NEWORB  " and header info: 31Dec18  DIIS   4
      Virial theorem: -V/T =      2.003112
@      MULPOP N      -0.67; H       0.21; H       0.25; H       0.23; O      -0.63; O      -0.65; O      -0.71; O      -0.62; H       0.30; H       0.34; 
@             H       0.30; H       0.37; H       0.32; H       0.32; H       0.31; H       0.33; 
   4  Level shift: doubly occupied orbital energies shifted by -1.25D-02

 DIIS Fock eigenvalues in symmetry 1
      -20.58581      -20.57256      -20.55955      -20.53906      -15.54892
       -1.37499       -1.34659       -1.32380       -1.31658       -1.13916
       -0.72288       -0.70459       -0.69107       -0.66856       -0.64718
       -0.63928       -0.60578       -0.59518       -0.59222       -0.57210
       -0.54192       -0.52839       -0.50716       -0.49942       -0.43272
        0.14235        0.16838        0.17957        0.22096        0.23801
        0.25172        0.25999        0.27248        0.29357        0.33717
        0.35529        0.47936        0.50294        0.52905        0.55019
        0.58129        0.59866        0.60558        0.62005        0.62237
        0.64869        0.69680        0.89522        0.91177        0.91685
        0.98526        1.00306        1.01217        1.02364        1.03550
        1.05505        1.08971        1.10145        1.11003        1.11567
        1.15526        1.16920        1.27347        1.31938        1.32654
        1.36395        1.41284        1.41561        1.43010        1.43873
        1.49346        1.51694        1.52318        1.52419        1.55234
        1.59583        1.62719        1.67756        1.69424        1.71043
        1.76347        1.84546        1.86678        1.87641        1.91855
        1.94087        1.94123        1.99698        2.05881        2.18869
        2.20874        2.21937        2.22690        2.26492        2.33252
        2.34738        2.36413        2.39213        2.49930        2.52905
        2.60348        2.61318        2.64503        2.66411        2.73931
        2.78197        2.81330        2.83130        2.85226        2.90890
        2.97411        2.99830        3.02204        3.19639        3.41389
        3.43770        3.44545        3.45589        3.46972        3.49649
        3.50125        3.50841        3.51816        3.52552        3.64761
        3.66707        3.68458        3.68554        3.96048        3.96222
        3.97767        4.00844        4.19150        4.23277        4.24445
        4.25522        4.55432        5.15125        5.20317        5.31390
        5.33272        5.34842        5.35997        5.72130        5.75361
        5.79574        5.83869        6.07691        6.07850        6.09189
        6.09565       36.99959       51.50235       51.50761       51.51594
       51.56771
 Time used in FCKEIG, thr_jaco:   2.91D-01  2.90D-02  5.24D-06
 CPU and wall times used in FCKEIG, THR_FCKEIG:   2.91D-01  2.90D-02  1.20D-03
 -----------------------------------------------------------------------------

 *** DIIS iteration number    5
 RDSUPM called. NFMAT, ISYMDM(1:NFMAT)                     1
                     1

 ITDIIS, energy, error norm, change in energy, scr.thr., difden:
@ DIIS iter.   5    -360.783422833        2.34785D-02   -1.16D-03  -20    F

 (DIIS_RED) Control Parameters C2DIIS =         F NEVC =    5


 (DIIS_RED) B matrix:

               Column   1     Column   2     Column   3     Column   4     Column   5
       1      14.43156677
       2       0.80268008     0.88616864
       3       0.64552327     0.03725960     0.12787275
       4      -0.00740688     0.08673753    -0.01148915     0.01436173
       5       0.01217974     0.00604145     0.00477182     0.00084552     0.00055124
    ==== End of matrix output ====

 DIIS C vector; C2DIIS = F, LAMBDA = -2.86D-04
    0.001410    0.009557   -0.067869   -0.163232    1.220134
* Read MO coefficients from SIRIUS.RST with label "NEWORB  " and header info: 31Dec18  DIIS   5
      Virial theorem: -V/T =      2.002740
@      MULPOP N      -0.67; H       0.20; H       0.25; H       0.23; O      -0.64; O      -0.66; O      -0.73; O      -0.63; H       0.31; H       0.34; 
@             H       0.31; H       0.38; H       0.33; H       0.33; H       0.32; H       0.34; 

 DIIS Fock eigenvalues in symmetry 1
      -20.57193      -20.55969      -20.54577      -20.52085      -15.53262
       -1.36201       -1.33395       -1.31092       -1.30186       -1.12561
       -0.71032       -0.69231       -0.67873       -0.65481       -0.63421
       -0.62616       -0.59313       -0.58278       -0.57826       -0.55950
       -0.52817       -0.51486       -0.49350       -0.48400       -0.41844
        0.14236        0.16814        0.17933        0.22096        0.23807
        0.25166        0.26006        0.27244        0.29362        0.33740
        0.35568        0.47964        0.50320        0.52942        0.55030
        0.58113        0.59841        0.60538        0.61981        0.62221
        0.64885        0.69721        0.89616        0.91246        0.91777
        0.98619        1.00431        1.01334        1.02421        1.03607
        1.05533        1.08977        1.10170        1.11020        1.11573
        1.15577        1.16970        1.27389        1.31949        1.32704
        1.36440        1.41326        1.41601        1.43009        1.43915
        1.49310        1.51650        1.52274        1.52376        1.55286
        1.59562        1.62766        1.67738        1.69454        1.70997
        1.76322        1.84569        1.86683        1.87611        1.91794
        1.94063        1.94140        1.99726        2.05892        2.18918
        2.20834        2.21881        2.22630        2.26540        2.33274
        2.34709        2.36361        2.39190        2.49970        2.52969
        2.60284        2.61287        2.64471        2.66359        2.73949
        2.78174        2.81272        2.83052        2.85177        2.90886
        2.97495        2.99911        3.02277        3.19711        3.41498
        3.43833        3.44666        3.45606        3.47022        3.49795
        3.50135        3.50907        3.51842        3.52771        3.64792
        3.66709        3.68501        3.68738        3.96109        3.96417
        3.97766        4.00862        4.19190        4.23284        4.24579
        4.25635        4.55638        5.15293        5.20488        5.31431
        5.33389        5.35031        5.36227        5.72154        5.75433
        5.79864        5.83928        6.07699        6.07900        6.09410
        6.09648       37.00331       51.50279       51.50886       51.51728
       51.57328
 Time used in FCKEIG, thr_jaco:   3.32D-01  3.40D-02  1.03D-06
 CPU and wall times used in FCKEIG, THR_FCKEIG:   3.33D-01  3.40D-02  2.35D-04
 -----------------------------------------------------------------------------

 *** DIIS iteration number    6
 RDSUPM called. NFMAT, ISYMDM(1:NFMAT)                     1
                     1

 ITDIIS, energy, error norm, change in energy, scr.thr., difden:
@ DIIS iter.   6    -360.783508387        7.34281D-03   -8.56D-05  -20    F

 (DIIS_RED) Control Parameters C2DIIS =         F NEVC =    6


 (DIIS_RED) B matrix:

               Column   1     Column   2     Column   3     Column   4     Column   5     Column   6
       1      14.43156677
       2       0.80268008     0.88616864
       3       0.64552327     0.03725960     0.12787275
       4      -0.00740688     0.08673753    -0.01148915     0.01436173
       5       0.01217974     0.00604145     0.00477182     0.00084552     0.00055124
       6      -0.00188621    -0.00039966     0.00053757     0.00015688     0.00007262     0.00005392
    ==== End of matrix output ====

 DIIS C vector; C2DIIS = F, LAMBDA = -3.39D-05
    0.000467    0.007734   -0.020887   -0.079684    0.144571    0.947798
* Read MO coefficients from SIRIUS.RST with label "NEWORB  " and header info: 31Dec18  DIIS   6
      Virial theorem: -V/T =      2.002860
@      MULPOP N      -0.67; H       0.20; H       0.25; H       0.23; O      -0.64; O      -0.67; O      -0.74; O      -0.63; H       0.31; H       0.35; 
@             H       0.31; H       0.38; H       0.33; H       0.33; H       0.32; H       0.34; 

 DIIS Fock eigenvalues in symmetry 1
      -20.57250      -20.55956      -20.54625      -20.52278      -15.53592
       -1.36216       -1.33383       -1.31102       -1.30231       -1.12665
       -0.71055       -0.69234       -0.67893       -0.65532       -0.63488
       -0.62699       -0.59362       -0.58298       -0.57884       -0.55984
       -0.52826       -0.51460       -0.49350       -0.48431       -0.41931
        0.14226        0.16806        0.17926        0.22084        0.23798
        0.25161        0.25997        0.27233        0.29349        0.33719
        0.35556        0.47940        0.50289        0.52921        0.55017
        0.58098        0.59826        0.60523        0.61971        0.62205
        0.64863        0.69694        0.89570        0.91200        0.91735
        0.98610        1.00415        1.01325        1.02401        1.03574
        1.05512        1.08959        1.10148        1.10999        1.11562
        1.15560        1.16949        1.27354        1.31948        1.32664
        1.36406        1.41304        1.41566        1.42987        1.43888
        1.49302        1.51630        1.52258        1.52358        1.55262
        1.59543        1.62741        1.67713        1.69433        1.70987
        1.76301        1.84533        1.86650        1.87586        1.91779
        1.94041        1.94101        1.99692        2.05874        2.18852
        2.20811        2.21867        2.22608        2.26475        2.33242
        2.34685        2.36350        2.39166        2.49920        2.52935
        2.60269        2.61260        2.64454        2.66341        2.73919
        2.78139        2.81247        2.83029        2.85151        2.90869
        2.97398        2.99824        3.02207        3.19633        3.41394
        3.43785        3.44568        3.45609        3.46997        3.49745
        3.50133        3.50875        3.51822        3.52714        3.64773
        3.66715        3.68478        3.68683        3.96083        3.96360
        3.97769        4.00842        4.19169        4.23290        4.24529
        4.25591        4.55472        5.15126        5.20324        5.31442
        5.33352        5.34982        5.36161        5.72152        5.75408
        5.79773        5.83894        6.07695        6.07870        6.09337
        6.09598       37.00008       51.50288       51.50839       51.51672
       51.57140
 Time used in FCKEIG, thr_jaco:   2.77D-01  2.80D-02  3.21D-07
 CPU and wall times used in FCKEIG, THR_FCKEIG:   2.77D-01  2.80D-02  7.34D-05
 -----------------------------------------------------------------------------

 *** DIIS iteration number    7
 RDSUPM called. NFMAT, ISYMDM(1:NFMAT)                     1
                     1

 ITDIIS, energy, error norm, change in energy, scr.thr., difden:
@ DIIS iter.   7    -360.783514180        2.48046D-03   -5.79D-06  -20    F

 (DIIS_RED) Control Parameters C2DIIS =         F NEVC =    7


 (DIIS_RED) B matrix:

               Column   1     Column   2     Column   3     Column   4     Column   5     Column   6
       1      14.43156677
       2       0.80268008     0.88616864
       3       0.64552327     0.03725960     0.12787275
       4      -0.00740688     0.08673753    -0.01148915     0.01436173
       5       0.01217974     0.00604145     0.00477182     0.00084552     0.00055124
       6      -0.00188621    -0.00039966     0.00053757     0.00015688     0.00007262     0.00005392
       7       0.00074189    -0.00001223     0.00009015    -0.00000340     0.00003421    -0.00000010

               Column   7
       7       0.00000615
    ==== End of matrix output ====

 DIIS C vector; C2DIIS = F, LAMBDA = -1.24D-06
   -0.000221   -0.001641    0.009551    0.027352   -0.174851    0.065830    1.073979
* Read MO coefficients from SIRIUS.RST with label "NEWORB  " and header info: 31Dec18  DIIS   7
      Virial theorem: -V/T =      2.002834
@      MULPOP N      -0.67; H       0.20; H       0.25; H       0.23; O      -0.64; O      -0.67; O      -0.74; O      -0.63; H       0.31; H       0.35; 
@             H       0.31; H       0.38; H       0.33; H       0.33; H       0.32; H       0.34; 

 DIIS Fock eigenvalues in symmetry 1
      -20.57243      -20.55963      -20.54615      -20.52206      -15.53522
       -1.36211       -1.33381       -1.31094       -1.30198       -1.12642
       -0.71053       -0.69233       -0.67890       -0.65509       -0.63478
       -0.62687       -0.59361       -0.58303       -0.57864       -0.55984
       -0.52817       -0.51455       -0.49340       -0.48394       -0.41905
        0.14229        0.16807        0.17928        0.22088        0.23803
        0.25163        0.25998        0.27235        0.29352        0.33722
        0.35564        0.47947        0.50296        0.52931        0.55022
        0.58101        0.59828        0.60526        0.61973        0.62207
        0.64868        0.69705        0.89584        0.91211        0.91748
        0.98620        1.00430        1.01338        1.02408        1.03583
        1.05517        1.08963        1.10151        1.11006        1.11566
        1.15570        1.16960        1.27365        1.31952        1.32675
        1.36416        1.41312        1.41574        1.42989        1.43901
        1.49302        1.51630        1.52256        1.52356        1.55275
        1.59546        1.62755        1.67713        1.69445        1.70987
        1.76304        1.84540        1.86656        1.87588        1.91779
        1.94040        1.94110        1.99698        2.05883        2.18862
        2.20809        2.21867        2.22608        2.26485        2.33254
        2.34689        2.36349        2.39164        2.49927        2.52949
        2.60269        2.61260        2.64460        2.66344        2.73921
        2.78141        2.81244        2.83028        2.85151        2.90879
        2.97417        2.99842        3.02224        3.19647        3.41416
        3.43797        3.44590        3.45610        3.47002        3.49767
        3.50135        3.50885        3.51829        3.52746        3.64781
        3.66717        3.68484        3.68714        3.96089        3.96390
        3.97769        4.00848        4.19178        4.23291        4.24549
        4.25609        4.55511        5.15160        5.20357        5.31442
        5.33363        5.35004        5.36190        5.72153        5.75416
        5.79813        5.83899        6.07696        6.07879        6.09367
        6.09612       37.00076       51.50282       51.50849       51.51679
       51.57211
 Time used in FCKEIG, thr_jaco:   2.49D-01  2.60D-02  1.08D-07
 CPU and wall times used in FCKEIG, THR_FCKEIG:   2.49D-01  2.60D-02  2.48D-05
 -----------------------------------------------------------------------------

 *** DIIS iteration number    8
 RDSUPM called. NFMAT, ISYMDM(1:NFMAT)                     1
                     1

 ITDIIS, energy, error norm, change in energy, scr.thr., difden:
@ DIIS iter.   8    -360.783514802        3.55806D-04   -6.22D-07  -20    F

 (DIIS_RED) Control Parameters C2DIIS =         F NEVC =    8


 (DIIS_RED) B matrix:

               Column   1     Column   2     Column   3     Column   4     Column   5     Column   6
       1      14.43156677
       2       0.80268008     0.88616864
       3       0.64552327     0.03725960     0.12787275
       4      -0.00740688     0.08673753    -0.01148915     0.01436173
       5       0.01217974     0.00604145     0.00477182     0.00084552     0.00055124
       6      -0.00188621    -0.00039966     0.00053757     0.00015688     0.00007262     0.00005392
       7       0.00074189    -0.00001223     0.00009015    -0.00000340     0.00003421    -0.00000010
       8       0.00005783    -0.00000050    -0.00000105     0.00000351     0.00000105     0.00000136

               Column   7     Column   8
       7       0.00000615
       8       0.00000028     0.00000013
    ==== End of matrix output ====

 DIIS C vector; C2DIIS = F, LAMBDA = -5.66D-08
    0.000021    0.000154   -0.001296   -0.003637    0.031527   -0.047353   -0.207441    1.228026
* Read MO coefficients from SIRIUS.RST with label "NEWORB  " and header info: 31Dec18  DIIS   8
      Virial theorem: -V/T =      2.002850
@      MULPOP N      -0.67; H       0.20; H       0.25; H       0.23; O      -0.65; O      -0.67; O      -0.74; O      -0.63; H       0.31; H       0.35; 
@             H       0.31; H       0.38; H       0.33; H       0.33; H       0.32; H       0.34; 

 DIIS Fock eigenvalues in symmetry 1
      -20.57241      -20.55959      -20.54615      -20.52209      -15.53526
       -1.36210       -1.33379       -1.31094       -1.30199       -1.12644
       -0.71052       -0.69231       -0.67890       -0.65509       -0.63479
       -0.62689       -0.59363       -0.58304       -0.57865       -0.55986
       -0.52817       -0.51454       -0.49340       -0.48394       -0.41906
        0.14229        0.16806        0.17928        0.22088        0.23803
        0.25163        0.25998        0.27234        0.29352        0.33721
        0.35564        0.47946        0.50295        0.52930        0.55022
        0.58101        0.59827        0.60526        0.61973        0.62206
        0.64868        0.69704        0.89583        0.91210        0.91747
        0.98619        1.00430        1.01338        1.02408        1.03582
        1.05516        1.08963        1.10150        1.11006        1.11566
        1.15570        1.16960        1.27364        1.31953        1.32673
        1.36415        1.41311        1.41573        1.42989        1.43900
        1.49302        1.51629        1.52256        1.52356        1.55274
        1.59546        1.62755        1.67713        1.69444        1.70987
        1.76303        1.84539        1.86655        1.87587        1.91779
        1.94040        1.94109        1.99697        2.05882        2.18860
        2.20809        2.21867        2.22608        2.26483        2.33254
        2.34688        2.36350        2.39164        2.49925        2.52947
        2.60269        2.61260        2.64460        2.66344        2.73920
        2.78140        2.81244        2.83027        2.85150        2.90878
        2.97415        2.99839        3.02222        3.19645        3.41414
        3.43796        3.44589        3.45611        3.47002        3.49766
[...]

 Principal values of diagonalized transition strength matrix:

             a.u.               
 1      -0.00000000
 2      -0.00000000
 3       0.00041187

 Principal axis of diagonalized transition strength matrix:


               Column   1     Column   2     Column   3
       1       0.91596130     0.27830527     0.28906933
       2      -0.10836525     0.86518788    -0.48959871
       3      -0.38635718     0.41712840     0.82263724
    ==== End of matrix output ====


 CCSD   oscillator strength matrix for state nr. 13 of symmetry 1
 CCSD  excitation energy:15.12650154


               Column   1     Column   2     Column   3
       1       0.00034706    -0.00058783     0.00098768
       2      -0.00058783     0.00099560    -0.00167284
       3       0.00098768    -0.00167284     0.00281075
    ==== End of matrix output ====

 Principal values of diagonalized oscillator strength matrix:

             a.u.               
 1      -0.00000001
 2       0.00000000
 3       0.00415342

 Principal axis of diagonalized oscillator strength matrix:


               Column   1     Column   2     Column   3
       1       0.91596130     0.27830527     0.28906933
       2      -0.10836525     0.86518788    -0.48959871
       3      -0.38635718     0.41712840     0.82263724
    ==== End of matrix output ====


 CCSD  Transition strength matrix for state nr. 14 of symmetry 1
 CCSD  excitation energy:15.18157197

 Gauge: length

               Column   1     Column   2     Column   3
       1     1.890389D-06  -6.241605D-06   5.670638D-06
       2    -6.241605D-06   2.060548D-05  -1.872189D-05
       3     5.670638D-06  -1.872189D-05   1.700983D-05
    ==== End of matrix output ====

 Principal values of diagonalized transition strength matrix:

             a.u.               
 1      -0.00000000
 2      -0.00000000
 3       0.00003951

 Principal axis of diagonalized transition strength matrix:


               Column   1     Column   2     Column   3
       1       0.51676696     0.82770653    -0.21875514
       2       0.65616175    -0.21879309     0.72220588
       3       0.54991241    -0.51675089    -0.65617441
    ==== End of matrix output ====


 CCSD   oscillator strength matrix for state nr. 14 of symmetry 1
 CCSD  excitation energy:15.18157197


               Column   1     Column   2     Column   3
       1     1.913271D-05  -6.317158D-05   5.739280D-05
       2    -6.317158D-05   2.085491D-04  -1.894852D-04
       3     5.739280D-05  -1.894852D-04   1.721573D-04
    ==== End of matrix output ====

 Principal values of diagonalized oscillator strength matrix:

             a.u.               
 1      -0.00000001
 2      -0.00000000
 3       0.00039984

 Principal axis of diagonalized oscillator strength matrix:


               Column   1     Column   2     Column   3
       1       0.51676696     0.82770653    -0.21875514
       2       0.65616175    -0.21879309     0.72220588
       3       0.54991241    -0.51675089    -0.65617441
    ==== End of matrix output ====


 CCSD  Transition strength matrix for state nr. 15 of symmetry 1
 CCSD  excitation energy:15.25603219

 Gauge: length

               Column   1     Column   2     Column   3
       1     9.508147D-05  -1.542540D-04   1.778340D-04
       2    -1.542540D-04   2.502509D-04  -2.885055D-04
       3     1.778340D-04  -2.885055D-04   3.326079D-04
    ==== End of matrix output ====

 Principal values of diagonalized transition strength matrix:

             a.u.               
 1      -0.00000000
 2       0.00000000
 3       0.00067794

 Principal axis of diagonalized transition strength matrix:


               Column   1     Column   2     Column   3
       1       0.92670287    -0.03116110     0.37450069
       2       0.27063947     0.74673975    -0.60756401
       3      -0.26072220     0.66438598     0.70043930
    ==== End of matrix output ====


 CCSD   oscillator strength matrix for state nr. 15 of symmetry 1
 CCSD  excitation energy:15.25603219


               Column   1     Column   2     Column   3
       1       0.00096704    -0.00156887     0.00180869
       2      -0.00156887     0.00254522    -0.00293430
       3       0.00180869    -0.00293430     0.00338285
    ==== End of matrix output ====

 Principal values of diagonalized oscillator strength matrix:

             a.u.               
 1      -0.00000000
 2       0.00000000
 3       0.00689512

 Principal axis of diagonalized oscillator strength matrix:


               Column   1     Column   2     Column   3
       1       0.92670287    -0.03116109     0.37450069
       2       0.27063947     0.74673975    -0.60756401
       3      -0.26072220     0.66438598     0.70043930
    ==== End of matrix output ====

  Total time for    135 linear response residues:     276.59 seconds.
  

 *******************************************************************************
 *******************************************************************************
 *                                                                             *
 *                                                                             *
 *                   SUMMARY OF COUPLED CLUSTER CALCULATION                    *
 *                                                                             *
 *                                                                             *
 *******************************************************************************
 *******************************************************************************

                                                                                
                                                                                
            Total SCF   energy:                  -360.7835148216                
            Total MP2   energy:                  -361.8886502719                
            Total CCSD  energy:                  -361.9281124887                
                                                                                
                                                                                
            Total SCF   energy:                  -360.7835148216                
            Total RSTAR energy:                  -361.9281124887                
            Total CCSD  energy:                  -361.9282477033                
                                                                                
                                                                                
            Total SCF   energy:                  -360.7835148216                
            Total RSTAR energy:                  -361.9282477033                
            Total CCSD  energy:                  -361.9282490394                
                                                                                
                                                                                
            Total SCF   energy:                  -360.7835148216                
            Total RSTAR energy:                  -361.9282490394                
            Total CCSD  energy:                  -361.9282491227                
                                                                                
                                                                                
            Total SCF   energy:                  -360.7835148216                
            Total RSTAR energy:                  -361.9282491227                
            Total CCSD  energy:                  -361.9282491266                
                                                                                
                                                                                
            Total SCF   energy:                  -360.7835148216                
            Total RSTAR energy:                  -361.9282491266                
            Total CCSD  energy:                  -361.9282491267                
            CCSD Total  energy:                  -362.3414278168                
            CCSD E(QM/MM)     :                    -0.4087592167                
                                                                                
                                                                                
                                                                                
 +=============================================================================+
 |  sym. | Exci.  |        CCSD       Excitation energies            | ||T1||  |
 |(spin, |        +------------------------------------------------------------+
 | spat) |        |     Hartree    |       eV.      |     cm-1       |    %    |
 +=============================================================================+
 | ^1A   |    1   |    14.8197010  |     403.26458  |   3252548.377  |  88.23  |
 | ^1A   |    2   |    14.8793674  |     404.88818  |   3265643.651  |  88.73  |
 | ^1A   |    3   |    14.9038813  |     405.55524  |   3271023.835  |  88.64  |
 | ^1A   |    4   |    14.9471974  |     406.73393  |   3280530.613  |  88.19  |
 | ^1A   |    5   |    14.9711908  |     407.38683  |   3285796.555  |  87.85  |
 | ^1A   |    6   |    14.9787858  |     407.59350  |   3287463.466  |  87.91  |
 | ^1A   |    7   |    15.0039772  |     408.27899  |   3292992.329  |  87.89  |
 | ^1A   |    8   |    15.0326583  |     409.05944  |   3299287.101  |  87.84  |
 | ^1A   |    9   |    15.0462510  |     409.42932  |   3302270.354  |  87.76  |
 | ^1A   |   10   |    15.0797636  |     410.34124  |   3309625.518  |  87.77  |
 | ^1A   |   11   |    15.0910240  |     410.64765  |   3312096.904  |  87.88  |
 | ^1A   |   12   |    15.1131609  |     411.25003  |   3316955.389  |  87.90  |
 | ^1A   |   13   |    15.1265015  |     411.61305  |   3319883.318  |  87.91  |
 | ^1A   |   14   |    15.1815720  |     413.11159  |   3331969.880  |  87.54  |
 | ^1A   |   15   |    15.2560322  |     415.13775  |   3348312.010  |  87.95  |
 +=============================================================================+
                                                                                
                                                                                
     Total energies in Hartree:                                                 
             1 ^1A       -347.1129676306                                        
             2 ^1A       -347.0533011747                                        
             3 ^1A       -347.0287872514                                        
             4 ^1A       -346.9854711831                                        
             5 ^1A       -346.9614777856                                        
             6 ^1A       -346.9538827808                                        
             7 ^1A       -346.9286914257                                        
             8 ^1A       -346.9000103338                                        
             9 ^1A       -346.8864176348                                        
            10 ^1A       -346.8529050397                                        
            11 ^1A       -346.8416445746                                        
            12 ^1A       -346.8195076917                                        
            13 ^1A       -346.8061670613                                        
            14 ^1A       -346.7510966349                                        
            15 ^1A       -346.6766364115                                        
                                                                                
                                                                                
 +=============================================================================+
 |  sym. | Exci.  |        CCSD       Length   Gauge Oscillator Strength       |
 |(spin, |        +------------------------------------------------------------+
 | spat) |        | Dipole Strength(a.u.) | Oscillator strength  | Direction   |
 +=============================================================================+
 | ^1A   |    1   |        0.0006044      |      0.0059711       |  (Y,Z)      |
 | ^1A   |    2   |        0.0035281      |      0.0349973       |  (Y,Z)      |
 | ^1A   |    3   |        0.0034585      |      0.0343636       |  (Y,Z)      |
 | ^1A   |    4   |        0.0017199      |      0.0171384       |  (Y,Z)      |
 | ^1A   |    5   |        0.0001046      |      0.0010436       |  (Y,Z)      |
 | ^1A   |    6   |        0.0007505      |      0.0074941       |  (Y,Z)      |
 | ^1A   |    7   |        0.0002620      |      0.0026208       |  (Y,Z)      |
 | ^1A   |    8   |        0.0000580      |      0.0005816       |  (Y,Z)      |
 | ^1A   |    9   |        0.0000445      |      0.0004465       |  (Y,Z)      |
 | ^1A   |   10   |        0.0001069      |      0.0010742       |  (Y,Z)      |
 | ^1A   |   11   |        0.0002687      |      0.0027031       |  (Y,Z)      |
 | ^1A   |   12   |        0.0006040      |      0.0060852       |  (Y,Z)      |
 | ^1A   |   13   |        0.0004119      |      0.0041534       |  (Y,Z)      |
 | ^1A   |   14   |        0.0000395      |      0.0003998       |  (Y,Z)      |
 | ^1A   |   15   |        0.0006779      |      0.0068951       |  (Y,Z)      |
 +=============================================================================+

  1 a.u. =        27.21138 eV.  
  1 a.u. =    219474.62934 cm-1.
  

 *******************************************************************************
 *******************************************************************************
 *                                                                             *
 *                                                                             *
 *                      END OF COUPLED CLUSTER CALCULATION                     *
 *                                                                             *
 *                                                                             *
 *******************************************************************************
 *******************************************************************************


 CPU and wall time for CC :  430770.819   48553.275

 
     Date and time (Linux)  : Tue Jan  1 11:14:12 2019
     Host name              : n-62-29-7                               


                      .-------------------------------------.
                      | End of Coupled Cluster Section (CC) |
                      `-------------------------------------'

  Total CPU  time used in DALTON: 119 hours 50 minutes  1 second 
  Total wall time used in DALTON:  13 hours 31 minutes 33 seconds

 
     Date and time (Linux)  : Tue Jan  1 11:14:12 2019
     Host name              : n-62-29-7                               
  

 +---------------------------------------------------------+ 
 | List of selected calculated molecular properties (a.u.) | 
 +---------------------------------------------------------+ 

  Properties are read from unit number                      4

 CCSD       properties :
 #  1 1 CCSD/MM  Ground state Energy =    -362.3414278168
 #  2 1 E_QM/MM  Ground state Energy =      -0.4087592167
 #  3 1 Sy: 1 Sp: 1 Exc:  1 E_tot:   -347.1129676306 w:     14.8197009695 E_grs:   -361.9326686001
 #  4 1 Exctot   Excited state Energy =    -347.1129676306
 #  5 1 Sy: 1 Sp: 1 Exc:  2 E_tot:   -347.0533011747 w:     14.8793674254 E_grs:   -361.9326686001
 #  6 1 Exctot   Excited state Energy =    -347.0533011747
 #  7 1 Sy: 1 Sp: 1 Exc:  3 E_tot:   -347.0287872514 w:     14.9038813487 E_grs:   -361.9326686001
 #  8 1 Exctot   Excited state Energy =    -347.0287872514
 #  9 1 Sy: 1 Sp: 1 Exc:  4 E_tot:   -346.9854711831 w:     14.9471974170 E_grs:   -361.9326686001
 # 10 1 Exctot   Excited state Energy =    -346.9854711831
 # 11 1 Sy: 1 Sp: 1 Exc:  5 E_tot:   -346.9614777856 w:     14.9711908146 E_grs:   -361.9326686001
 # 12 1 Exctot   Excited state Energy =    -346.9614777856
 # 13 1 Sy: 1 Sp: 1 Exc:  6 E_tot:   -346.9538827808 w:     14.9787858193 E_grs:   -361.9326686001
 # 14 1 Exctot   Excited state Energy =    -346.9538827808
 # 15 1 Sy: 1 Sp: 1 Exc:  7 E_tot:   -346.9286914257 w:     15.0039771744 E_grs:   -361.9326686001
 # 16 1 Exctot   Excited state Energy =    -346.9286914257
 # 17 1 Sy: 1 Sp: 1 Exc:  8 E_tot:   -346.9000103338 w:     15.0326582663 E_grs:   -361.9326686001
 # 18 1 Exctot   Excited state Energy =    -346.9000103338
 # 19 1 Sy: 1 Sp: 1 Exc:  9 E_tot:   -346.8864176348 w:     15.0462509654 E_grs:   -361.9326686001
 # 20 1 Exctot   Excited state Energy =    -346.8864176348
 # 21 1 Sy: 1 Sp: 1 Exc: 10 E_tot:   -346.8529050397 w:     15.0797635605 E_grs:   -361.9326686001
 # 22 1 Exctot   Excited state Energy =    -346.8529050397
 # 23 1 Sy: 1 Sp: 1 Exc: 11 E_tot:   -346.8416445746 w:     15.0910240255 E_grs:   -361.9326686001
 # 24 1 Exctot   Excited state Energy =    -346.8416445746
 # 25 1 Sy: 1 Sp: 1 Exc: 12 E_tot:   -346.8195076917 w:     15.1131609084 E_grs:   -361.9326686001
 # 26 1 Exctot   Excited state Energy =    -346.8195076917
 # 27 1 Sy: 1 Sp: 1 Exc: 13 E_tot:   -346.8061670613 w:     15.1265015388 E_grs:   -361.9326686001
 # 28 1 Exctot   Excited state Energy =    -346.8061670613
 # 29 1 Sy: 1 Sp: 1 Exc: 14 E_tot:   -346.7510966349 w:     15.1815719652 E_grs:   -361.9326686001
 # 30 1 Exctot   Excited state Energy =    -346.7510966349
 # 31 1 Sy: 1 Sp: 1 Exc: 15 E_tot:   -346.6766364115 w:     15.2560321886 E_grs:   -361.9326686001
 # 32 1 Exctot   Excited state Energy =    -346.6766364115
 # 33 1 |<O|XDIPLEN |i(14.819701)>| =     0.00295039
 # 35 1 |<O|XDIPLEN |i(14.879367)>| =     0.03467164
 # 37 1 |<O|XDIPLEN |i(14.903881)>| =     0.04556881
 # 39 1 |<O|XDIPLEN |i(14.947197)>| =     0.00308226
 # 41 1 |<O|XDIPLEN |i(14.971191)>| =     0.00571945
 # 43 1 |<O|XDIPLEN |i(14.978786)>| =     0.02487991
 # 45 1 |<O|XDIPLEN |i(15.003977)>| =     0.01082379
 # 47 1 |<O|XDIPLEN |i(15.032658)>| =     0.00102947
 # 49 1 |<O|XDIPLEN |i(15.046251)>| =     0.00620140
 # 51 1 |<O|XDIPLEN |i(15.079764)>| =     0.00053448
 # 53 1 |<O|XDIPLEN |i(15.091024)>| =     0.00148849
 # 55 1 |<O|XDIPLEN |i(15.113161)>| =     0.02403385
 # 57 1 |<O|XDIPLEN |i(15.126502)>| =     0.00586649
 # 59 1 |<O|XDIPLEN |i(15.181572)>| =     0.00137491
 # 61 1 |<O|XDIPLEN |i(15.256032)>| =     0.00975097
 # 63 1 |<O|YDIPLEN |i(14.819701)>| =     0.00324827
 # 65 1 |<O|YDIPLEN |i(14.879367)>| =     0.02910023
 # 67 1 |<O|YDIPLEN |i(14.903881)>| =     0.03489120
 # 69 1 |<O|YDIPLEN |i(14.947197)>| =     0.03514927
 # 71 1 |<O|YDIPLEN |i(14.971191)>| =     0.00083107
 # 73 1 |<O|YDIPLEN |i(14.978786)>| =     0.00456272
 # 75 1 |<O|YDIPLEN |i(15.003977)>| =     0.00674390
 # 77 1 |<O|YDIPLEN |i(15.032658)>| =     0.00746360
 # 79 1 |<O|YDIPLEN |i(15.046251)>| =     0.00244917
 # 81 1 |<O|YDIPLEN |i(15.079764)>| =     0.01028220
 # 83 1 |<O|YDIPLEN |i(15.091024)>| =     0.00989185
 # 85 1 |<O|YDIPLEN |i(15.113161)>| =     0.00502268
 # 87 1 |<O|YDIPLEN |i(15.126502)>| =     0.00993619
 # 89 1 |<O|YDIPLEN |i(15.181572)>| =     0.00453933
 # 91 1 |<O|YDIPLEN |i(15.256032)>| =     0.01581932
 # 93 1 |<O|ZDIPLEN |i(14.819701)>| =     0.02418932
 # 95 1 |<O|ZDIPLEN |i(14.879367)>| =     0.03845984
 # 97 1 |<O|ZDIPLEN |i(14.903881)>| =     0.01282993
 # 99 1 |<O|ZDIPLEN |i(14.947197)>| =     0.02179282
 #101 1 |<O|ZDIPLEN |i(14.971191)>| =     0.00843558
 #103 1 |<O|ZDIPLEN |i(14.978786)>| =     0.01051867
 #105 1 |<O|ZDIPLEN |i(15.003977)>| =     0.00996891
 #107 1 |<O|ZDIPLEN |i(15.032658)>| =     0.00112780
 #109 1 |<O|ZDIPLEN |i(15.046251)>| =     0.00023639
 #111 1 |<O|ZDIPLEN |i(15.079764)>| =     0.00091994
 #113 1 |<O|ZDIPLEN |i(15.091024)>| =     0.01298511
 #115 1 |<O|ZDIPLEN |i(15.113161)>| =     0.00105260
 #117 1 |<O|ZDIPLEN |i(15.126502)>| =     0.01669505
 #119 1 |<O|ZDIPLEN |i(15.181572)>| =     0.00412430
 #121 1 |<O|ZDIPLEN |i(15.256032)>| =     0.01823754

 THE_END   
