

     ************************************************************************
     *************** Dalton - An Electronic Structure Program ***************
     ************************************************************************

    This is output from DALTON release Dalton2017.alpha (2016)
         ( Web site: http://daltonprogram.org )

   ----------------------------------------------------------------------------

    NOTE:
     
    Dalton is an experimental code for the evaluation of molecular
    properties using (MC)SCF, DFT, CI, and CC wave functions.
    The authors accept no responsibility for the performance of
    the code or for the correctness of the results.
     
    The code (in whole or part) is provided under a licence and
    is not to be reproduced for further distribution without
    the written permission of the authors or their representatives.
     
    See the home page "http://daltonprogram.org" for further information.
     
    If results obtained with this code are published,
    the appropriate citations would be both of:
     
       K. Aidas, C. Angeli, K. L. Bak, V. Bakken, R. Bast,
       L. Boman, O. Christiansen, R. Cimiraglia, S. Coriani,
       P. Dahle, E. K. Dalskov, U. Ekstroem,
       T. Enevoldsen, J. J. Eriksen, P. Ettenhuber, B. Fernandez,
       L. Ferrighi, H. Fliegl, L. Frediani, K. Hald, A. Halkier,
       C. Haettig, H. Heiberg, T. Helgaker, A. C. Hennum,
       H. Hettema, E. Hjertenaes, S. Hoest, I.-M. Hoeyvik,
       M. F. Iozzi, B. Jansik, H. J. Aa. Jensen, D. Jonsson,
       P. Joergensen, J. Kauczor, S. Kirpekar,
       T. Kjaergaard, W. Klopper, S. Knecht, R. Kobayashi, H. Koch,
       J. Kongsted, A. Krapp, K. Kristensen, A. Ligabue,
       O. B. Lutnaes, J. I. Melo, K. V. Mikkelsen, R. H. Myhre,
       C. Neiss, C. B. Nielsen, P. Norman, J. Olsen,
       J. M. H. Olsen, A. Osted, M. J. Packer, F. Pawlowski,
       T. B. Pedersen, P. F. Provasi, S. Reine, Z. Rinkevicius,
       T. A. Ruden, K. Ruud, V. Rybkin, P. Salek, C. C. M. Samson,
       A. Sanchez de Meras, T. Saue, S. P. A. Sauer,
       B. Schimmelpfennig, K. Sneskov, A. H. Steindal,
       K. O. Sylvester-Hvid, P. R. Taylor, A. M. Teale,
       E. I. Tellgren, D. P. Tew, A. J. Thorvaldsen, L. Thoegersen,
       O. Vahtras, M. A. Watson, D. J. D. Wilson, M. Ziolkowski
       and H. Agren,
       "The Dalton quantum chemistry program system",
       WIREs Comput. Mol. Sci. 2014, 4:269–284 (doi: 10.1002/wcms.1172)
     
    and
     
       Dalton, a Molecular Electronic Structure Program,
       Release Dalton2017.alpha (2016), see http://daltonprogram.org
   ----------------------------------------------------------------------------

    Authors in alphabetical order (major contribution(s) in parenthesis):

  Kestutis Aidas,           Vilnius University,           Lithuania   (QM/MM)
  Celestino Angeli,         University of Ferrara,        Italy       (NEVPT2)
  Keld L. Bak,              UNI-C,                        Denmark     (AOSOPPA, non-adiabatic coupling, magnetic properties)
  Vebjoern Bakken,          University of Oslo,           Norway      (DALTON; geometry optimizer, symmetry detection)
  Radovan Bast,             UiT The Arctic U. of Norway,  Norway      (DALTON installation and execution frameworks)
  Pablo Baudin,             University of Valencia,       Spain       (Cholesky excitation energies)
  Linus Boman,              NTNU,                         Norway      (Cholesky decomposition and subsystems)
  Ove Christiansen,         Aarhus University,            Denmark     (CC module)
  Renzo Cimiraglia,         University of Ferrara,        Italy       (NEVPT2)
  Sonia Coriani,            University of Trieste,        Italy       (CC module, MCD in RESPONS)
  Janusz Cukras,            University of Trieste,        Italy       (MChD in RESPONS)
  Paal Dahle,               University of Oslo,           Norway      (Parallelization)
  Erik K. Dalskov,          UNI-C,                        Denmark     (SOPPA)
  Thomas Enevoldsen,        Univ. of Southern Denmark,    Denmark     (SOPPA)
  Janus J. Eriksen,         Aarhus University,            Denmark     (Polarizable embedding model, TDA)
  Rasmus Faber,             University of Copenhagen,     Denmark     (Vib.avg. NMR with SOPPA, parallel AO-SOPPA)
  Berta Fernandez,          U. of Santiago de Compostela, Spain       (doublet spin, ESR in RESPONS)
  Lara Ferrighi,            Aarhus University,            Denmark     (PCM Cubic response)
  Heike Fliegl,             University of Oslo,           Norway      (CCSD(R12))
  Luca Frediani,            UiT The Arctic U. of Norway,  Norway      (PCM)
  Bin Gao,                  UiT The Arctic U. of Norway,  Norway      (Gen1Int library)
  Christof Haettig,         Ruhr-University Bochum,       Germany     (CC module)
  Kasper Hald,              Aarhus University,            Denmark     (CC module)
  Asger Halkier,            Aarhus University,            Denmark     (CC module)
  Frederik Beyer Hansen,    University of Copenhagen,     Denmark     (Parallel AO-SOPPA)
  Erik D. Hedegaard,        Univ. of Southern Denmark,    Denmark     (Polarizable embedding model, QM/MM)
  Hanne Heiberg,            University of Oslo,           Norway      (geometry analysis, selected one-electron integrals)
  Trygve Helgaker,          University of Oslo,           Norway      (DALTON; ABACUS, ERI, DFT modules, London, and much more)
  Alf Christian Hennum,     University of Oslo,           Norway      (Parity violation)
  Hinne Hettema,            University of Auckland,       New Zealand (quadratic response in RESPONS; SIRIUS supersymmetry)
  Eirik Hjertenaes,         NTNU,                         Norway      (Cholesky decomposition)
  Pi A. B. Haase,           University of Copenhagen,     Denmark     (Triplet AO-SOPPA)
  Maria Francesca Iozzi,    University of Oslo,           Norway      (RPA)
  Brano Jansik              Technical Univ. of Ostrava    Czech Rep.  (DFT cubic response)
  Hans Joergen Aa. Jensen,  Univ. of Southern Denmark,    Denmark     (DALTON; SIRIUS, RESPONS, ABACUS modules, London, and much more)
  Dan Jonsson,              UiT The Arctic U. of Norway,  Norway      (cubic response in RESPONS module)
  Poul Joergensen,          Aarhus University,            Denmark     (RESPONS, ABACUS, and CC modules)
  Maciej Kaminski,          University of Warsaw,         Poland      (CPPh in RESPONS)
  Joanna Kauczor,           Linkoeping University,        Sweden      (Complex polarization propagator (CPP) module)
  Sheela Kirpekar,          Univ. of Southern Denmark,    Denmark     (Mass-velocity & Darwin integrals)
  Wim Klopper,              KIT Karlsruhe,                Germany     (R12 code in CC, SIRIUS, and ABACUS modules)
  Stefan Knecht,            ETH Zurich,                   Switzerland (Parallel CI and MCSCF)
  Rika Kobayashi,           Australian National Univ.,    Australia   (DIIS in CC, London in MCSCF)
  Henrik Koch,              NTNU,                         Norway      (CC module, Cholesky decomposition)
  Jacob Kongsted,           Univ. of Southern Denmark,    Denmark     (Polarizable embedding model, QM/MM)
  Andrea Ligabue,           University of Modena,         Italy       (CTOCD, AOSOPPA)
  Nanna H. List             Univ. of Southern Denmark,    Denmark     (Polarizable embedding model)
  Ola B. Lutnaes,           University of Oslo,           Norway      (DFT Hessian)
  Juan I. Melo,             University of Buenos Aires,   Argentina   (LRESC, Relativistic Effects on NMR Shieldings)
  Kurt V. Mikkelsen,        University of Copenhagen,     Denmark     (MC-SCRF and QM/MM)
  Rolf H. Myhre,            NTNU,                         Norway      (Cholesky, subsystems and ECC2)
  Christian Neiss,          Univ. Erlangen-Nuernberg,     Germany     (CCSD(R12))
  Christian B. Nielsen,     University of Copenhagen,     Denmark     (QM/MM)
  Patrick Norman,           Linkoeping University,        Sweden      (Cubic response and complex frequency response in RESPONS)
  Jeppe Olsen,              Aarhus University,            Denmark     (SIRIUS CI/density modules)
  Jogvan Magnus H. Olsen,   Univ. of Southern Denmark,    Denmark     (Polarizable embedding model, QM/MM)
  Anders Osted,             Copenhagen University,        Denmark     (QM/MM)
  Martin J. Packer,         University of Sheffield,      UK          (SOPPA)
  Filip Pawlowski,          Kazimierz Wielki University,  Poland      (CC3)
  Morten N. Pedersen,       Univ. of Southern Denmark,    Denmark     (Polarizable embedding model)
  Thomas B. Pedersen,       University of Oslo,           Norway      (Cholesky decomposition)
  Patricio F. Provasi,      University of Northeastern,   Argentina   (Analysis of coupling constants in localized orbitals)
  Zilvinas Rinkevicius,     KTH Stockholm,                Sweden      (open-shell DFT, ESR)
  Elias Rudberg,            KTH Stockholm,                Sweden      (DFT grid and basis info)
  Torgeir A. Ruden,         University of Oslo,           Norway      (Numerical derivatives in ABACUS)
  Kenneth Ruud,             UiT The Arctic U. of Norway,  Norway      (DALTON; ABACUS magnetic properties and much more)
  Pawel Salek,              KTH Stockholm,                Sweden      (DALTON; DFT code)
  Claire C. M. Samson       University of Karlsruhe       Germany     (Boys localization, r12 integrals in ERI)
  Alfredo Sanchez de Meras, University of Valencia,       Spain       (CC module, Cholesky decomposition)
  Trond Saue,               Paul Sabatier University,     France      (direct Fock matrix construction)
  Stephan P. A. Sauer,      University of Copenhagen,     Denmark     (SOPPA(CCSD), SOPPA prop., AOSOPPA, vibrational g-factors)
  Bernd Schimmelpfennig,    Forschungszentrum Karlsruhe,  Germany     (AMFI module)
  Kristian Sneskov,         Aarhus University,            Denmark     (Polarizable embedding model, QM/MM)
  Arnfinn H. Steindal,      UiT The Arctic U. of Norway,  Norway      (parallel QM/MM, Polarizable embedding model)
  Casper Steinmann,         Univ. of Southern Denmark,    Denmark     (QFIT, Polarizable embedding model)
  K. O. Sylvester-Hvid,     University of Copenhagen,     Denmark     (MC-SCRF)
  Peter R. Taylor,          VLSCI/Univ. of Melbourne,     Australia   (Symmetry handling ABACUS, integral transformation)
  Andrew M. Teale,          University of Nottingham,     England     (DFT-AC, DFT-D)
  David P. Tew,             University of Bristol,        England     (CCSD(R12))
  Olav Vahtras,             KTH Stockholm,                Sweden      (triplet response, spin-orbit, ESR, TDDFT, open-shell DFT)
  David J. Wilson,          La Trobe University,          Australia   (DFT Hessian and DFT magnetizabilities)
  Hans Agren,               KTH Stockholm,                Sweden      (SIRIUS module, RESPONS, MC-SCRF solvation model)
 --------------------------------------------------------------------------------

     Date and time (Linux)  : Mon Nov 19 15:34:05 2018
     Host name              : n-62-23-21                              

 * Work memory size             :  1280000000 =  9.537 gigabytes.

 * Directories for basis set searches:
   1) /zhome/37/3/129401/NH3NH4/CCSD/AIMD_SAMPLING/nh3_4h2o
   2) /zhome/9a/4/124800/source/dalton/build-mlcc/basis


Compilation information
-----------------------

 Who compiled             | rfaber
 Host                     | hpclogin1
 System                   | Linux-2.6.32-696.1.1.el6.x86_64
 CMake generator          | Unix Makefiles
 Processor                | x86_64
 64-bit integers          | ON
 MPI                      | OFF
 Fortran compiler         | /opt/intel/2016update2/compilers_and_libraries_201
                          | 6.2.181/linux/bin/intel64/ifort
 Fortran compiler version | ifort (IFORT) 16.0.2 20160204
 C compiler               | /opt/intel/2016update2/compilers_and_libraries_201
                          | 6.2.181/linux/bin/intel64/icc
 C compiler version       | icc (ICC) 16.0.2 20160204
 C++ compiler             | /opt/intel/2016update2/compilers_and_libraries_201
                          | 6.2.181/linux/bin/intel64/icpc
 C++ compiler version     | icpc (ICC) 16.0.2 20160204
 Static linking           | OFF
 Last Git revision        | bb4d1599ca5680a9f3980451fc8bbefdba436d59
 Git branch               | mlcc
 Configuration time       | 2017-06-13 16:11:03.928841


   Content of the .dal input file
 ----------------------------------

**DALTON
.RUN WAVE FUNCTIONS
*QMMM
.QMMM
**INTEGRALS
.DIPLEN
**WAVE FUNCTIONS
.CC
*PRINT
!To check the origin of excit
.PRINTL
   0 11
*SCF INP
.THRESH
1.0D-7
*CC INP
.CCSD
.THRLEQ
 1.0D-9
.THRENR
 1.0D-10
.FROIMP
4
0
.PRINT
 1
.MAX IT
 1200
.MAXRED
 1200
.MXLRV
1199
*CCSLV
.CCMM
.MXSLIT
200
.MXINIT
4 5
*CCEXCI
.NCCEXC
 15
.CVSEPARA
1
1
*CCLRSD
.DIPOLE
**END OF DALTON INPUT


   Content of the .mol file
 ----------------------------

ATOMBASIS


Atomtypes=4 Charge=0 Nosymm Angstrom
   7.00000    1    Basis=6-311G**
N          0.000000        0.000000        0.000000
   1.00000    3    Basis=6-311G**
H          0.530408       -0.775927       -0.304741
H         -0.023179       -0.040641        1.070457
H         -0.980257       -0.203366       -0.208089
   8.00000    4    Basis=6-311G**
O         -1.863119       -2.318045       -1.427672
O          2.022260       -2.426418       -0.201063
O          0.301626        2.569717       -0.770016
O         -2.413307       -0.486393        2.601305
   1.00000    8    Basis=6-311G**
H         -1.090366       -2.604264       -1.954683
H         -2.717612       -2.333350       -1.892740
H          2.932349       -2.614529       -0.309257
H          1.654947       -2.868795       -0.972519
H          1.112030        2.975048       -0.409357
H          0.307080        1.576984       -0.661520
H         -3.032892        0.031003        2.015248
H         -1.739171        0.082070        3.021242


       *******************************************************************
       *********** Output from DALTON general input processing ***********
       *******************************************************************

 --------------------------------------------------------------------------------
   Overall default print level:    0
   Print level for DALTON.STAT:    1

    HERMIT 1- and 2-electron integral sections will be executed
    "Old" integral transformation used (limited to max 255 basis functions)
    Wave function sections will be executed (SIRIUS module)
 --------------------------------------------------------------------------------


 Changes of defaults for *QMMM  :
 --------------------------------

 +------------------+
 |  WORD: | CHANGE: |
 +------------------+
 |   QMMM |       T |
 +------------------+
 


   ****************************************************************************
   *************** Output of molecule and basis set information ***************
   ****************************************************************************


    The two title cards from your ".mol" input:
    ------------------------------------------------------------------------
 1:                                                                         
 2:                                                                         
    ------------------------------------------------------------------------

  Coordinates are entered in Angstrom and converted to atomic units.
          - Conversion factor : 1 bohr = 0.52917721 A

  Atomic type no.    1
  --------------------
  Nuclear charge:   7.00000
  Number of symmetry independent centers:    1
  Number of basis sets to read;    2
  The basis set is "6-311G**" from the basis set library.
  Basis set file used for this atomic type with Z =   7 :
     "/zhome/9a/4/124800/source/dalton/build-mlcc/basis/6-311G**"

  Info about the basis set file: your basis has no documentation.
  Basis set: 6-311G**                                                                        

  Atomic type no.    2
  --------------------
  Nuclear charge:   1.00000
  Number of symmetry independent centers:    3
  Number of basis sets to read;    2
  The basis set is "6-311G**" from the basis set library.
  Basis set file used for this atomic type with Z =   1 :
     "/zhome/9a/4/124800/source/dalton/build-mlcc/basis/6-311G**"

  Info about the basis set file: your basis has no documentation.
  Basis set: 6-311G**                                                                        

  Atomic type no.    3
  --------------------
  Nuclear charge:   8.00000
  Number of symmetry independent centers:    4
  Number of basis sets to read;    2
  The basis set is "6-311G**" from the basis set library.
  Basis set file used for this atomic type with Z =   8 :
     "/zhome/9a/4/124800/source/dalton/build-mlcc/basis/6-311G**"

  Info about the basis set file: your basis has no documentation.
  Basis set: 6-311G**                                                                        

  Atomic type no.    4
  --------------------
  Nuclear charge:   1.00000
  Number of symmetry independent centers:    8
  Number of basis sets to read;    2
  The basis set is "6-311G**" from the basis set library.
  Basis set file used for this atomic type with Z =   1 :
     "/zhome/9a/4/124800/source/dalton/build-mlcc/basis/6-311G**"

  Info about the basis set file: your basis has no documentation.
  Basis set: 6-311G**                                                                        


                         SYMGRP: Point group information
                         -------------------------------

@    Point group: C1 


                                 Isotopic Masses
                                 ---------------

                           N          14.003074
                           H           1.007825
                           H           1.007825
                           H           1.007825
                           O          15.994915
                           O          15.994915
                           O          15.994915
                           O          15.994915
                           H           1.007825
                           H           1.007825
                           H           1.007825
                           H           1.007825
                           H           1.007825
                           H           1.007825
                           H           1.007825
                           H           1.007825

                       Total mass:    89.068809 amu
                       Natural abundance:  98.514 %

 Center-of-mass coordinates (a.u.):   -0.727751   -1.047956    0.055781


  Atoms and basis sets
  --------------------

  Number of atom types :    4
  Total number of atoms:   16

  label    atoms   charge   prim   cont     basis
  ----------------------------------------------------------------------
  N           1    7.0000    31    18      [11s5p1d|4s3p1d]                                   
  H           3    1.0000     8     6      [5s1p|3s1p]                                        
  O           4    8.0000    31    18      [11s5p1d|4s3p1d]                                   
  H           8    1.0000     8     6      [5s1p|3s1p]                                        
  ----------------------------------------------------------------------
  total:     16   50.0000   243   156
  ----------------------------------------------------------------------
  Spherical harmonic basis used.

  Threshold for neglecting AO integrals:  1.00D-12


  Cartesian Coordinates (a.u.)
  ----------------------------

  Total number of coordinates:   48
  N       :     1  x   0.0000000000    2  y   0.0000000000    3  z   0.0000000000
  H       :     4  x   1.0023258545    5  y  -1.4662895230    6  z  -0.5758770291
  H       :     7  x  -0.0438019619    8  y  -0.0768003594    9  z   2.0228705586
  H       :    10  x  -1.8524172621   11  y  -0.3843060431   12  z  -0.3932312196
  O       :    13  x  -3.5207846483   14  y  -4.3804701954   15  z  -2.6979090763
  O       :    16  x   3.8215175535   17  y  -4.5852654848   18  z  -0.3799540039
  O       :    19  x   0.5699905322   20  y   4.8560613487   21  z  -1.4551193519
  O       :    22  x  -4.5604892855   23  y  -0.9191495591   24  z   4.9157540176
  H       :    25  x  -2.0604931160   26  y  -4.9213457172   27  z  -3.6938155312
  H       :    28  x  -5.1355423940   29  y  -4.4093924538   30  z  -3.5767602258
  H       :    31  x   5.5413365129   32  y  -4.9407437559   33  z  -0.5844110322
  H       :    34  x   3.1273965814   35  y  -5.4212368588   36  z  -1.8377945614
  H       :    37  x   2.1014321428   38  y   5.6220259287   39  z  -0.7735726173
  H       :    40  x   0.5802970985   41  y   2.9800678635   42  z  -1.2500916262
  H       :    43  x  -5.7313352467   44  y   0.0585871791   45  z   3.8082667939
  H       :    46  x  -3.2865568745   47  y   0.1550898231   48  z   5.7093199373


   Interatomic separations (in Angstrom):
   --------------------------------------

            N           H           H           H           O           O     
            ------      ------      ------      ------      ------      ------
 N     :    0.000000
 H     :    0.988060    0.000000
 H     :    1.071479    1.654773    0.000000
 H     :    1.022528    1.618418    1.605353    0.000000
 O     :    3.298908    3.060731    3.848714    2.595900    0.000000
 O     :    3.165038    2.227216    3.390061    3.735923    4.075842    0.000000
 O     :    2.699509    3.385581    3.210422    3.106280    5.385986    5.314664
 O     :    3.581538    4.146612    2.873135    3.166454    4.459856    5.593855
 H     :    3.433930    2.948225    4.106400    2.971031    0.978166    3.577045
 H     :    4.051222    3.936615    4.614869    3.223862    0.972975    5.033569
 H     :    3.940821    3.024863    4.154956    4.597002    4.933079    0.935603
 H     :    3.451757    2.467917    3.871474    3.825332    3.589886    0.962165
 H     :    3.202358    3.797241    3.545833    3.810576    6.156729    5.481582
 H     :    1.737465    2.390263    2.392807    2.243319    4.524158    4.379622
 H     :    3.641513    4.327885    3.155334    3.035040    4.328983    6.041979
 H     :    3.487027    4.116954    2.601009    3.329565    5.056555    5.551948

            O           O           H           H           H           H     
            ------      ------      ------      ------      ------      ------
 O     :    0.000000
 O     :    5.298724    0.000000
 H     :    5.487363    5.195438    0.000000
 H     :    5.866547    4.868295    1.650806    0.000000
 H     :    5.831759    6.447974    4.346236    5.874397    0.000000
 H     :    5.608021    5.915974    2.927690    4.500309    1.461617    0.000000
 H     :    0.975255    5.785643    6.194135    6.711607    5.879367    5.895966
 H     :    0.998659    4.722717    4.594340    5.094642    4.958317    4.656009
 H     :    5.032075    0.997520    5.145716    4.578421    6.927212    6.269882
 H     :    4.972613    0.976707    5.691851    5.562267    6.339319    6.014796

            H           H           H           H     
            ------      ------      ------      ------
 H     :    0.000000
 H     :    1.632824    0.000000
 H     :    5.632627    4.550885    0.000000
 H     :    5.316736    4.470419    1.639618    0.000000


  Max    interatomic separation is    6.9272 Angstrom (   13.0905 Bohr)
  between atoms   15 and   11, "H     " and "H     ".

  Min HX interatomic separation is    0.9356 Angstrom (    1.7680 Bohr)

  Min YX interatomic separation is    2.6995 Angstrom (    5.1013 Bohr)


  Bond distances (Angstrom):
  --------------------------

                  atom 1     atom 2       distance
                  ------     ------       --------
  bond distance:  H          N            0.988060
  bond distance:  H          N            1.071479
  bond distance:  H          N            1.022528
  bond distance:  H          O            0.978166
  bond distance:  H          O            0.972975
  bond distance:  H          O            0.935603
  bond distance:  H          O            0.962165
  bond distance:  H          O            0.975255
  bond distance:  H          O            0.998659
  bond distance:  H          O            0.997520
  bond distance:  H          O            0.976707


  Bond angles (degrees):
  ----------------------

                  atom 1     atom 2     atom 3         angle
                  ------     ------     ------         -----
  bond angle:     H          N          H            106.855
  bond angle:     H          N          H            107.198
  bond angle:     H          N          H            100.080
  bond angle:     H          O          H            115.574
  bond angle:     H          O          H            100.730
  bond angle:     H          O          H            111.619
  bond angle:     H          O          H            112.298




 Principal moments of inertia (u*A**2) and principal axes
 --------------------------------------------------------

   IA     405.437217         -0.285657    0.907802    0.307077
   IB     431.240293          0.788864    0.404685   -0.462520
   IC     590.580278          0.544146   -0.110120    0.831733


 Rotational constants
 --------------------

               A                   B                   C

           1246.5037           1171.9197            855.7330 MHz
            0.041579            0.039091            0.028544 cm-1


@  Nuclear repulsion energy :  178.419783625946 Hartree


                     .---------------------------------------.
                     | Starting in Integral Section (HERMIT) |
                     `---------------------------------------'



 ***************************************************************************************
 ****************** Output from **INTEGRALS input processing (HERMIT) ******************
 ***************************************************************************************



    *************************************************************************
    ****************** Output from HERMIT input processing ******************
    *************************************************************************


 Default print level:        1

 * Nuclear model: Point charge

 Calculation of one- and two-electron Hamiltonian integrals.

 The following one-electron property integrals are calculated as requested:
          - overlap integrals
          - dipole length integrals

 Center of mass  (bohr):     -0.727750846055     -1.047955503560      0.055780941691
 Operator center (bohr):      0.000000000000      0.000000000000      0.000000000000
 Gauge origin    (bohr):      0.000000000000      0.000000000000      0.000000000000
 Dipole origin   (bohr):      0.000000000000      0.000000000000      0.000000000000
 
  *********************************** 
  QMMM electrostatic potential: 
  Multipole order                                    0
  Isotropic polarization  
  *********************************** 
 
  ---------------- 
  QMMM information 
  ---------------- 
 
  MM coordinates in au 
  -------------------- 
     1    -10.829125      3.354228      9.554792
     2    -11.952242      2.881740      8.121187
     3    -11.929259      4.418444     10.554175
     4     -9.747517     -6.969040      6.482791
     5     -8.415060     -8.427084      6.440034
     6     -8.550415     -5.675541      7.179389
     7     -1.463058     -0.357952      9.899829
     8     -0.046714     -0.085285      8.780990
     9     -1.295770     -2.153556     10.535216
    10     -6.471700      6.521995      9.199814
    11     -8.153598      5.763765      9.225758
    12     -6.611022      8.216788      9.815782
    13     -5.261978     -5.654036      2.207170
    14     -4.984330     -4.262445      3.504482
    15     -4.392840     -5.104296      0.628859
    16      7.893832      0.233519     -0.179607
    17      8.885819      1.837379     -0.698532
    18      6.886888     -0.201022     -1.747566
    19     -8.755432      5.166978     -9.172368
    20    -10.005282      4.858803     -7.866165
    21     -7.324019      4.165400     -8.585587
    22      3.971462     -9.673867    -11.433372
    23      4.050639     -7.844181    -10.874767
    24      4.689845     -9.608700    -13.165722
    25      8.298674     -6.318235     -6.280225
    26      9.158832     -5.627298     -7.809715
    27      7.867852     -8.029152     -6.925568
    28     -2.382399      1.109602     -6.726654
    29     -2.992143      2.305647     -8.118059
    30     -3.320905     -0.393031     -7.410312
    31     -2.400712      7.136443     -6.249226
    32     -1.846493      6.228658     -7.762500
    33     -1.398239      6.661715     -4.764672
    34     -7.769322      1.348943      1.368502
    35     -6.593666      1.712001     -0.009413
    36     -8.584533      2.971676      1.735857
    37     -9.104572     10.270673      1.640690
    38    -10.130678     11.847519      1.378801
    39     -7.466599     10.773400      0.951568
    40      9.048050      3.506910      6.062805
    41      8.349626      5.080056      6.764947
    42      7.592356      3.015746      5.001340
    43      6.671270     -0.949922     -5.112586
    44      5.338701      0.031305     -5.925009
    45      6.294311     -2.756149     -5.153432
    46     -4.250453    -10.863189     11.543829
    47     -4.601963    -11.119859      9.669757
    48     -5.538974    -11.699756     12.537564
    49    -10.997097      5.410654      2.049372
    50    -10.318972      7.195453      1.931659
    51    -11.653854      5.311372      3.777655
    52     -2.383910     -6.079128    -11.411553
    53     -3.827121     -5.060112    -10.583470
    54     -2.753613     -7.841577    -11.434156
    55      5.287822     -8.662002      6.986523
    56      5.887723     -9.876347      5.700988
    57      4.122551     -7.526199      5.984519
    58      9.693855     -7.624540      9.278406
    59     11.123826     -7.618442      8.067904
    60      8.135532     -7.783018      8.212260
    61      2.527172      6.515870      9.237739
    62      1.605957      7.979093      9.914650
    63      3.677570      5.915026     10.717829
    64     10.734584     10.870967     11.245322
    65     10.640146     12.704300     10.721151
    66     10.537491     11.023249     13.096898
    67      6.691036     10.579853      3.595223
    68      8.132812     11.538934      2.873652
    69      7.208300      9.550385      4.999531
    70      2.424615     -0.838999      7.176730
    71      3.866244     -1.058664      8.341536
    72      3.106600      0.215981      5.741232
    73     -0.988950    -11.290649     -5.345247
    74     -0.498808    -12.504233     -6.638139
    75     -2.855524    -11.269395     -5.161054
    76      2.634420      2.298049     -6.167658
    77      0.986339      1.334984     -6.299693
    78      2.469972      3.439150     -4.830202
    79     -9.785631     -3.351151     -0.379068
    80     -8.494166     -4.345758      0.654713
    81     -9.567203     -1.577447      0.336827
    82      7.657149      8.138894      7.849053
    83      5.805010      8.211455      8.321600
    84      8.720415      9.084157      9.206294
    85      5.119678      1.777216      3.568933
    86      4.378567      3.394398      3.128476
    87      5.895787      1.029273      1.936162
    88      4.929111      3.860323    -10.537770
    89      6.482114      4.643407     -9.880558
    90      3.877291      3.341601     -8.963855
    91      1.081350     -6.566617     -4.192401
    92      1.578675     -5.950867     -5.873749
    93      0.501656     -8.301567     -4.565777
    94      9.027142      6.485602     -8.929999
    95      9.645043      5.264475     -7.793864
    96      9.254168      8.078987     -7.962117
    97     10.455647      4.577482     -3.093251
    98     11.176568      3.262680     -4.157528
    99     11.752220      4.908416     -1.766815
   100      7.486006     11.590784     -7.469345
   101      6.014501     11.898808     -8.548443
   102      6.612239     11.540701     -5.747192
   103     -1.980253     -9.096543      4.457915
   104     -0.690791     -7.835978      4.948178
   105     -3.242094     -8.019145      3.522143
   106      2.663359     -4.893476     -9.224163
   107      3.758027     -3.819274    -10.232232
   108      1.036222     -4.691117    -10.036664
   109      8.841768     -5.608118     -1.301991
   110      9.922287     -4.115264     -1.102538
   111      8.990098     -6.033835     -3.111772
   112     -3.159926      4.336657      5.152021
   113     -3.822247      5.097797      6.649062
   114     -1.206462      4.538584      4.969161
   115      0.655546     10.233356    -11.207673
   116      1.830175     11.794079    -11.189327
   117     -1.069770     10.987385    -11.416652
   118     -4.079743      5.853449      0.471351
   119     -2.245800      5.519850      0.007056
   120     -4.131809      5.442200      2.276409
   121     -7.338440    -10.296445     -4.666716
   122     -7.476308    -11.538836     -6.066168
   123     -6.354525    -10.975359     -3.264791
   124      4.213490     10.798808     -3.281052
   125      4.465878      9.712648     -1.734882
   126      2.887441     11.901176     -2.585593
   127     -6.579422      3.333987     -3.706284
   128     -5.906205      4.897966     -3.018983
   129     -5.228009      2.652900     -4.679296
   130      1.419791     11.000612      1.846894
   131      0.194224     12.238184      2.542935
   132      3.110393     11.751980      2.305723
   133      5.568186     -1.354174     11.542275
   134      7.193683     -2.271772     11.485088
   135      5.867477      0.477683     11.788597
   136     10.605978     -9.436060      1.993763
   137     11.278503     -8.511878      3.475254
   138     10.151807     -7.996932      0.838264
   139      1.679876      5.622661      4.229742
   140      1.104766      7.131910      3.307145
   141      2.434024      6.046105      5.971140
   142     10.662077      1.437806     -7.878034
   143      9.425810      0.292186     -7.117892
   144     12.244280      0.677127     -8.289132
   145      5.996636      6.651469      0.158471
   146      6.546754      7.890293      1.323506
   147      7.438245      6.272577     -0.881854
   148     -6.713052      9.698405     -8.745906
   149     -5.273065      9.322214     -7.740791
   150     -7.595686      8.018015     -9.004912
   151     -4.465391     10.966213     -0.318865
   152     -4.289004      9.126345     -0.147278
   153     -2.831071     11.606734      0.056420
   154     -5.851858     -3.157294     -8.269691
   155     -6.985773     -2.052983     -9.200500
   156     -6.870517     -4.056926     -6.795519
   157      9.843612     -3.934344    -10.843891
   158     11.417515     -2.983878    -11.160804
   159      9.990833     -5.397782    -11.969693
   160      2.455644     -5.405329      4.363880
   161      2.637015     -3.788266      5.450089
   162      3.060385     -5.040882      2.605371
   163     -5.923998    -11.336305      6.838624
   164     -6.624509    -12.743801      5.747587
   165     -4.381668    -10.492559      5.904444
   166     -3.256438      3.994575    -10.964527
   167     -2.581625      2.579127    -11.971596
   168     -4.228519      5.060365    -12.260286
   169     -6.379880     -3.904541      8.891063
   170     -5.794724     -2.713856      7.497662
   171     -4.697081     -4.619341      9.469665
   172     -9.050335     -0.874223    -11.501429
   173     -7.618505     -1.625837    -12.470985
   174     -9.706616      0.706584    -12.275854
   175     -8.719030     -5.434558     -4.877587
   176     -8.406460     -7.282816     -4.522082
   177     -9.404490     -4.676371     -3.348935
 
  MM charges 
  ---------- 
     1     -0.674440
     2      0.337220
     3      0.337220
     4     -0.674440
     5      0.337220
     6      0.337220
     7     -0.674440
     8      0.337220
     9      0.337220
    10     -0.674440
    11      0.337220
    12      0.337220
    13     -0.674440
    14      0.337220
    15      0.337220
    16     -0.674440
    17      0.337220
    18      0.337220
    19     -0.674440
    20      0.337220
    21      0.337220
    22     -0.674440
    23      0.337220
    24      0.337220
    25     -0.674440
    26      0.337220
    27      0.337220
    28     -0.674440
    29      0.337220
    30      0.337220
    31     -0.674440
    32      0.337220
    33      0.337220
    34     -0.674440
    35      0.337220
    36      0.337220
    37     -0.674440
    38      0.337220
    39      0.337220
    40     -0.674440
    41      0.337220
    42      0.337220
    43     -0.674440
    44      0.337220
    45      0.337220
    46     -0.674440
    47      0.337220
    48      0.337220
    49     -0.674440
    50      0.337220
    51      0.337220
    52     -0.674440
    53      0.337220
    54      0.337220
    55     -0.674440
    56      0.337220
    57      0.337220
    58     -0.674440
    59      0.337220
    60      0.337220
    61     -0.674440
    62      0.337220
    63      0.337220
    64     -0.674440
    65      0.337220
    66      0.337220
    67     -0.674440
    68      0.337220
    69      0.337220
    70     -0.674440
    71      0.337220
    72      0.337220
    73     -0.674440
    74      0.337220
    75      0.337220
    76     -0.674440
    77      0.337220
    78      0.337220
    79     -0.674440
    80      0.337220
    81      0.337220
    82     -0.674440
    83      0.337220
    84      0.337220
    85     -0.674440
    86      0.337220
    87      0.337220
    88     -0.674440
    89      0.337220
    90      0.337220
    91     -0.674440
    92      0.337220
    93      0.337220
    94     -0.674440
    95      0.337220
    96      0.337220
    97     -0.674440
    98      0.337220
    99      0.337220
   100     -0.674440
   101      0.337220
   102      0.337220
   103     -0.674440
   104      0.337220
   105      0.337220
   106     -0.674440
   107      0.337220
   108      0.337220
   109     -0.674440
   110      0.337220
   111      0.337220
   112     -0.674440
   113      0.337220
   114      0.337220
   115     -0.674440
   116      0.337220
   117      0.337220
   118     -0.674440
   119      0.337220
   120      0.337220
   121     -0.674440
   122      0.337220
   123      0.337220
   124     -0.674440
   125      0.337220
   126      0.337220
   127     -0.674440
   128      0.337220
   129      0.337220
   130     -0.674440
   131      0.337220
   132      0.337220
   133     -0.674440
   134      0.337220
   135      0.337220
   136     -0.674440
   137      0.337220
   138      0.337220
   139     -0.674440
   140      0.337220
   141      0.337220
   142     -0.674440
   143      0.337220
   144      0.337220
   145     -0.674440
   146      0.337220
   147      0.337220
   148     -0.674440
   149      0.337220
   150      0.337220
   151     -0.674440
   152      0.337220
   153      0.337220
   154     -0.674440
   155      0.337220
   156      0.337220
   157     -0.674440
   158      0.337220
   159      0.337220
   160     -0.674440
   161      0.337220
   162      0.337220
   163     -0.674440
   164      0.337220
   165      0.337220
   166     -0.674440
   167      0.337220
   168      0.337220
   169     -0.674440
   170      0.337220
   171      0.337220
   172     -0.674440
   173      0.337220
   174      0.337220
   175     -0.674440
   176      0.337220
   177      0.337220
 
  MM isotropic polarizabilities in au 
  ----------------------------------- 
     1      5.739350
     2      2.308390
     3      2.308390
     4      5.739350
     5      2.308390
     6      2.308390
     7      5.739350
     8      2.308390
     9      2.308390
    10      5.739350
    11      2.308390
    12      2.308390
    13      5.739350
    14      2.308390
    15      2.308390
    16      5.739350
    17      2.308390
    18      2.308390
    19      5.739350
    20      2.308390
    21      2.308390
    22      5.739350
    23      2.308390
    24      2.308390
    25      5.739350
    26      2.308390
    27      2.308390
    28      5.739350
    29      2.308390
    30      2.308390
    31      5.739350
    32      2.308390
    33      2.308390
    34      5.739350
    35      2.308390
    36      2.308390
    37      5.739350
    38      2.308390
    39      2.308390
    40      5.739350
    41      2.308390
    42      2.308390
    43      5.739350
    44      2.308390
    45      2.308390
    46      5.739350
    47      2.308390
    48      2.308390
    49      5.739350
    50      2.308390
    51      2.308390
    52      5.739350
    53      2.308390
    54      2.308390
    55      5.739350
    56      2.308390
    57      2.308390
    58      5.739350
    59      2.308390
    60      2.308390
    61      5.739350
    62      2.308390
    63      2.308390
    64      5.739350
    65      2.308390
    66      2.308390
    67      5.739350
    68      2.308390
    69      2.308390
    70      5.739350
    71      2.308390
    72      2.308390
    73      5.739350
    74      2.308390
    75      2.308390
    76      5.739350
    77      2.308390
    78      2.308390
    79      5.739350
    80      2.308390
    81      2.308390
    82      5.739350
    83      2.308390
    84      2.308390
    85      5.739350
    86      2.308390
    87      2.308390
    88      5.739350
    89      2.308390
    90      2.308390
    91      5.739350
    92      2.308390
    93      2.308390
    94      5.739350
    95      2.308390
    96      2.308390
    97      5.739350
    98      2.308390
    99      2.308390
   100      5.739350
   101      2.308390
   102      2.308390
   103      5.739350
   104      2.308390
   105      2.308390
   106      5.739350
   107      2.308390
   108      2.308390
   109      5.739350
   110      2.308390
   111      2.308390
   112      5.739350
   113      2.308390
   114      2.308390
   115      5.739350
   116      2.308390
   117      2.308390
   118      5.739350
   119      2.308390
   120      2.308390
   121      5.739350
   122      2.308390
   123      2.308390
   124      5.739350
   125      2.308390
   126      2.308390
   127      5.739350
   128      2.308390
   129      2.308390
   130      5.739350
   131      2.308390
   132      2.308390
   133      5.739350
   134      2.308390
   135      2.308390
   136      5.739350
   137      2.308390
   138      2.308390
   139      5.739350
   140      2.308390
   141      2.308390
   142      5.739350
   143      2.308390
   144      2.308390
   145      5.739350
   146      2.308390
   147      2.308390
   148      5.739350
   149      2.308390
   150      2.308390
   151      5.739350
   152      2.308390
   153      2.308390
   154      5.739350
   155      2.308390
   156      2.308390
   157      5.739350
   158      2.308390
   159      2.308390
   160      5.739350
   161      2.308390
   162      2.308390
   163      5.739350
   164      2.308390
   165      2.308390
   166      5.739350
   167      2.308390
   168      2.308390
   169      5.739350
   170      2.308390
   171      2.308390
   172      5.739350
   173      2.308390
   174      2.308390
   175      5.739350
   176      2.308390
   177      2.308390


     ************************************************************************
     ************************** Output from HERINT **************************
     ************************************************************************



                      Nuclear contribution to dipole moments
                      --------------------------------------

                 au               Debye          C m (/(10**-30)

      x    -35.27548545       -89.66133489      -299.07802049
      y    -53.03493504      -134.80135032      -449.64890451
      z      1.91707613         4.87272118        16.25364831


  Time used in HUCKEL     is       1.41 seconds
  Time used in OVERLAP    is       0.15 seconds
  Time used in POPOVLP    is       0.23 seconds
  Time used in DIPLEN     is       0.89 seconds
  Time used in QUADRUP    is       0.40 seconds
  Time used in KINENE     is       0.26 seconds

 Threshold for neglecting two-electron integrals:  1.00D-12
 HERMIT - Number of two-electron integrals written:    26422756 ( 35.2% )
 HERMIT - Megabytes written:                            302.553

  Time used in TWOINT     is      13.61 seconds
  Total CPU  time used in HERMIT:  17.01 seconds
  Total wall time used in HERMIT:   6.63 seconds


                        .----------------------------------.
                        | End of Integral Section (HERMIT) |
                        `----------------------------------'



                   .--------------------------------------------.
                   | Starting in Wave Function Section (SIRIUS) |
                   `--------------------------------------------'

NCCEXCI for singlet:   15
 CCSD_INPUT: core-val requested
 Requested number of core orbs per sym
                     1
 Indices of requested core orbs
                     1

 *** Output from Huckel module :

     Using EWMO model:          T
     Using EHT  model:          F
     Number of Huckel orbitals each symmetry:   36

 EWMO - Energy Weighted Maximum Overlap - is a Huckel type method,
        which normally is better than Extended Huckel Theory.
 Reference: Linderberg and Ohrn, Propagators in Quantum Chemistry (Wiley, 1973)

 Huckel EWMO eigenvalues for symmetry :  1
          -20.685141     -20.684681     -20.684536     -20.684513     -15.673790
           -1.703140      -1.622685      -1.592448      -1.587110      -1.465866
           -0.823890      -0.806910      -0.795684      -0.769833      -0.736742
           -0.710573      -0.692052      -0.677056      -0.673076      -0.659184
           -0.617195      -0.615660      -0.606680      -0.598619      -0.511731
           -0.253290      -0.243827      -0.229313      -0.223302      -0.183798
           -0.175172      -0.171604      -0.164589      -0.158822      -0.154487
           -0.138801

 **********************************************************************
 *SIRIUS* a direct, restricted step, second order MCSCF program       *
 **********************************************************************

 
     Date and time (Linux)  : Mon Nov 19 15:34:12 2018
     Host name              : n-62-23-21                              

 Title lines from ".mol" input file:
                                                                             
                                                                             

 Print level on unit LUPRI =   2 is   0
 Print level on unit LUW4  =   2 is  11

@    (Integral direct) CC calculation.

@    This is a combination run starting with
@              a restricted, closed shell Hartree-Fock calculation


 Initial molecular orbitals are obtained according to
 ".MOSTART EWMO  " input option

@    QM part is embedded in an environment :

@         Model: QMMM

     Wave function specification
     ============================

     For the specification of the Coupled Cluster: see later.

@    Wave function type        --- CC ---
@    Number of closed shell electrons          50
@    Number of electrons in active shells       0
@    Total charge of the molecule               0

@    Spin multiplicity and 2 M_S                1         0
@    Total number of symmetries                 1 (point group: C1 )
@    Reference state symmetry                   1 (irrep name : A  )

     Orbital specifications
     ======================
@    Abelian symmetry species          All |    1
@                                          |  A  
                                       --- |  ---
@    Occupied SCF orbitals              25 |   25
@    Secondary orbitals                131 |  131
@    Total number of orbitals          156 |  156
@    Number of basis functions         156 |  156

     Optimization information
     ========================
@    Number of configurations                 1
@    Number of orbital rotations           3275
     ------------------------------------------
@    Total number of variables             3276

     Maximum number of Fock   iterations      0
     Maximum number of DIIS   iterations     60
     Maximum number of QC-SCF iterations     60
     Threshold for SCF convergence     1.00D-07


 Changes of defaults for CC:
 ---------------------------


 -Implicit frozen core calculation
 -Excitation energies calculated
 -One-photon absorption strengths will be calculated
 -Oscillator strengths calculated
  
* Read MO coefficients from SIRIUS.RST with label "NEWORB  " and header info: 19Nov18  REORTHO 


 ***********************************************
 ***** DIIS acceleration of SCF iterations *****
 ***********************************************

 C1-DIIS algorithm; max error vectors =    8
 -----------------------------------------------------------------------------

 *** DIIS iteration number    1
 RDSUPM called. NFMAT, ISYMDM(1:NFMAT)                     1
                     1

Calculating AOSUPINT
     (Precalculated two-electron integrals are transformed to P-supermatrix elements.
      Threshold for discarding integrals :  1.00D-12 )
  CPU  time used in FORMSUP    is   6.68 seconds
  WALL time used in FORMSUP    is  13.07 seconds

 ITDIIS, energy, error norm, change in energy, scr.thr., difden:
@ DIIS iter.   1    -359.927989020        3.82880D+00   -3.60D+02  -20    F

 (DIIS_RED) Control Parameters C2DIIS =         F NEVC =    1


 (DIIS_RED) B matrix:

               Column   1
       1      14.65971296
    ==== End of matrix output ====

 DIIS C vector; C2DIIS = F, LAMBDA = -1.47D+01
    1.000000
* Read MO coefficients from SIRIUS.RST with label "NEWORB  " and header info: 19Nov18  DIIS   1
      Virial theorem: -V/T =      1.998242
@      MULPOP N      -0.36; H       0.16; H       0.16; H       0.17; O      -0.64; O      -0.62; O      -0.84; O      -0.65; H       0.33; H       0.32; 
@             H       0.32; H       0.34; H       0.32; H       0.33; H       0.33; H       0.33; 
   1  Level shift: doubly occupied orbital energies shifted by -2.00D-01

 DIIS Fock eigenvalues in symmetry 1
      -20.73449      -20.70260      -20.69732      -20.55979      -15.99236
       -1.57111       -1.52702       -1.51575       -1.48471       -1.44152
       -0.95657       -0.93383       -0.93067       -0.91912       -0.90962
       -0.90477       -0.81574       -0.77424       -0.76839       -0.76542
       -0.75799       -0.73004       -0.72840       -0.70785       -0.68412
        0.11144        0.16093        0.17718        0.18628        0.22020
        0.23761        0.25927        0.29894        0.31614        0.32152
        0.33472        0.42104        0.44613        0.52017        0.55544
        0.56292        0.57020        0.57889        0.59217        0.61022
        0.62542        0.64473        0.81774        0.86985        0.89703
        0.93982        0.96463        0.96994        0.98520        0.99385
        1.02853        1.06449        1.07673        1.10158        1.10630
        1.12836        1.14063        1.22664        1.23722        1.27623
        1.31353        1.36714        1.37267        1.41580        1.42590
        1.45547        1.48783        1.51116        1.53388        1.60922
        1.61510        1.62896        1.65313        1.69815        1.72550
        1.73590        1.76605        1.78941        1.80821        1.83013
        1.83512        1.90492        1.91578        1.97990        2.04243
        2.15499        2.22703        2.25051        2.27725        2.29131
        2.29572        2.31585        2.37817        2.44679        2.48850
        2.56322        2.61386        2.63091        2.64577        2.65628
        2.67068        2.74196        2.74760        2.75514        2.78788
        2.80072        2.84675        2.93581        3.00672        3.29512
        3.35673        3.39510        3.40708        3.46475        3.46864
        3.50997        3.52687        3.54252        3.59293        3.59492
        3.61635        3.67420        3.69261        3.96390        4.03465
        4.06495        4.08527        4.15112        4.15843        4.20434
        4.27797        4.48232        4.88589        5.09348        5.32929
        5.33897        5.36719        5.43106        5.65621        5.68781
        5.75865        5.83574        6.14738        6.15943        6.19362
        6.27338       36.77517       51.57022       51.57639       51.57976
       51.74065
 Time used in FCKEIG, thr_jaco:   6.89D-01  7.30D-02  1.67D-04
 CPU and wall times used in FCKEIG, THR_FCKEIG:   6.90D-01  7.30D-02  3.83D-02
 -----------------------------------------------------------------------------

 *** DIIS iteration number    2
 RDSUPM called. NFMAT, ISYMDM(1:NFMAT)                     1
                     1

 ITDIIS, energy, error norm, change in energy, scr.thr., difden:
@ DIIS iter.   2    -360.730932404        9.36385D-01   -8.03D-01  -20    F

 (DIIS_RED) Control Parameters C2DIIS =         F NEVC =    2


 (DIIS_RED) B matrix:

               Column   1     Column   2
       1      14.65971296
       2       1.04124170     0.87681620
    ==== End of matrix output ====

 DIIS C vector; C2DIIS = F, LAMBDA = -8.75D-01
   -0.012221    1.012221
* Read MO coefficients from SIRIUS.RST with label "NEWORB  " and header info: 19Nov18  DIIS   2
      Virial theorem: -V/T =      2.003257
@      MULPOP N      -0.66; H       0.24; H       0.23; H       0.23; O      -0.58; O      -0.58; O      -0.67; O      -0.63; H       0.31; H       0.29; 
@             H       0.29; H       0.32; H       0.26; H       0.32; H       0.34; H       0.31; 
   2  Level shift: doubly occupied orbital energies shifted by -5.00D-02

 DIIS Fock eigenvalues in symmetry 1
      -20.67696      -20.59819      -20.59495      -20.59410      -15.47687
       -1.39874       -1.39207       -1.36642       -1.35661       -1.15319
       -0.77653       -0.75441       -0.74335       -0.73479       -0.66908
       -0.64986       -0.63867       -0.62835       -0.60938       -0.60595
       -0.59283       -0.56480       -0.55273       -0.55041       -0.46584
        0.15766        0.19106        0.20433        0.20980        0.25527
        0.27407        0.27894        0.32820        0.33968        0.34756
        0.37516        0.48635        0.51058        0.56194        0.59441
        0.59610        0.60316        0.60901        0.62776        0.64978
        0.67388        0.71067        0.90870        0.94759        0.95712
        0.97280        0.98166        0.99505        0.99540        1.04076
        1.05204        1.09371        1.10254        1.12001        1.12426
        1.12972        1.17183        1.28289        1.33105        1.33977
        1.36790        1.40303        1.43097        1.43991        1.47246
        1.51243        1.54369        1.56898        1.58010        1.63560
        1.65527        1.67376        1.72059        1.74854        1.77994
        1.79615        1.83563        1.86339        1.86666        1.88606
        1.90190        1.98352        1.99622        2.05771        2.15304
        2.27037        2.29358        2.29879        2.31014        2.32808
        2.35621        2.37538        2.45813        2.52638        2.57836
        2.63433        2.65048        2.69500        2.70786        2.72933
        2.74876        2.80007        2.80879        2.81560        2.86816
        2.94012        3.00475        3.05676        3.15097        3.40538
        3.41858        3.43330        3.47915        3.50272        3.53964
        3.55148        3.55263        3.55689        3.57127        3.62415
        3.62503        3.64814        3.74049        4.00781        4.02639
        4.06391        4.11527        4.16128        4.18142        4.18648
        4.32166        4.66449        5.11644        5.28769        5.31164
        5.34339        5.37338        5.38155        5.64078        5.65883
        5.69047        5.86301        6.16898        6.17657        6.20525
        6.21756       37.13433       51.47896       51.52606       51.53663
       51.56855
 Time used in FCKEIG, thr_jaco:   3.01D-01  3.10D-02  4.09D-05
 CPU and wall times used in FCKEIG, THR_FCKEIG:   3.01D-01  3.10D-02  9.36D-03
 -----------------------------------------------------------------------------

 *** DIIS iteration number    3
 RDSUPM called. NFMAT, ISYMDM(1:NFMAT)                     1
                     1

 ITDIIS, energy, error norm, change in energy, scr.thr., difden:
@ DIIS iter.   3    -360.791945064        3.42815D-01   -6.10D-02  -20    F

 (DIIS_RED) Control Parameters C2DIIS =         F NEVC =    3


 (DIIS_RED) B matrix:

               Column   1     Column   2     Column   3
       1      14.65971296
       2       1.04124170     0.87681620
       3       0.62085081     0.05660850     0.11752196
    ==== End of matrix output ====

 DIIS C vector; C2DIIS = F, LAMBDA = -9.16D-02
   -0.040429    0.091216    0.949213
* Read MO coefficients from SIRIUS.RST with label "NEWORB  " and header info: 19Nov18  DIIS   3
      Virial theorem: -V/T =      2.001654
@      MULPOP N      -0.58; H       0.22; H       0.19; H       0.21; O      -0.62; O      -0.63; O      -0.75; O      -0.68; H       0.33; H       0.31; 
@             H       0.31; H       0.34; H       0.31; H       0.36; H       0.37; H       0.33; 
   3  Level shift: doubly occupied orbital energies shifted by -2.50D-02

 DIIS Fock eigenvalues in symmetry 1
      -20.55414      -20.54447      -20.54046      -20.51866      -15.59128
       -1.36072       -1.33075       -1.33029       -1.31961       -1.16550
       -0.71984       -0.71743       -0.70989       -0.69715       -0.66389
       -0.62586       -0.60848       -0.58321       -0.56801       -0.56644
       -0.52481       -0.51765       -0.50805       -0.50465       -0.46400
        0.16035        0.19521        0.20807        0.21254        0.25666
        0.27548        0.28117        0.33012        0.34150        0.34874
        0.37493        0.48449        0.50817        0.57495        0.60299
        0.60527        0.61117        0.61660        0.63477        0.65705
        0.67871        0.71143        0.91037        0.94926        0.96725
        0.98238        0.99187        0.99860        1.00692        1.03992
        1.06399        1.10407        1.11589        1.13229        1.13574
        1.14215        1.17714        1.28342        1.33303        1.34423
        1.36874        1.40982        1.43472        1.45041        1.47860
        1.52158        1.55395        1.58078        1.58656        1.65164
        1.66546        1.68320        1.72679        1.75828        1.78929
        1.80335        1.84106        1.86697        1.87457        1.89481
        1.90535        1.98707        1.99887        2.06154        2.14203
        2.25916        2.30052        2.30874        2.33298        2.33935
        2.36732        2.38753        2.46671        2.54014        2.57769
        2.64116        2.66354        2.70402        2.71734        2.73472
        2.75553        2.80909        2.81631        2.82238        2.87323
        2.91639        2.97548        3.04733        3.12719        3.42735
        3.44822        3.45346        3.45907        3.49548        3.53292
        3.56587        3.57426        3.58921        3.59208        3.64294
        3.66568        3.67372        3.75380        4.02070        4.07142
        4.08397        4.13329        4.19914        4.20663        4.21333
        4.33578        4.60995        5.05703        5.25818        5.36220
        5.37685        5.38204        5.40120        5.68116        5.71205
        5.71536        5.87709        6.19138        6.21993        6.23929
        6.24980       36.99921       51.55488       51.56532       51.58466
       51.61136
 Time used in FCKEIG, thr_jaco:   2.56D-01  2.60D-02  1.50D-05
 CPU and wall times used in FCKEIG, THR_FCKEIG:   2.56D-01  2.60D-02  3.43D-03
 -----------------------------------------------------------------------------

 *** DIIS iteration number    4
 RDSUPM called. NFMAT, ISYMDM(1:NFMAT)                     1
                     1

 ITDIIS, energy, error norm, change in energy, scr.thr., difden:
@ DIIS iter.   4    -360.800012282        1.18381D-01   -8.07D-03  -20    F

 (DIIS_RED) Control Parameters C2DIIS =         F NEVC =    4


 (DIIS_RED) B matrix:

               Column   1     Column   2     Column   3     Column   4
       1      14.65971296
       2       1.04124170     0.87681620
       3       0.62085081     0.05660850     0.11752196
       4       0.00133511     0.08304136    -0.00977357     0.01401412
    ==== End of matrix output ====

 DIIS C vector; C2DIIS = F, LAMBDA = -3.77D-03
    0.000413   -0.095234    0.154022    0.940799
* Read MO coefficients from SIRIUS.RST with label "NEWORB  " and header info: 19Nov18  DIIS   4
      Virial theorem: -V/T =      2.002244
@      MULPOP N      -0.66; H       0.24; H       0.21; H       0.23; O      -0.63; O      -0.65; O      -0.73; O      -0.69; H       0.33; H       0.31; 
@             H       0.32; H       0.35; H       0.30; H       0.36; H       0.37; H       0.33; 
   4  Level shift: doubly occupied orbital energies shifted by -1.25D-02

 DIIS Fock eigenvalues in symmetry 1
      -20.54705      -20.54598      -20.53959      -20.53466      -15.54146
       -1.35152       -1.33103       -1.32135       -1.31002       -1.14081
       -0.71534       -0.70829       -0.70023       -0.68726       -0.64179
       -0.60263       -0.59598       -0.57884       -0.55615       -0.55458
       -0.51411       -0.51140       -0.49538       -0.49123       -0.44069
        0.16103        0.19406        0.20737        0.21177        0.25755
        0.27627        0.28071        0.33151        0.34041        0.35012
        0.37725        0.48871        0.51279        0.57553        0.60265
        0.60350        0.61019        0.61602        0.63402        0.65625
        0.67662        0.71514        0.91503        0.95475        0.96913
        0.98311        0.99206        0.99876        1.00745        1.04382
        1.06382        1.10349        1.11481        1.13096        1.13521
        1.13839        1.17697        1.28458        1.33752        1.34407
        1.37134        1.41136        1.43594        1.44917        1.47735
        1.51986        1.55243        1.57892        1.58457        1.64937
        1.66426        1.68159        1.72562        1.75807        1.78816
        1.80298        1.84299        1.86971        1.87366        1.89375
        1.90767        1.98651        2.00188        2.06481        2.14991
        2.26647        2.29850        2.30678        2.32667        2.33698
        2.36479        2.38534        2.46338        2.54122        2.58313
        2.63852        2.66133        2.70270        2.71623        2.73790
        2.75705        2.80865        2.81534        2.82319        2.87135
        2.92796        2.98846        3.05495        3.13792        3.43131
        3.44435        3.45044        3.46150        3.50432        3.53773
        3.56419        3.57232        3.58051        3.58760        3.64089
        3.66057        3.66608        3.75229        4.01870        4.06174
        4.08137        4.13088        4.19522        4.20333        4.20585
        4.33430        4.62770        5.07677        5.27393        5.35540
        5.36240        5.38113        5.39594        5.67834        5.69538
        5.70891        5.87460        6.18780        6.21641        6.23023
        6.23520       37.03586       51.54836       51.55765       51.57217
       51.57988
 Time used in FCKEIG, thr_jaco:   2.41D-01  2.40D-02  5.17D-06
 CPU and wall times used in FCKEIG, THR_FCKEIG:   2.42D-01  2.40D-02  1.18D-03
 -----------------------------------------------------------------------------

 *** DIIS iteration number    5
 RDSUPM called. NFMAT, ISYMDM(1:NFMAT)                     1
                     1

 ITDIIS, energy, error norm, change in energy, scr.thr., difden:
@ DIIS iter.   5    -360.801123208        2.28201D-02   -1.11D-03  -20    F

 (DIIS_RED) Control Parameters C2DIIS =         F NEVC =    5


 (DIIS_RED) B matrix:

               Column   1     Column   2     Column   3     Column   4     Column   5
       1      14.65971296
       2       1.04124170     0.87681620
       3       0.62085081     0.05660850     0.11752196
       4       0.00133511     0.08304136    -0.00977357     0.01401412
       5       0.01231652     0.00623534     0.00468643     0.00074982     0.00052075
    ==== End of matrix output ====

 DIIS C vector; C2DIIS = F, LAMBDA = -2.67D-04
    0.001354    0.007451   -0.067436   -0.136171    1.194802
* Read MO coefficients from SIRIUS.RST with label "NEWORB  " and header info: 19Nov18  DIIS   5
      Virial theorem: -V/T =      2.001963
@      MULPOP N      -0.65; H       0.24; H       0.21; H       0.22; O      -0.64; O      -0.66; O      -0.75; O      -0.71; H       0.34; H       0.32; 
@             H       0.33; H       0.35; H       0.31; H       0.36; H       0.38; H       0.34; 

 DIIS Fock eigenvalues in symmetry 1
      -20.53373      -20.52734      -20.52610      -20.52106      -15.52609
       -1.33889       -1.31628       -1.30865       -1.29710       -1.12761
       -0.70172       -0.69617       -0.68813       -0.67498       -0.62911
       -0.58943       -0.58373       -0.56444       -0.54348       -0.54195
       -0.49873       -0.49790       -0.48188       -0.47736       -0.42704
        0.16100        0.19396        0.20724        0.21160        0.25750
        0.27626        0.28044        0.33169        0.33999        0.35014
        0.37732        0.48886        0.51291        0.57600        0.60246
        0.60344        0.61022        0.61588        0.63382        0.65611
        0.67613        0.71543        0.91596        0.95557        0.97024
        0.98361        0.99271        0.99935        1.00799        1.04429
        1.06470        1.10373        1.11528        1.13092        1.13508
        1.13900        1.17680        1.28475        1.33784        1.34430
        1.37152        1.41165        1.43590        1.44994        1.47701
        1.51935        1.55208        1.57914        1.58418        1.64996
        1.66400        1.68116        1.72524        1.75826        1.78778
        1.80254        1.84305        1.86968        1.87322        1.89331
        1.90782        1.98591        2.00208        2.06503        2.15022
        2.26646        2.29788        2.30626        2.32720        2.33632
        2.36426        2.38498        2.46275        2.54164        2.58339
        2.63783        2.66138        2.70213        2.71574        2.73775
        2.75682        2.80830        2.81468        2.82295        2.87055
        2.92851        2.98895        3.05540        3.13842        3.43171
        3.44660        3.45097        3.46230        3.50467        3.53810
        3.56408        3.57277        3.58248        3.58773        3.64106
        3.66227        3.66695        3.75215        4.01862        4.06379
        4.08168        4.13087        4.19604        4.20454        4.20661
        4.33424        4.62916        5.07800        5.27498        5.35768
        5.36431        5.38175        5.39699        5.67889        5.69875
        5.70934        5.87473        6.18812        6.21638        6.23321
        6.23546       37.03866       51.54946       51.55874       51.57754
       51.58123
 Time used in FCKEIG, thr_jaco:   2.44D-01  2.50D-02  9.97D-07
 CPU and wall times used in FCKEIG, THR_FCKEIG:   2.44D-01  2.50D-02  2.28D-04
 -----------------------------------------------------------------------------

 *** DIIS iteration number    6
 RDSUPM called. NFMAT, ISYMDM(1:NFMAT)                     1
                     1

 ITDIIS, energy, error norm, change in energy, scr.thr., difden:
@ DIIS iter.   6    -360.801200502        6.95581D-03   -7.73D-05  -20    F

 (DIIS_RED) Control Parameters C2DIIS =         F NEVC =    6


 (DIIS_RED) B matrix:

               Column   1     Column   2     Column   3     Column   4     Column   5     Column   6
       1      14.65971296
       2       1.04124170     0.87681620
       3       0.62085081     0.05660850     0.11752196
       4       0.00133511     0.08304136    -0.00977357     0.01401412
       5       0.01231652     0.00623534     0.00468643     0.00074982     0.00052075
       6      -0.00243757    -0.00026339     0.00046171     0.00016014     0.00006191     0.00004838
    ==== End of matrix output ====

 DIIS C vector; C2DIIS = F, LAMBDA = -3.05D-05
    0.000432    0.006928   -0.020768   -0.071856    0.143791    0.941473
* Read MO coefficients from SIRIUS.RST with label "NEWORB  " and header info: 19Nov18  DIIS   6
      Virial theorem: -V/T =      2.002081
@      MULPOP N      -0.65; H       0.24; H       0.21; H       0.22; O      -0.64; O      -0.66; O      -0.75; O      -0.71; H       0.34; H       0.32; 
@             H       0.33; H       0.36; H       0.31; H       0.36; H       0.38; H       0.34; 

 DIIS Fock eigenvalues in symmetry 1
      -20.53428      -20.52948      -20.52655      -20.52136      -15.52913
       -1.33906       -1.31683       -1.30878       -1.29713       -1.12858
       -0.70231       -0.69643       -0.68841       -0.67517       -0.62997
       -0.59022       -0.58414       -0.56505       -0.54366       -0.54220
       -0.49907       -0.49799       -0.48191       -0.47725       -0.42793
        0.16088        0.19387        0.20715        0.21150        0.25738
        0.27612        0.28034        0.33157        0.33988        0.34999
        0.37711        0.48855        0.51259        0.57568        0.60233
        0.60331        0.61005        0.61575        0.63367        0.65598
        0.67595        0.71513        0.91545        0.95507        0.96981
        0.98350        0.99242        0.99909        1.00790        1.04389
        1.06454        1.10354        1.11511        1.13079        1.13484
        1.13876        1.17655        1.28444        1.33751        1.34411
        1.37116        1.41138        1.43559        1.44958        1.47678
        1.51915        1.55191        1.57890        1.58392        1.64969
        1.66387        1.68099        1.72498        1.75801        1.78763
        1.80233        1.84275        1.86938        1.87302        1.89315
        1.90745        1.98562        2.00175        2.06467        2.14960
        2.26583        2.29758        2.30606        2.32685        2.33609
        2.36404        2.38481        2.46248        2.54125        2.58292
        2.63758        2.66119        2.70192        2.71555        2.73744
        2.75657        2.80812        2.81446        2.82270        2.87028
        2.92760        2.98796        3.05473        3.13755        3.43132
        3.44595        3.45082        3.46139        3.50397        3.53737
        3.56383        3.57262        3.58187        3.58752        3.64088
        3.66183        3.66667        3.75190        4.01837        4.06309
        4.08152        4.13066        4.19569        4.20415        4.20630
        4.33398        4.62756        5.07641        5.27364        5.35704
        5.36366        5.38130        5.39676        5.67873        5.69765
        5.70907        5.87439        6.18793        6.21602        6.23217
        6.23512       37.03569       51.54915       51.55825       51.57574
       51.58041
 Time used in FCKEIG, thr_jaco:   2.30D-01  2.30D-02  3.04D-07
 CPU and wall times used in FCKEIG, THR_FCKEIG:   2.30D-01  2.30D-02  6.96D-05
 -----------------------------------------------------------------------------

 *** DIIS iteration number    7
 RDSUPM called. NFMAT, ISYMDM(1:NFMAT)                     1
                     1

 ITDIIS, energy, error norm, change in energy, scr.thr., difden:
@ DIIS iter.   7    -360.801205589        2.37022D-03   -5.09D-06  -20    F

 (DIIS_RED) Control Parameters C2DIIS =         F NEVC =    7


 (DIIS_RED) B matrix:

               Column   1     Column   2     Column   3     Column   4     Column   5     Column   6
       1      14.65971296
       2       1.04124170     0.87681620
       3       0.62085081     0.05660850     0.11752196
       4       0.00133511     0.08304136    -0.00977357     0.01401412
       5       0.01231652     0.00623534     0.00468643     0.00074982     0.00052075
       6      -0.00243757    -0.00026339     0.00046171     0.00016014     0.00006191     0.00004838
       7       0.00065480     0.00003809     0.00006467     0.00000020     0.00003120    -0.00000046

               Column   7
       7       0.00000562
    ==== End of matrix output ====

 DIIS C vector; C2DIIS = F, LAMBDA = -1.21D-06
   -0.000202   -0.001463    0.009617    0.023741   -0.167799    0.061368    1.074738
* Read MO coefficients from SIRIUS.RST with label "NEWORB  " and header info: 19Nov18  DIIS   7
      Virial theorem: -V/T =      2.002052
@      MULPOP N      -0.65; H       0.24; H       0.21; H       0.22; O      -0.64; O      -0.66; O      -0.75; O      -0.71; H       0.34; H       0.32; 
@             H       0.33; H       0.36; H       0.31; H       0.36; H       0.38; H       0.34; 

 DIIS Fock eigenvalues in symmetry 1
      -20.53424      -20.52875      -20.52648      -20.52132      -15.52850
       -1.33903       -1.31650       -1.30872       -1.29708       -1.12837
       -0.70208       -0.69642       -0.68841       -0.67518       -0.62985
       -0.59009       -0.58417       -0.56481       -0.54371       -0.54222
       -0.49874       -0.49789       -0.48183       -0.47716       -0.42771
        0.16091        0.19390        0.20717        0.21152        0.25738
        0.27615        0.28034        0.33162        0.33987        0.35001
        0.37716        0.48861        0.51266        0.57583        0.60235
        0.60335        0.61010        0.61577        0.63369        0.65599
        0.67594        0.71520        0.91560        0.95521        0.96997
        0.98354        0.99250        0.99916        1.00793        1.04398
        1.06464        1.10358        1.11518        1.13082        1.13488
        1.13888        1.17658        1.28453        1.33757        1.34416
        1.37122        1.41146        1.43564        1.44974        1.47679
        1.51914        1.55190        1.57899        1.58394        1.64985
        1.66386        1.68098        1.72499        1.75812        1.78762
        1.80232        1.84283        1.86943        1.87302        1.89314
        1.90753        1.98562        2.00181        2.06474        2.14968
        2.26591        2.29757        2.30605        2.32699        2.33608
        2.36404        2.38479        2.46246        2.54138        2.58299
        2.63755        2.66130        2.70191        2.71554        2.73744
        2.75657        2.80817        2.81445        2.82271        2.87026
        2.92777        2.98813        3.05485        3.13770        3.43140
        3.44626        3.45087        3.46157        3.50410        3.53750
        3.56386        3.57267        3.58216        3.58757        3.64092
        3.66206        3.66680        3.75193        4.01839        4.06340
        4.08157        4.13069        4.19582        4.20433        4.20643
        4.33402        4.62792        5.07671        5.27390        5.35729
        5.36390        5.38138        5.39684        5.67877        5.69808
        5.70911        5.87442        6.18796        6.21605        6.23258
        6.23518       37.03630       51.54919       51.55833       51.57634
       51.58055
 Time used in FCKEIG, thr_jaco:   2.29D-01  2.30D-02  1.04D-07
 CPU and wall times used in FCKEIG, THR_FCKEIG:   2.29D-01  2.30D-02  2.37D-05
 -----------------------------------------------------------------------------

 *** DIIS iteration number    8
 RDSUPM called. NFMAT, ISYMDM(1:NFMAT)                     1
                     1

 ITDIIS, energy, error norm, change in energy, scr.thr., difden:
@ DIIS iter.   8    -360.801206158        3.50608D-04   -5.69D-07  -20    F

 (DIIS_RED) Control Parameters C2DIIS =         F NEVC =    8


 (DIIS_RED) B matrix:

               Column   1     Column   2     Column   3     Column   4     Column   5     Column   6
       1      14.65971296
       2       1.04124170     0.87681620
       3       0.62085081     0.05660850     0.11752196
       4       0.00133511     0.08304136    -0.00977357     0.01401412
       5       0.01231652     0.00623534     0.00468643     0.00074982     0.00052075
       6      -0.00243757    -0.00026339     0.00046171     0.00016014     0.00006191     0.00004838
       7       0.00065480     0.00003809     0.00006467     0.00000020     0.00003120    -0.00000046
       8      -0.00000367     0.00000526    -0.00000037     0.00000367     0.00000104     0.00000130

               Column   7     Column   8
       7       0.00000562
       8       0.00000027     0.00000012
    ==== End of matrix output ====

 DIIS C vector; C2DIIS = F, LAMBDA = -5.40D-08
    0.000024    0.000100   -0.001293   -0.002850    0.029784   -0.048453   -0.207175    1.229863
* Read MO coefficients from SIRIUS.RST with label "NEWORB  " and header info: 19Nov18  DIIS   8
      Virial theorem: -V/T =      2.002068
@      MULPOP N      -0.65; H       0.24; H       0.21; H       0.22; O      -0.64; O      -0.66; O      -0.75; O      -0.71; H       0.34; H       0.32; 
@             H       0.33; H       0.36; H       0.31; H       0.36; H       0.38; H       0.34; 

 DIIS Fock eigenvalues in symmetry 1
      -20.53423      -20.52878      -20.52649      -20.52132      -15.52854
       -1.33902       -1.31650       -1.30872       -1.29708       -1.12839
       -0.70208       -0.69642       -0.68840       -0.67518       -0.62987
       -0.59010       -0.58418       -0.56482       -0.54373       -0.54224
       -0.49874       -0.49789       -0.48184       -0.47715       -0.42772
        0.16090        0.19390        0.20716        0.21152        0.25738
        0.27615        0.28033        0.33162        0.33987        0.35000
        0.37715        0.48860        0.51265        0.57582        0.60234
        0.60335        0.61010        0.61577        0.63369        0.65598
        0.67594        0.71519        0.91559        0.95520        0.96997
        0.98354        0.99249        0.99915        1.00793        1.04397
        1.06464        1.10358        1.11518        1.13082        1.13488
        1.13888        1.17658        1.28452        1.33756        1.34415
        1.37121        1.41145        1.43564        1.44973        1.47678
        1.51914        1.55189        1.57899        1.58394        1.64984
        1.66385        1.68098        1.72499        1.75811        1.78762
        1.80232        1.84281        1.86942        1.87302        1.89313
        1.90752        1.98561        2.00180        2.06472        2.14967
        2.26590        2.29757        2.30604        2.32700        2.33607
        2.36403        2.38478        2.46246        2.54136        2.58298
        2.63755        2.66130        2.70191        2.71553        2.73743
        2.75656        2.80816        2.81444        2.82270        2.87026
        2.92775        2.98811        3.05483        3.13768        3.43139
        3.44625        3.45087        3.46156        3.50408        3.53749
[...]

 Principal values of diagonalized transition strength matrix:

             a.u.               
 1      -0.00000000
 2      -0.00000000
 3       0.00001140

 Principal axis of diagonalized transition strength matrix:


               Column   1     Column   2     Column   3
       1       0.09912831    -0.16595105     0.98113905
       2       0.08428265     0.98385249     0.15789460
       3       0.99149887    -0.06704118    -0.11151443
    ==== End of matrix output ====


 CCSD   oscillator strength matrix for state nr. 13 of symmetry 1
 CCSD  excitation energy:15.13716556


               Column   1     Column   2     Column   3
       1     1.107539D-04   1.782361D-05  -1.258814D-05
       2     1.782361D-05   2.868348D-06  -2.025847D-06
       3    -1.258814D-05  -2.025847D-06   1.430173D-06
    ==== End of matrix output ====

 Principal values of diagonalized oscillator strength matrix:

             a.u.               
 1      -0.00000000
 2      -0.00000000
 3       0.00011505

 Principal axis of diagonalized oscillator strength matrix:


               Column   1     Column   2     Column   3
       1       0.09912831    -0.16595105     0.98113905
       2       0.08428265     0.98385249     0.15789460
       3       0.99149887    -0.06704118    -0.11151443
    ==== End of matrix output ====


 CCSD  Transition strength matrix for state nr. 14 of symmetry 1
 CCSD  excitation energy:15.21144863

 Gauge: length

               Column   1     Column   2     Column   3
       1     3.182113D-06  -1.122432D-05   1.577045D-05
       2    -1.122432D-05   3.956036D-05  -5.558708D-05
       3     1.577045D-05  -5.558708D-05   7.810611D-05
    ==== End of matrix output ====

 Principal values of diagonalized transition strength matrix:

             a.u.               
 1      -0.00000000
 2      -0.00000000
 3       0.00012085

 Principal axis of diagonalized transition strength matrix:


               Column   1     Column   2     Column   3
       1       0.95365407    -0.25336817     0.16232219
       2       0.30016651     0.76324955    -0.57214525
       3       0.02107105     0.59435233     0.80392868
    ==== End of matrix output ====


 CCSD   oscillator strength matrix for state nr. 14 of symmetry 1
 CCSD  excitation energy:15.21144863


               Column   1     Column   2     Column   3
       1     3.226970D-05  -1.138254D-04   1.599276D-04
       2    -1.138254D-04   4.011803D-04  -5.637067D-04
       3     1.599276D-04  -5.637067D-04   7.920714D-04
    ==== End of matrix output ====

 Principal values of diagonalized oscillator strength matrix:

             a.u.               
 1      -0.00000002
 2       0.00000000
 3       0.00122555

 Principal axis of diagonalized oscillator strength matrix:


               Column   1     Column   2     Column   3
       1       0.95365407    -0.25336817     0.16232219
       2       0.30016651     0.76324955    -0.57214525
       3       0.02107105     0.59435233     0.80392868
    ==== End of matrix output ====


 CCSD  Transition strength matrix for state nr. 15 of symmetry 1
 CCSD  excitation energy:15.28265090

 Gauge: length

               Column   1     Column   2     Column   3
       1     8.856988D-05   2.083577D-04  -3.810477D-05
       2     2.083577D-04   4.901515D-04  -8.963975D-05
       3    -3.810477D-05  -8.963975D-05   1.639347D-05
    ==== End of matrix output ====

 Principal values of diagonalized transition strength matrix:

             a.u.               
 1      -0.00000000
 2      -0.00000000
 3       0.00059512

 Principal axis of diagonalized transition strength matrix:


               Column   1     Column   2     Column   3
       1       0.91967831     0.07323277     0.38578331
       2      -0.39257178     0.14920751     0.90753761
       3      -0.00889972     0.98609030    -0.16597202
    ==== End of matrix output ====


 CCSD   oscillator strength matrix for state nr. 15 of symmetry 1
 CCSD  excitation energy:15.28265090


               Column   1     Column   2     Column   3
       1       0.00090239     0.00212284    -0.00038823
       2       0.00212284     0.00499388    -0.00091329
       3      -0.00038823    -0.00091329     0.00016702
    ==== End of matrix output ====

 Principal values of diagonalized oscillator strength matrix:

             a.u.               
 1      -0.00000000
 2      -0.00000000
 3       0.00606329

 Principal axis of diagonalized oscillator strength matrix:


               Column   1     Column   2     Column   3
       1       0.91967831     0.07323277     0.38578331
       2      -0.39257178     0.14920751     0.90753761
       3      -0.00889972     0.98609030    -0.16597202
    ==== End of matrix output ====

  Total time for    135 linear response residues:     156.75 seconds.
  

 *******************************************************************************
 *******************************************************************************
 *                                                                             *
 *                                                                             *
 *                   SUMMARY OF COUPLED CLUSTER CALCULATION                    *
 *                                                                             *
 *                                                                             *
 *******************************************************************************
 *******************************************************************************

                                                                                
                                                                                
            Total SCF   energy:                  -360.8012061781                
            Total MP2   energy:                  -361.8966354382                
            Total CCSD  energy:                  -361.9370996790                
                                                                                
                                                                                
            Total SCF   energy:                  -360.8012061781                
            Total RSTAR energy:                  -361.9370996790                
            Total CCSD  energy:                  -361.9372196846                
                                                                                
                                                                                
            Total SCF   energy:                  -360.8012061781                
            Total RSTAR energy:                  -361.9372196846                
            Total CCSD  energy:                  -361.9372204569                
                                                                                
                                                                                
            Total SCF   energy:                  -360.8012061781                
            Total RSTAR energy:                  -361.9372204569                
            Total CCSD  energy:                  -361.9372205298                
                                                                                
                                                                                
            Total SCF   energy:                  -360.8012061781                
            Total RSTAR energy:                  -361.9372205298                
            Total CCSD  energy:                  -361.9372205323                
                                                                                
                                                                                
            Total SCF   energy:                  -360.8012061781                
            Total RSTAR energy:                  -361.9372205323                
            Total CCSD  energy:                  -361.9372205323                
            CCSD Total  energy:                  -362.3665318406                
            CCSD E(QM/MM)     :                    -0.4247613270                
                                                                                
                                                                                
                                                                                
 +=============================================================================+
 |  sym. | Exci.  |        CCSD       Excitation energies            | ||T1||  |
 |(spin, |        +------------------------------------------------------------+
 | spat) |        |     Hartree    |       eV.      |     cm-1       |    %    |
 +=============================================================================+
 | ^1A   |    1   |    14.8208794  |     403.29664  |   3252807.016  |  88.21  |
 | ^1A   |    2   |    14.8768828  |     404.82057  |   3265098.335  |  88.61  |
 | ^1A   |    3   |    14.9144727  |     405.84345  |   3273348.366  |  88.77  |
 | ^1A   |    4   |    14.9480634  |     406.75750  |   3280720.669  |  88.25  |
 | ^1A   |    5   |    15.0003664  |     408.18073  |   3292199.855  |  87.95  |
 | ^1A   |    6   |    15.0194817  |     408.70089  |   3296395.182  |  87.88  |
 | ^1A   |    7   |    15.0293894  |     408.97049  |   3298569.673  |  88.06  |
 | ^1A   |    8   |    15.0476140  |     409.46641  |   3302569.511  |  88.17  |
 | ^1A   |    9   |    15.0717554  |     410.12333  |   3307867.920  |  87.97  |
 | ^1A   |   10   |    15.0904549  |     410.63217  |   3311971.986  |  87.83  |
 | ^1A   |   11   |    15.1151469  |     411.30407  |   3317391.266  |  87.95  |
 | ^1A   |   12   |    15.1245427  |     411.55974  |   3319453.406  |  87.92  |
 | ^1A   |   13   |    15.1371656  |     411.90323  |   3322223.801  |  87.85  |
 | ^1A   |   14   |    15.2114486  |     413.92457  |   3338527.049  |  87.83  |
 | ^1A   |   15   |    15.2826509  |     415.86209  |   3354154.141  |  87.90  |
 +=============================================================================+
                                                                                
                                                                                
     Total energies in Hartree:                                                 
             1 ^1A       -347.1208911006                                        
             2 ^1A       -347.0648877281                                        
             3 ^1A       -347.0272978221                                        
             4 ^1A       -346.9937071359                                        
             5 ^1A       -346.9414041180                                        
             6 ^1A       -346.9222887997                                        
             7 ^1A       -346.9123810890                                        
             8 ^1A       -346.8941564852                                        
             9 ^1A       -346.8700151595                                        
            10 ^1A       -346.8513156571                                        
            11 ^1A       -346.8266236007                                        
            12 ^1A       -346.8172278017                                        
            13 ^1A       -346.8046049507                                        
            14 ^1A       -346.7303218877                                        
            15 ^1A       -346.6591196171                                        
                                                                                
                                                                                
 +=============================================================================+
 |  sym. | Exci.  |        CCSD       Length   Gauge Oscillator Strength       |
 |(spin, |        +------------------------------------------------------------+
 | spat) |        | Dipole Strength(a.u.) | Oscillator strength  | Direction   |
 +=============================================================================+
 | ^1A   |    1   |        0.0011471      |      0.0113337       |  (Y,Z)      |
 | ^1A   |    2   |        0.0035604      |      0.0353120       |  (Y,Z)      |
 | ^1A   |    3   |        0.0030950      |      0.0307731       |  (Y,Z)      |
 | ^1A   |    4   |        0.0013180      |      0.0131344       |  (Y,Z)      |
 | ^1A   |    5   |        0.0002838      |      0.0028381       |  (Y,Z)      |
 | ^1A   |    6   |        0.0000958      |      0.0009596       |  (Y,Z)      |
 | ^1A   |    7   |        0.0006558      |      0.0065711       |  (Y,Z)      |
 | ^1A   |    8   |        0.0010692      |      0.0107257       |  (Y,Z)      |
 | ^1A   |    9   |        0.0002253      |      0.0022640       |  (Y,Z)      |
 | ^1A   |   10   |        0.0004047      |      0.0040711       |  (Y,Z)      |
 | ^1A   |   11   |        0.0001606      |      0.0016179       |  (Y,Z)      |
 | ^1A   |   12   |        0.0002587      |      0.0026082       |  (Y,Z)      |
 | ^1A   |   13   |        0.0000114      |      0.0001151       |  (Y,Z)      |
 | ^1A   |   14   |        0.0001208      |      0.0012255       |  (Y,Z)      |
 | ^1A   |   15   |        0.0005951      |      0.0060633       |  (Y,Z)      |
 +=============================================================================+

  1 a.u. =        27.21138 eV.  
  1 a.u. =    219474.62934 cm-1.
  

 *******************************************************************************
 *******************************************************************************
 *                                                                             *
 *                                                                             *
 *                      END OF COUPLED CLUSTER CALCULATION                     *
 *                                                                             *
 *                                                                             *
 *******************************************************************************
 *******************************************************************************


 CPU and wall time for CC :  544202.554   74416.967

 
     Date and time (Linux)  : Tue Nov 20 12:17:02 2018
     Host name              : n-62-23-21                              


                      .-------------------------------------.
                      | End of Coupled Cluster Section (CC) |
                      `-------------------------------------'

  Total CPU  time used in DALTON: 151 hours 22 minutes 10 seconds
  Total wall time used in DALTON:  20 hours 42 minutes 57 seconds

 
     Date and time (Linux)  : Tue Nov 20 12:17:02 2018
     Host name              : n-62-23-21                              
  

 +---------------------------------------------------------+ 
 | List of selected calculated molecular properties (a.u.) | 
 +---------------------------------------------------------+ 

  Properties are read from unit number                      4

 CCSD       properties :
 #  1 1 CCSD/MM  Ground state Energy =    -362.3665318406
 #  2 1 E_QM/MM  Ground state Energy =      -0.4247613270
 #  3 1 Sy: 1 Sp: 1 Exc:  1 E_tot:   -347.1208911006 w:     14.8208794130 E_grs:   -361.9417705136
 #  4 1 Exctot   Excited state Energy =    -347.1208911006
 #  5 1 Sy: 1 Sp: 1 Exc:  2 E_tot:   -347.0648877281 w:     14.8768827854 E_grs:   -361.9417705136
 #  6 1 Exctot   Excited state Energy =    -347.0648877281
 #  7 1 Sy: 1 Sp: 1 Exc:  3 E_tot:   -347.0272978221 w:     14.9144726915 E_grs:   -361.9417705136
 #  8 1 Exctot   Excited state Energy =    -347.0272978221
 #  9 1 Sy: 1 Sp: 1 Exc:  4 E_tot:   -346.9937071359 w:     14.9480633776 E_grs:   -361.9417705136
 # 10 1 Exctot   Excited state Energy =    -346.9937071359
 # 11 1 Sy: 1 Sp: 1 Exc:  5 E_tot:   -346.9414041180 w:     15.0003663956 E_grs:   -361.9417705136
 # 12 1 Exctot   Excited state Energy =    -346.9414041180
 # 13 1 Sy: 1 Sp: 1 Exc:  6 E_tot:   -346.9222887997 w:     15.0194817138 E_grs:   -361.9417705136
 # 14 1 Exctot   Excited state Energy =    -346.9222887997
 # 15 1 Sy: 1 Sp: 1 Exc:  7 E_tot:   -346.9123810890 w:     15.0293894246 E_grs:   -361.9417705136
 # 16 1 Exctot   Excited state Energy =    -346.9123810890
 # 17 1 Sy: 1 Sp: 1 Exc:  8 E_tot:   -346.8941564852 w:     15.0476140284 E_grs:   -361.9417705136
 # 18 1 Exctot   Excited state Energy =    -346.8941564852
 # 19 1 Sy: 1 Sp: 1 Exc:  9 E_tot:   -346.8700151595 w:     15.0717553541 E_grs:   -361.9417705136
 # 20 1 Exctot   Excited state Energy =    -346.8700151595
 # 21 1 Sy: 1 Sp: 1 Exc: 10 E_tot:   -346.8513156571 w:     15.0904548564 E_grs:   -361.9417705136
 # 22 1 Exctot   Excited state Energy =    -346.8513156571
 # 23 1 Sy: 1 Sp: 1 Exc: 11 E_tot:   -346.8266236007 w:     15.1151469129 E_grs:   -361.9417705136
 # 24 1 Exctot   Excited state Energy =    -346.8266236007
 # 25 1 Sy: 1 Sp: 1 Exc: 12 E_tot:   -346.8172278017 w:     15.1245427118 E_grs:   -361.9417705136
 # 26 1 Exctot   Excited state Energy =    -346.8172278017
 # 27 1 Sy: 1 Sp: 1 Exc: 13 E_tot:   -346.8046049507 w:     15.1371655629 E_grs:   -361.9417705136
 # 28 1 Exctot   Excited state Energy =    -346.8046049507
 # 29 1 Sy: 1 Sp: 1 Exc: 14 E_tot:   -346.7303218877 w:     15.2114486259 E_grs:   -361.9417705136
 # 30 1 Exctot   Excited state Energy =    -346.7303218877
 # 31 1 Sy: 1 Sp: 1 Exc: 15 E_tot:   -346.6591196171 w:     15.2826508964 E_grs:   -361.9417705136
 # 32 1 Exctot   Excited state Energy =    -346.6591196171
 # 33 1 |<O|XDIPLEN |i(14.820879)>| =     0.00767399
 # 35 1 |<O|XDIPLEN |i(14.876883)>| =     0.03481612
 # 37 1 |<O|XDIPLEN |i(14.914473)>| =     0.04604203
 # 39 1 |<O|XDIPLEN |i(14.948063)>| =     0.00674717
 # 41 1 |<O|XDIPLEN |i(15.000366)>| =     0.00104583
 # 43 1 |<O|XDIPLEN |i(15.019482)>| =     0.00676517
 # 45 1 |<O|XDIPLEN |i(15.029389)>| =     0.02051273
 # 47 1 |<O|XDIPLEN |i(15.047614)>| =     0.00149003
 # 49 1 |<O|XDIPLEN |i(15.071755)>| =     0.01423360
 # 51 1 |<O|XDIPLEN |i(15.090455)>| =     0.00709786
 # 53 1 |<O|XDIPLEN |i(15.115147)>| =     0.00856417
 # 55 1 |<O|XDIPLEN |i(15.124543)>| =     0.00746784
 # 57 1 |<O|XDIPLEN |i(15.137166)>| =     0.00331286
 # 59 1 |<O|XDIPLEN |i(15.211449)>| =     0.00178385
 # 61 1 |<O|XDIPLEN |i(15.282651)>| =     0.00941116
 # 63 1 |<O|YDIPLEN |i(14.820879)>| =     0.00825248
 # 65 1 |<O|YDIPLEN |i(14.876883)>| =     0.01057869
 # 67 1 |<O|YDIPLEN |i(14.914473)>| =     0.02120933
 # 69 1 |<O|YDIPLEN |i(14.948063)>| =     0.03436819
 # 71 1 |<O|YDIPLEN |i(15.000366)>| =     0.01359149
 # 73 1 |<O|YDIPLEN |i(15.019482)>| =     0.00257628
 # 75 1 |<O|YDIPLEN |i(15.029389)>| =     0.00638886
 # 77 1 |<O|YDIPLEN |i(15.047614)>| =     0.03246996
 # 79 1 |<O|YDIPLEN |i(15.071755)>| =     0.00358730
 # 81 1 |<O|YDIPLEN |i(15.090455)>| =     0.00590105
 # 83 1 |<O|YDIPLEN |i(15.115147)>| =     0.00561349
 # 85 1 |<O|YDIPLEN |i(15.124543)>| =     0.01421702
 # 87 1 |<O|YDIPLEN |i(15.137166)>| =     0.00053314
 # 89 1 |<O|YDIPLEN |i(15.211449)>| =     0.00628970
 # 91 1 |<O|YDIPLEN |i(15.282651)>| =     0.02213936
 # 93 1 |<O|ZDIPLEN |i(14.820879)>| =     0.03193853
 # 95 1 |<O|ZDIPLEN |i(14.876883)>| =     0.04729006
 # 97 1 |<O|ZDIPLEN |i(14.914473)>| =     0.02291846
 # 99 1 |<O|ZDIPLEN |i(14.948063)>| =     0.00955556
 #101 1 |<O|ZDIPLEN |i(15.000366)>| =     0.00989865
 #103 1 |<O|ZDIPLEN |i(15.019482)>| =     0.00659007
 #105 1 |<O|ZDIPLEN |i(15.029389)>| =     0.01393694
 #107 1 |<O|ZDIPLEN |i(15.047614)>| =     0.00355726
 #109 1 |<O|ZDIPLEN |i(15.071755)>| =     0.00313976
 #111 1 |<O|ZDIPLEN |i(15.090455)>| =     0.01787367
 #113 1 |<O|ZDIPLEN |i(15.115147)>| =     0.00746315
 #115 1 |<O|ZDIPLEN |i(15.124543)>| =     0.00088477
 #117 1 |<O|ZDIPLEN |i(15.137166)>| =     0.00037646
 #119 1 |<O|ZDIPLEN |i(15.211449)>| =     0.00883777
 #121 1 |<O|ZDIPLEN |i(15.282651)>| =     0.00404888

 THE_END   
