

     ************************************************************************
     *************** Dalton - An Electronic Structure Program ***************
     ************************************************************************

    This is output from DALTON release Dalton2017.alpha (2016)
         ( Web site: http://daltonprogram.org )

   ----------------------------------------------------------------------------

    NOTE:
     
    Dalton is an experimental code for the evaluation of molecular
    properties using (MC)SCF, DFT, CI, and CC wave functions.
    The authors accept no responsibility for the performance of
    the code or for the correctness of the results.
     
    The code (in whole or part) is provided under a licence and
    is not to be reproduced for further distribution without
    the written permission of the authors or their representatives.
     
    See the home page "http://daltonprogram.org" for further information.
     
    If results obtained with this code are published,
    the appropriate citations would be both of:
     
       K. Aidas, C. Angeli, K. L. Bak, V. Bakken, R. Bast,
       L. Boman, O. Christiansen, R. Cimiraglia, S. Coriani,
       P. Dahle, E. K. Dalskov, U. Ekstroem,
       T. Enevoldsen, J. J. Eriksen, P. Ettenhuber, B. Fernandez,
       L. Ferrighi, H. Fliegl, L. Frediani, K. Hald, A. Halkier,
       C. Haettig, H. Heiberg, T. Helgaker, A. C. Hennum,
       H. Hettema, E. Hjertenaes, S. Hoest, I.-M. Hoeyvik,
       M. F. Iozzi, B. Jansik, H. J. Aa. Jensen, D. Jonsson,
       P. Joergensen, J. Kauczor, S. Kirpekar,
       T. Kjaergaard, W. Klopper, S. Knecht, R. Kobayashi, H. Koch,
       J. Kongsted, A. Krapp, K. Kristensen, A. Ligabue,
       O. B. Lutnaes, J. I. Melo, K. V. Mikkelsen, R. H. Myhre,
       C. Neiss, C. B. Nielsen, P. Norman, J. Olsen,
       J. M. H. Olsen, A. Osted, M. J. Packer, F. Pawlowski,
       T. B. Pedersen, P. F. Provasi, S. Reine, Z. Rinkevicius,
       T. A. Ruden, K. Ruud, V. Rybkin, P. Salek, C. C. M. Samson,
       A. Sanchez de Meras, T. Saue, S. P. A. Sauer,
       B. Schimmelpfennig, K. Sneskov, A. H. Steindal,
       K. O. Sylvester-Hvid, P. R. Taylor, A. M. Teale,
       E. I. Tellgren, D. P. Tew, A. J. Thorvaldsen, L. Thoegersen,
       O. Vahtras, M. A. Watson, D. J. D. Wilson, M. Ziolkowski
       and H. Agren,
       "The Dalton quantum chemistry program system",
       WIREs Comput. Mol. Sci. 2014, 4:269–284 (doi: 10.1002/wcms.1172)
     
    and
     
       Dalton, a Molecular Electronic Structure Program,
       Release Dalton2017.alpha (2016), see http://daltonprogram.org
   ----------------------------------------------------------------------------

    Authors in alphabetical order (major contribution(s) in parenthesis):

  Kestutis Aidas,           Vilnius University,           Lithuania   (QM/MM)
  Celestino Angeli,         University of Ferrara,        Italy       (NEVPT2)
  Keld L. Bak,              UNI-C,                        Denmark     (AOSOPPA, non-adiabatic coupling, magnetic properties)
  Vebjoern Bakken,          University of Oslo,           Norway      (DALTON; geometry optimizer, symmetry detection)
  Radovan Bast,             UiT The Arctic U. of Norway,  Norway      (DALTON installation and execution frameworks)
  Pablo Baudin,             University of Valencia,       Spain       (Cholesky excitation energies)
  Linus Boman,              NTNU,                         Norway      (Cholesky decomposition and subsystems)
  Ove Christiansen,         Aarhus University,            Denmark     (CC module)
  Renzo Cimiraglia,         University of Ferrara,        Italy       (NEVPT2)
  Sonia Coriani,            University of Trieste,        Italy       (CC module, MCD in RESPONS)
  Janusz Cukras,            University of Trieste,        Italy       (MChD in RESPONS)
  Paal Dahle,               University of Oslo,           Norway      (Parallelization)
  Erik K. Dalskov,          UNI-C,                        Denmark     (SOPPA)
  Thomas Enevoldsen,        Univ. of Southern Denmark,    Denmark     (SOPPA)
  Janus J. Eriksen,         Aarhus University,            Denmark     (Polarizable embedding model, TDA)
  Rasmus Faber,             University of Copenhagen,     Denmark     (Vib.avg. NMR with SOPPA, parallel AO-SOPPA)
  Berta Fernandez,          U. of Santiago de Compostela, Spain       (doublet spin, ESR in RESPONS)
  Lara Ferrighi,            Aarhus University,            Denmark     (PCM Cubic response)
  Heike Fliegl,             University of Oslo,           Norway      (CCSD(R12))
  Luca Frediani,            UiT The Arctic U. of Norway,  Norway      (PCM)
  Bin Gao,                  UiT The Arctic U. of Norway,  Norway      (Gen1Int library)
  Christof Haettig,         Ruhr-University Bochum,       Germany     (CC module)
  Kasper Hald,              Aarhus University,            Denmark     (CC module)
  Asger Halkier,            Aarhus University,            Denmark     (CC module)
  Frederik Beyer Hansen,    University of Copenhagen,     Denmark     (Parallel AO-SOPPA)
  Erik D. Hedegaard,        Univ. of Southern Denmark,    Denmark     (Polarizable embedding model, QM/MM)
  Hanne Heiberg,            University of Oslo,           Norway      (geometry analysis, selected one-electron integrals)
  Trygve Helgaker,          University of Oslo,           Norway      (DALTON; ABACUS, ERI, DFT modules, London, and much more)
  Alf Christian Hennum,     University of Oslo,           Norway      (Parity violation)
  Hinne Hettema,            University of Auckland,       New Zealand (quadratic response in RESPONS; SIRIUS supersymmetry)
  Eirik Hjertenaes,         NTNU,                         Norway      (Cholesky decomposition)
  Pi A. B. Haase,           University of Copenhagen,     Denmark     (Triplet AO-SOPPA)
  Maria Francesca Iozzi,    University of Oslo,           Norway      (RPA)
  Brano Jansik              Technical Univ. of Ostrava    Czech Rep.  (DFT cubic response)
  Hans Joergen Aa. Jensen,  Univ. of Southern Denmark,    Denmark     (DALTON; SIRIUS, RESPONS, ABACUS modules, London, and much more)
  Dan Jonsson,              UiT The Arctic U. of Norway,  Norway      (cubic response in RESPONS module)
  Poul Joergensen,          Aarhus University,            Denmark     (RESPONS, ABACUS, and CC modules)
  Maciej Kaminski,          University of Warsaw,         Poland      (CPPh in RESPONS)
  Joanna Kauczor,           Linkoeping University,        Sweden      (Complex polarization propagator (CPP) module)
  Sheela Kirpekar,          Univ. of Southern Denmark,    Denmark     (Mass-velocity & Darwin integrals)
  Wim Klopper,              KIT Karlsruhe,                Germany     (R12 code in CC, SIRIUS, and ABACUS modules)
  Stefan Knecht,            ETH Zurich,                   Switzerland (Parallel CI and MCSCF)
  Rika Kobayashi,           Australian National Univ.,    Australia   (DIIS in CC, London in MCSCF)
  Henrik Koch,              NTNU,                         Norway      (CC module, Cholesky decomposition)
  Jacob Kongsted,           Univ. of Southern Denmark,    Denmark     (Polarizable embedding model, QM/MM)
  Andrea Ligabue,           University of Modena,         Italy       (CTOCD, AOSOPPA)
  Nanna H. List             Univ. of Southern Denmark,    Denmark     (Polarizable embedding model)
  Ola B. Lutnaes,           University of Oslo,           Norway      (DFT Hessian)
  Juan I. Melo,             University of Buenos Aires,   Argentina   (LRESC, Relativistic Effects on NMR Shieldings)
  Kurt V. Mikkelsen,        University of Copenhagen,     Denmark     (MC-SCRF and QM/MM)
  Rolf H. Myhre,            NTNU,                         Norway      (Cholesky, subsystems and ECC2)
  Christian Neiss,          Univ. Erlangen-Nuernberg,     Germany     (CCSD(R12))
  Christian B. Nielsen,     University of Copenhagen,     Denmark     (QM/MM)
  Patrick Norman,           Linkoeping University,        Sweden      (Cubic response and complex frequency response in RESPONS)
  Jeppe Olsen,              Aarhus University,            Denmark     (SIRIUS CI/density modules)
  Jogvan Magnus H. Olsen,   Univ. of Southern Denmark,    Denmark     (Polarizable embedding model, QM/MM)
  Anders Osted,             Copenhagen University,        Denmark     (QM/MM)
  Martin J. Packer,         University of Sheffield,      UK          (SOPPA)
  Filip Pawlowski,          Kazimierz Wielki University,  Poland      (CC3)
  Morten N. Pedersen,       Univ. of Southern Denmark,    Denmark     (Polarizable embedding model)
  Thomas B. Pedersen,       University of Oslo,           Norway      (Cholesky decomposition)
  Patricio F. Provasi,      University of Northeastern,   Argentina   (Analysis of coupling constants in localized orbitals)
  Zilvinas Rinkevicius,     KTH Stockholm,                Sweden      (open-shell DFT, ESR)
  Elias Rudberg,            KTH Stockholm,                Sweden      (DFT grid and basis info)
  Torgeir A. Ruden,         University of Oslo,           Norway      (Numerical derivatives in ABACUS)
  Kenneth Ruud,             UiT The Arctic U. of Norway,  Norway      (DALTON; ABACUS magnetic properties and much more)
  Pawel Salek,              KTH Stockholm,                Sweden      (DALTON; DFT code)
  Claire C. M. Samson       University of Karlsruhe       Germany     (Boys localization, r12 integrals in ERI)
  Alfredo Sanchez de Meras, University of Valencia,       Spain       (CC module, Cholesky decomposition)
  Trond Saue,               Paul Sabatier University,     France      (direct Fock matrix construction)
  Stephan P. A. Sauer,      University of Copenhagen,     Denmark     (SOPPA(CCSD), SOPPA prop., AOSOPPA, vibrational g-factors)
  Bernd Schimmelpfennig,    Forschungszentrum Karlsruhe,  Germany     (AMFI module)
  Kristian Sneskov,         Aarhus University,            Denmark     (Polarizable embedding model, QM/MM)
  Arnfinn H. Steindal,      UiT The Arctic U. of Norway,  Norway      (parallel QM/MM, Polarizable embedding model)
  Casper Steinmann,         Univ. of Southern Denmark,    Denmark     (QFIT, Polarizable embedding model)
  K. O. Sylvester-Hvid,     University of Copenhagen,     Denmark     (MC-SCRF)
  Peter R. Taylor,          VLSCI/Univ. of Melbourne,     Australia   (Symmetry handling ABACUS, integral transformation)
  Andrew M. Teale,          University of Nottingham,     England     (DFT-AC, DFT-D)
  David P. Tew,             University of Bristol,        England     (CCSD(R12))
  Olav Vahtras,             KTH Stockholm,                Sweden      (triplet response, spin-orbit, ESR, TDDFT, open-shell DFT)
  David J. Wilson,          La Trobe University,          Australia   (DFT Hessian and DFT magnetizabilities)
  Hans Agren,               KTH Stockholm,                Sweden      (SIRIUS module, RESPONS, MC-SCRF solvation model)
 --------------------------------------------------------------------------------

     Date and time (Linux)  : Mon Dec 24 23:38:03 2018
     Host name              : n-62-29-14                              

 * Work memory size             :  1280000000 =  9.537 gigabytes.

 * Directories for basis set searches:
   1) /zhome/37/3/129401/NH3NH4/CCSD/AIMD_SAMPLING/nh3_4h2o_nd
   2) /zhome/9a/4/124800/source/dalton/build-mlcc/basis


Compilation information
-----------------------

 Who compiled             | rfaber
 Host                     | hpclogin1
 System                   | Linux-2.6.32-696.1.1.el6.x86_64
 CMake generator          | Unix Makefiles
 Processor                | x86_64
 64-bit integers          | ON
 MPI                      | OFF
 Fortran compiler         | /opt/intel/2016update2/compilers_and_libraries_201
                          | 6.2.181/linux/bin/intel64/ifort
 Fortran compiler version | ifort (IFORT) 16.0.2 20160204
 C compiler               | /opt/intel/2016update2/compilers_and_libraries_201
                          | 6.2.181/linux/bin/intel64/icc
 C compiler version       | icc (ICC) 16.0.2 20160204
 C++ compiler             | /opt/intel/2016update2/compilers_and_libraries_201
                          | 6.2.181/linux/bin/intel64/icpc
 C++ compiler version     | icpc (ICC) 16.0.2 20160204
 Static linking           | OFF
 Last Git revision        | bb4d1599ca5680a9f3980451fc8bbefdba436d59
 Git branch               | mlcc
 Configuration time       | 2017-06-13 16:11:03.928841


   Content of the .dal input file
 ----------------------------------

**DALTON
.RUN WAVE FUNCTIONS
*QMMM
.QMMM
**INTEGRALS
.DIPLEN
**WAVE FUNCTIONS
.CC
*PRINT
!To check the origin of excit
.PRINTL
   0 11
*SCF INP
.THRESH
1.0D-7
*CC INP
.CCSD
.THRLEQ
 1.0D-9
.THRENR
 1.0D-10
.FROIMP
4
0
.PRINT
 1
.MAX IT
 1200
.MAXRED
 1200
.MXLRV
1199
*CCSLV
.CCMM
.MXSLIT
200
.MXINIT
4 5
*CCEXCI
.NCCEXC
 15
.CVSEPARA
1
1
*CCLRSD
.DIPOLE
**END OF DALTON INPUT


   Content of the .mol file
 ----------------------------

ATOMBASIS


Atomtypes=4 Charge=0 Nosymm Angstrom
   7.00000    1    Basis=6-311G**
N          0.000000        0.000000        0.000000
   1.00000    3    Basis=6-311G**
H          0.297939       -0.974094        0.037672
H          0.769206        0.521107        0.436076
H         -0.693175        0.012564        0.733300
   8.00000    4    Basis=6-311G**
O         -0.879244       -2.945220        1.357692
O          1.968516        0.922970        2.106944
O         -0.565195        0.371905       -2.498757
O         -2.489123       -0.419746        1.638567
   1.00000    8    Basis=6-311G**
H         -0.300181       -2.875694        2.146633
H         -1.755314       -3.374610        1.479187
H          1.956774        1.768150        2.625088
H          2.957870        0.854966        1.854213
H          0.306852       -0.038708       -2.738665
H         -0.557171        0.255723       -1.427458
H         -2.752737        0.202561        0.939213
H         -2.336937       -1.265338        1.218027


       *******************************************************************
       *********** Output from DALTON general input processing ***********
       *******************************************************************

 --------------------------------------------------------------------------------
   Overall default print level:    0
   Print level for DALTON.STAT:    1

    HERMIT 1- and 2-electron integral sections will be executed
    "Old" integral transformation used (limited to max 255 basis functions)
    Wave function sections will be executed (SIRIUS module)
 --------------------------------------------------------------------------------


 Changes of defaults for *QMMM  :
 --------------------------------

 +------------------+
 |  WORD: | CHANGE: |
 +------------------+
 |   QMMM |       T |
 +------------------+
 


   ****************************************************************************
   *************** Output of molecule and basis set information ***************
   ****************************************************************************


    The two title cards from your ".mol" input:
    ------------------------------------------------------------------------
 1:                                                                         
 2:                                                                         
    ------------------------------------------------------------------------

  Coordinates are entered in Angstrom and converted to atomic units.
          - Conversion factor : 1 bohr = 0.52917721 A

  Atomic type no.    1
  --------------------
  Nuclear charge:   7.00000
  Number of symmetry independent centers:    1
  Number of basis sets to read;    2
  The basis set is "6-311G**" from the basis set library.
  Basis set file used for this atomic type with Z =   7 :
     "/zhome/9a/4/124800/source/dalton/build-mlcc/basis/6-311G**"

  Info about the basis set file: your basis has no documentation.
  Basis set: 6-311G**                                                                        

  Atomic type no.    2
  --------------------
  Nuclear charge:   1.00000
  Number of symmetry independent centers:    3
  Number of basis sets to read;    2
  The basis set is "6-311G**" from the basis set library.
  Basis set file used for this atomic type with Z =   1 :
     "/zhome/9a/4/124800/source/dalton/build-mlcc/basis/6-311G**"

  Info about the basis set file: your basis has no documentation.
  Basis set: 6-311G**                                                                        

  Atomic type no.    3
  --------------------
  Nuclear charge:   8.00000
  Number of symmetry independent centers:    4
  Number of basis sets to read;    2
  The basis set is "6-311G**" from the basis set library.
  Basis set file used for this atomic type with Z =   8 :
     "/zhome/9a/4/124800/source/dalton/build-mlcc/basis/6-311G**"

  Info about the basis set file: your basis has no documentation.
  Basis set: 6-311G**                                                                        

  Atomic type no.    4
  --------------------
  Nuclear charge:   1.00000
  Number of symmetry independent centers:    8
  Number of basis sets to read;    2
  The basis set is "6-311G**" from the basis set library.
  Basis set file used for this atomic type with Z =   1 :
     "/zhome/9a/4/124800/source/dalton/build-mlcc/basis/6-311G**"

  Info about the basis set file: your basis has no documentation.
  Basis set: 6-311G**                                                                        


                         SYMGRP: Point group information
                         -------------------------------

@    Point group: C1 


                                 Isotopic Masses
                                 ---------------

                           N          14.003074
                           H           1.007825
                           H           1.007825
                           H           1.007825
                           O          15.994915
                           O          15.994915
                           O          15.994915
                           O          15.994915
                           H           1.007825
                           H           1.007825
                           H           1.007825
                           H           1.007825
                           H           1.007825
                           H           1.007825
                           H           1.007825
                           H           1.007825

                       Total mass:    89.068809 amu
                       Natural abundance:  98.514 %

 Center-of-mass coordinates (a.u.):   -0.711900   -0.807557    1.039996


  Atoms and basis sets
  --------------------

  Number of atom types :    4
  Total number of atoms:   16

  label    atoms   charge   prim   cont     basis
  ----------------------------------------------------------------------
  N           1    7.0000    31    18      [11s5p1d|4s3p1d]                                   
  H           3    1.0000     8     6      [5s1p|3s1p]                                        
  O           4    8.0000    31    18      [11s5p1d|4s3p1d]                                   
  H           8    1.0000     8     6      [5s1p|3s1p]                                        
  ----------------------------------------------------------------------
  total:     16   50.0000   243   156
  ----------------------------------------------------------------------
  Spherical harmonic basis used.

  Threshold for neglecting AO integrals:  1.00D-12


  Cartesian Coordinates (a.u.)
  ----------------------------

  Total number of coordinates:   48
  N       :     1  x   0.0000000000    2  y   0.0000000000    3  z   0.0000000000
  H       :     4  x   0.5630231120    5  y  -1.8407708800    6  z   0.0711897626
  H       :     7  x   1.4535886737    8  y   0.9847495118    9  z   0.8240642097
  H       :    10  x  -1.3099109067   11  y   0.0237425190   12  z   1.3857361675
  O       :    13  x  -1.6615303570   14  y  -5.5656591779   15  z   2.5656660421
  O       :    16  x   3.7199561127   17  y   1.7441605216   18  z   3.9815471207
  O       :    19  x  -1.0680637572   20  y   0.7027985945   21  z  -4.7219663829
  O       :    22  x  -4.7037607614   23  y  -0.7932049821   24  z   3.0964428675
  H       :    25  x  -0.5672598779   26  y  -5.4342740793   27  z   4.0565484609
  H       :    28  x  -3.3170627234   29  y  -6.3770886787   30  z   2.7952583177
  H       :    31  x   3.6977669485   32  y   3.3413192479   33  z   4.9606973740
  H       :    34  x   5.5895642133   35  y   1.6156515862   36  z   3.5039547474
  H       :    37  x   0.5798662409   38  y  -0.0731475188   39  z  -5.1753267981
  H       :    40  x  -1.0529005948   41  y   0.4832464339   42  z  -2.6975046749
  H       :    43  x  -5.2019190241   44  y   0.3827848136   45  z   1.7748553430
  H       :    46  x  -4.4161709014   47  y  -2.3911422755   48  z   2.3017374428


   Interatomic separations (in Angstrom):
   --------------------------------------

            N           H           H           H           O           O     
            ------      ------      ------      ------      ------      ------
 N     :    0.000000
 H     :    1.019336    0.000000
 H     :    1.026349    1.617543    0.000000
 H     :    1.009147    1.561954    1.576552    0.000000
 O     :    3.360166    2.648311    3.947428    3.028692    0.000000
 O     :    3.027564    3.266736    2.095624    3.130549    4.861482    0.000000
 O     :    2.588734    2.998364    3.227403    3.254489    5.096483    5.285437
 O     :    3.009455    3.261576    3.598319    2.057141    3.008092    4.678975
 H     :    3.601077    2.901990    3.950677    3.239443    0.981109    4.424750
 H     :    4.081313    3.472217    4.757929    3.627318    0.983176    5.721030
 H     :    3.721076    4.119024    2.785176    3.699077    5.644922    0.991433
 H     :    3.594171    3.704121    2.629225    3.911038    5.423227    1.023386
 H     :    2.756074    2.929688    3.256708    3.613478    5.160889    5.212090
 H     :    1.553535    2.095297    2.302708    2.178646    4.255212    4.395033
 H     :    2.915598    3.391743    3.571932    2.078532    3.686953    4.916586
 H     :    2.923345    2.901833    3.667555    2.137744    2.228537    4.910783

            O           O           H           H           H           H     
            ------      ------      ------      ------      ------      ------
 O     :    0.000000
 O     :    4.630946    0.000000
 H     :    5.674221    3.328855    0.000000
 H     :    5.592566    3.048786    1.676846    0.000000
 H     :    5.879083    5.052337    5.185369    6.445205    0.000000
 H     :    5.620826    5.598315    4.961676    6.343821    1.558957    0.000000
 H     :    0.993290    5.207958    5.681823    5.759431    5.895492    5.377832
 H     :    1.077610    3.686354    4.758775    4.802442    5.003047    4.846026
 H     :    4.078438    0.972550    4.116861    3.752676    5.241444    5.820128
 H     :    4.431040    0.956577    2.757523    2.203524    5.442226    5.738937

            H           H           H           H     
            ------      ------      ------      ------
 H     :    0.000000
 H     :    1.597651    0.000000
 H     :    4.790207    3.228694    0.000000
 H     :    4.914230    3.532674    1.550920    0.000000


  Max    interatomic separation is    6.4452 Angstrom (   12.1797 Bohr)
  between atoms   11 and   10, "H     " and "H     ".

  Min HX interatomic separation is    0.9566 Angstrom (    1.8077 Bohr)

  Min YX interatomic separation is    2.5887 Angstrom (    4.8920 Bohr)


  Bond distances (Angstrom):
  --------------------------

                  atom 1     atom 2       distance
                  ------     ------       --------
  bond distance:  H          N            1.019336
  bond distance:  H          N            1.026349
  bond distance:  H          N            1.009147
  bond distance:  H          O            0.981109
  bond distance:  H          O            0.983176
  bond distance:  H          O            0.991433
  bond distance:  H          O            1.023386
  bond distance:  H          O            0.993290
  bond distance:  H          O            1.077610
  bond distance:  H          O            0.972550
  bond distance:  H          O            0.956577


  Bond angles (degrees):
  ----------------------

                  atom 1     atom 2     atom 3         angle
                  ------     ------     ------         -----
  bond angle:     H          N          H            104.503
  bond angle:     H          N          H            100.708
  bond angle:     H          N          H            101.521
  bond angle:     H          O          H            117.226
  bond angle:     H          O          H            101.371
  bond angle:     H          O          H            100.895
  bond angle:     H          O          H            107.015




 Principal moments of inertia (u*A**2) and principal axes
 --------------------------------------------------------

   IA     336.138248          0.528436    0.647185   -0.549461
   IB     355.641509          0.594174    0.180344    0.783858
   IC     529.439947         -0.606393    0.740694    0.289241


 Rotational constants
 --------------------

               A                   B                   C

           1503.4856           1421.0349            954.5540 MHz
            0.050151            0.047401            0.031840 cm-1


@  Nuclear repulsion energy :  190.243275509144 Hartree


                     .---------------------------------------.
                     | Starting in Integral Section (HERMIT) |
                     `---------------------------------------'



 ***************************************************************************************
 ****************** Output from **INTEGRALS input processing (HERMIT) ******************
 ***************************************************************************************



    *************************************************************************
    ****************** Output from HERMIT input processing ******************
    *************************************************************************


 Default print level:        1

 * Nuclear model: Point charge

 Calculation of one- and two-electron Hamiltonian integrals.

 The following one-electron property integrals are calculated as requested:
          - overlap integrals
          - dipole length integrals

 Center of mass  (bohr):     -0.711899796331     -0.807557363383      1.039996082007
 Operator center (bohr):      0.000000000000      0.000000000000      0.000000000000
 Gauge origin    (bohr):      0.000000000000      0.000000000000      0.000000000000
 Dipole origin   (bohr):      0.000000000000      0.000000000000      0.000000000000
 
  *********************************** 
  QMMM electrostatic potential: 
  Multipole order                                    0
  Isotropic polarization  
  *********************************** 
 
  ---------------- 
  QMMM information 
  ---------------- 
 
  MM coordinates in au 
  -------------------- 
     1    -11.086422      4.744770      7.061408
     2     -9.236537      4.917797      7.141755
     3    -11.860135      6.514530      6.933367
     4     -8.361590     11.207801      0.539116
     5     -6.563006     11.590709      0.335632
     6     -8.892182     12.678700      1.619429
     7     -6.011738      5.519956      6.906545
     8     -6.341084      7.219466      7.776038
     9     -4.969840      4.591473      8.168833
    10     -5.952762     -4.444303     -3.167141
    11     -6.695991     -3.202543     -1.977884
    12     -5.520767     -3.446278     -4.627331
    13      1.827352     -5.054441     -9.490660
    14      1.525555     -3.532920    -10.497315
    15      2.401171     -4.506307     -7.781278
    16     10.542457      2.646650    -11.743686
    17      9.732934      4.023892    -10.753186
    18     11.172361      3.372641    -13.291016
    19      3.760689    -10.647386      9.283414
    20      2.263820     -9.677860      9.431289
    21      3.956671    -10.823038      7.469566
    22      6.399792     -5.338047      8.384314
    23      6.848477     -4.040066      9.626741
    24      5.842173     -6.835742      9.286061
    25     -9.184194     -0.701245     -9.573521
    26    -10.192880      0.355234    -10.761013
    27     -9.393485     -2.422774     -9.983911
    28     -3.708380     -4.647812     10.879442
    29     -3.069250     -3.400235     12.285750
    30     -4.551449     -6.135516     11.666689
    31      4.202275     -5.796673     -4.613931
    32      5.102563     -7.252325     -5.366465
    33      2.594328     -6.373842     -4.010216
    34     -4.255865      1.755253     10.532761
    35     -3.773076      2.291926     12.196973
    36     -5.794021      0.647295     10.772361
    37     10.693747     -0.902730     -5.384856
    38     12.130547     -0.856738     -6.681660
    39     11.011360      0.593338     -4.231713
    40    -10.796765      8.782377     -5.683916
    41    -11.655642      9.879526     -4.423575
    42     -9.287513      9.694985     -6.198961
    43    -10.979460      6.435031      1.343200
    44    -10.136854      8.067985      1.325265
    45    -10.801586      5.641993      2.966407
    46      0.455760     -1.473153      9.545668
    47      0.985866     -1.689708      7.768660
    48     -1.144023     -0.537355      9.679463
    49     -4.291753    -11.033198      5.468474
    50     -3.088153    -12.229616      4.850479
    51     -5.249019    -11.993850      6.839694
    52     11.224217      3.913077     -3.246292
    53     11.748376      5.003868     -4.617918
    54     11.670406      4.634338     -1.591850
    55     -6.868391     -7.477367      2.739904
    56     -8.254286     -6.663188      3.742357
    57     -6.023094     -8.732793      3.826777
    58      5.152503    -10.263660      4.202964
    59      4.411239    -11.572063      3.039821
    60      4.440717     -8.637555      3.671776
    61     10.196635    -10.487903      4.620618
    62      8.356248    -10.242805      4.552460
    63     10.807631     -9.593917      6.202565
    64      3.202458      6.912452     10.846837
    65      3.689724      8.063730     12.191649
    66      3.262608      5.178233     11.643336
    67    -11.695993     -9.804759      9.394146
    68    -11.215608     -8.456048     10.487819
    69    -13.061350    -10.861783     10.286817
    70      7.304311      7.318667      0.111653
    71      8.110472      8.730198     -0.753861
    72      8.637980      6.486088      0.963706
    73      3.059104     -2.755253      5.386003
    74      4.270105     -3.618249      6.439397
    75      3.436047     -0.898334      5.178607
    76     -1.781590      8.455791     10.074695
    77     -1.757419     10.111305      9.569758
    78     -0.030872      8.037952     10.718166
    79     -4.504788     -1.874691     -7.849508
    80     -5.805180     -0.567468     -8.302419
    81     -3.303203     -1.052088     -6.712914
    82     11.271990     -6.405875     -5.665858
    83     12.877987     -7.221853     -4.977798
    84     11.275692     -4.579783     -5.214781
    85      9.417123      8.632726      7.204432
    86      8.921620      9.480660      8.758803
    87      9.710250     10.177396      6.070050
    88      2.578356      2.128699    -10.879856
    89      1.821815      0.793987    -11.951492
    90      3.543563      1.348830     -9.454999
    91     -0.801527     -9.595757     -9.799335
    92     -0.071101     -7.932587     -9.154829
    93     -0.859882     -9.154391    -11.557918
    94      8.530549      7.032289     -8.336001
    95      7.361747      5.993342     -7.244460
    96     10.034470      7.206289     -7.279303
    97      4.406987     -0.871470     -6.194178
    98      5.029975     -2.427366     -5.484261
    99      5.458275      0.621081     -5.622470
   100      7.713325     10.849101     11.658153
   101      6.028621     11.328885     11.046222
   102      7.693750      9.672043     13.090210
   103     -0.508964     -6.813812     -2.265389
   104     -0.657290     -6.360372     -0.485745
   105     -1.902079     -6.000925     -3.062959
   106     -7.412942     -2.138095      7.909216
   107     -6.368970     -1.319174      6.522554
   108     -6.063439     -3.066177      8.964796
   109      7.240556     -9.214444     -6.619157
   110      8.974876     -8.479932     -6.799664
   111      6.747456    -10.520464     -7.783395
   112     -1.013842      8.534891      4.386943
   113     -2.285663      7.157311      4.538928
   114      0.312772      7.773727      5.492336
   115     -0.160627     -7.662926      7.966826
   116     -1.143861     -6.451497      8.873347
   117     -1.310914     -8.429339      6.806584
   118     -2.505265      4.465686     -8.473248
   119     -2.293544      3.230731     -7.123593
   120     -0.828322      4.278262     -9.264976
   121     -6.227498     -9.106426     -9.762180
   122     -4.372902     -9.241326     -9.479305
   123     -6.967694     -8.736538     -7.976188
   124      2.892411      9.996816     -8.555346
   125      2.364992      9.255387     -6.901679
   126      1.502939     11.017245     -9.241883
   127     -6.834291      7.984824     -9.647428
   128     -5.197234      7.053826     -9.550802
   129     -8.330689      6.816382     -9.635496
   130      1.596802      8.187497     -3.832121
   131     -0.180097      8.021328     -3.892541
   132      2.011451      9.006952     -2.195066
   133      4.266198      6.426751      5.815806
   134      3.777995      7.020627      7.613085
   135      5.922984      7.096581      5.730458
   136      9.693928     11.635006     -2.483348
   137     10.207817     13.196592     -1.592461
   138      8.343802     12.302038     -3.672598
   139      2.732739      9.476600      0.807387
   140      4.266043      8.281222      0.985288
   141      1.249436      8.723881      1.678736
   142      7.554995     -1.918106    -11.110012
   143      6.609912     -2.059595     -9.545099
   144      8.740771     -0.390812    -11.155288
   145     -7.243738      0.847491     -1.326506
   146     -7.563319      2.629053     -1.751918
   147     -8.982979      0.176619     -0.910094
   148      5.324439      4.406461     -4.994246
   149      6.457302      4.533712     -3.556113
   150      4.012257      5.686980     -4.657608
   151     -7.358894     10.322128      9.131257
   152     -7.052613      9.801091     10.972736
   153     -8.902101     11.315272      9.328157
   154     -7.775492     -9.123329     -4.636781
   155     -7.232086     -7.672829     -3.650310
   156     -8.063652    -10.567866     -3.429312
   157    -10.707704     -5.197153      5.323912
   158     -9.644945     -4.136295      6.516365
   159    -12.376147     -5.352419      6.172006
   160      8.869146      1.775056      3.314491
   161      9.610446      0.539109      2.216046
   162      9.890020      1.811648      4.891745
   163      4.406452     -5.931155      1.084737
   164      4.037481     -4.316280      2.174916
   165      5.030368     -5.354701     -0.706227
   166     -2.549394    -11.398960     -0.395850
   167     -2.131110    -10.024219      0.833477
   168     -2.401770    -10.241987     -1.871800
   169     10.606264     -7.391983      0.297518
   170      8.741845     -6.835166      0.372516
   171     10.802209     -8.629814      1.714620
   172    -11.722644     -1.685587      0.647133
   173    -11.422480     -2.860006      2.155817
   174    -12.387278     -2.638281     -0.834155
   175    -10.858253     -5.610793    -11.194482
   176    -11.254959     -6.577345     -9.613288
   177    -12.510064     -5.157110    -11.796734
 
  MM charges 
  ---------- 
     1     -0.674440
     2      0.337220
     3      0.337220
     4     -0.674440
     5      0.337220
     6      0.337220
     7     -0.674440
     8      0.337220
     9      0.337220
    10     -0.674440
    11      0.337220
    12      0.337220
    13     -0.674440
    14      0.337220
    15      0.337220
    16     -0.674440
    17      0.337220
    18      0.337220
    19     -0.674440
    20      0.337220
    21      0.337220
    22     -0.674440
    23      0.337220
    24      0.337220
    25     -0.674440
    26      0.337220
    27      0.337220
    28     -0.674440
    29      0.337220
    30      0.337220
    31     -0.674440
    32      0.337220
    33      0.337220
    34     -0.674440
    35      0.337220
    36      0.337220
    37     -0.674440
    38      0.337220
    39      0.337220
    40     -0.674440
    41      0.337220
    42      0.337220
    43     -0.674440
    44      0.337220
    45      0.337220
    46     -0.674440
    47      0.337220
    48      0.337220
    49     -0.674440
    50      0.337220
    51      0.337220
    52     -0.674440
    53      0.337220
    54      0.337220
    55     -0.674440
    56      0.337220
    57      0.337220
    58     -0.674440
    59      0.337220
    60      0.337220
    61     -0.674440
    62      0.337220
    63      0.337220
    64     -0.674440
    65      0.337220
    66      0.337220
    67     -0.674440
    68      0.337220
    69      0.337220
    70     -0.674440
    71      0.337220
    72      0.337220
    73     -0.674440
    74      0.337220
    75      0.337220
    76     -0.674440
    77      0.337220
    78      0.337220
    79     -0.674440
    80      0.337220
    81      0.337220
    82     -0.674440
    83      0.337220
    84      0.337220
    85     -0.674440
    86      0.337220
    87      0.337220
    88     -0.674440
    89      0.337220
    90      0.337220
    91     -0.674440
    92      0.337220
    93      0.337220
    94     -0.674440
    95      0.337220
    96      0.337220
    97     -0.674440
    98      0.337220
    99      0.337220
   100     -0.674440
   101      0.337220
   102      0.337220
   103     -0.674440
   104      0.337220
   105      0.337220
   106     -0.674440
   107      0.337220
   108      0.337220
   109     -0.674440
   110      0.337220
   111      0.337220
   112     -0.674440
   113      0.337220
   114      0.337220
   115     -0.674440
   116      0.337220
   117      0.337220
   118     -0.674440
   119      0.337220
   120      0.337220
   121     -0.674440
   122      0.337220
   123      0.337220
   124     -0.674440
   125      0.337220
   126      0.337220
   127     -0.674440
   128      0.337220
   129      0.337220
   130     -0.674440
   131      0.337220
   132      0.337220
   133     -0.674440
   134      0.337220
   135      0.337220
   136     -0.674440
   137      0.337220
   138      0.337220
   139     -0.674440
   140      0.337220
   141      0.337220
   142     -0.674440
   143      0.337220
   144      0.337220
   145     -0.674440
   146      0.337220
   147      0.337220
   148     -0.674440
   149      0.337220
   150      0.337220
   151     -0.674440
   152      0.337220
   153      0.337220
   154     -0.674440
   155      0.337220
   156      0.337220
   157     -0.674440
   158      0.337220
   159      0.337220
   160     -0.674440
   161      0.337220
   162      0.337220
   163     -0.674440
   164      0.337220
   165      0.337220
   166     -0.674440
   167      0.337220
   168      0.337220
   169     -0.674440
   170      0.337220
   171      0.337220
   172     -0.674440
   173      0.337220
   174      0.337220
   175     -0.674440
   176      0.337220
   177      0.337220
 
  MM isotropic polarizabilities in au 
  ----------------------------------- 
     1      5.739350
     2      2.308390
     3      2.308390
     4      5.739350
     5      2.308390
     6      2.308390
     7      5.739350
     8      2.308390
     9      2.308390
    10      5.739350
    11      2.308390
    12      2.308390
    13      5.739350
    14      2.308390
    15      2.308390
    16      5.739350
    17      2.308390
    18      2.308390
    19      5.739350
    20      2.308390
    21      2.308390
    22      5.739350
    23      2.308390
    24      2.308390
    25      5.739350
    26      2.308390
    27      2.308390
    28      5.739350
    29      2.308390
    30      2.308390
    31      5.739350
    32      2.308390
    33      2.308390
    34      5.739350
    35      2.308390
    36      2.308390
    37      5.739350
    38      2.308390
    39      2.308390
    40      5.739350
    41      2.308390
    42      2.308390
    43      5.739350
    44      2.308390
    45      2.308390
    46      5.739350
    47      2.308390
    48      2.308390
    49      5.739350
    50      2.308390
    51      2.308390
    52      5.739350
    53      2.308390
    54      2.308390
    55      5.739350
    56      2.308390
    57      2.308390
    58      5.739350
    59      2.308390
    60      2.308390
    61      5.739350
    62      2.308390
    63      2.308390
    64      5.739350
    65      2.308390
    66      2.308390
    67      5.739350
    68      2.308390
    69      2.308390
    70      5.739350
    71      2.308390
    72      2.308390
    73      5.739350
    74      2.308390
    75      2.308390
    76      5.739350
    77      2.308390
    78      2.308390
    79      5.739350
    80      2.308390
    81      2.308390
    82      5.739350
    83      2.308390
    84      2.308390
    85      5.739350
    86      2.308390
    87      2.308390
    88      5.739350
    89      2.308390
    90      2.308390
    91      5.739350
    92      2.308390
    93      2.308390
    94      5.739350
    95      2.308390
    96      2.308390
    97      5.739350
    98      2.308390
    99      2.308390
   100      5.739350
   101      2.308390
   102      2.308390
   103      5.739350
   104      2.308390
   105      2.308390
   106      5.739350
   107      2.308390
   108      2.308390
   109      5.739350
   110      2.308390
   111      2.308390
   112      5.739350
   113      2.308390
   114      2.308390
   115      5.739350
   116      2.308390
   117      2.308390
   118      5.739350
   119      2.308390
   120      2.308390
   121      5.739350
   122      2.308390
   123      2.308390
   124      5.739350
   125      2.308390
   126      2.308390
   127      5.739350
   128      2.308390
   129      2.308390
   130      5.739350
   131      2.308390
   132      2.308390
   133      5.739350
   134      2.308390
   135      2.308390
   136      5.739350
   137      2.308390
   138      2.308390
   139      5.739350
   140      2.308390
   141      2.308390
   142      5.739350
   143      2.308390
   144      2.308390
   145      5.739350
   146      2.308390
   147      2.308390
   148      5.739350
   149      2.308390
   150      2.308390
   151      5.739350
   152      2.308390
   153      2.308390
   154      5.739350
   155      2.308390
   156      2.308390
   157      5.739350
   158      2.308390
   159      2.308390
   160      5.739350
   161      2.308390
   162      2.308390
   163      5.739350
   164      2.308390
   165      2.308390
   166      5.739350
   167      2.308390
   168      2.308390
   169      5.739350
   170      2.308390
   171      2.308390
   172      5.739350
   173      2.308390
   174      2.308390
   175      5.739350
   176      2.308390
   177      2.308390


     ************************************************************************
     ************************** Output from HERINT **************************
     ************************************************************************



                      Nuclear contribution to dipole moments
                      --------------------------------------

                 au               Debye          C m (/(10**-30)

      x    -33.68860494       -85.62788723      -285.62388727
      y    -40.58016967      -103.14449643      -344.05300625
      z     53.17472753       135.15666737       450.83411460


  Time used in HUCKEL     is       0.33 seconds
  Time used in OVERLAP    is       0.22 seconds
  Time used in POPOVLP    is       0.21 seconds
  Time used in DIPLEN     is       0.37 seconds
  Time used in QUADRUP    is       0.39 seconds
  Time used in KINENE     is       0.22 seconds

 Threshold for neglecting two-electron integrals:  1.00D-12
 HERMIT - Number of two-electron integrals written:    32194569 ( 42.9% )
 HERMIT - Megabytes written:                            368.645

  Time used in TWOINT     is      14.90 seconds
  Total CPU  time used in HERMIT:  16.69 seconds
  Total wall time used in HERMIT:   6.80 seconds


                        .----------------------------------.
                        | End of Integral Section (HERMIT) |
                        `----------------------------------'



                   .--------------------------------------------.
                   | Starting in Wave Function Section (SIRIUS) |
                   `--------------------------------------------'

NCCEXCI for singlet:   15
 CCSD_INPUT: core-val requested
 Requested number of core orbs per sym
                     1
 Indices of requested core orbs
                     1

 *** Output from Huckel module :

     Using EWMO model:          T
     Using EHT  model:          F
     Number of Huckel orbitals each symmetry:   36

 EWMO - Energy Weighted Maximum Overlap - is a Huckel type method,
        which normally is better than Extended Huckel Theory.
 Reference: Linderberg and Ohrn, Propagators in Quantum Chemistry (Wiley, 1973)

 Huckel EWMO eigenvalues for symmetry :  1
          -20.685231     -20.684274     -20.684272     -20.683949     -15.674184
           -1.778215      -1.631917      -1.589329      -1.552837      -1.434864
           -0.819917      -0.807008      -0.783801      -0.774362      -0.745683
           -0.740708      -0.692509      -0.686603      -0.667536      -0.656375
           -0.616550      -0.606639      -0.595059      -0.574143      -0.504891
           -0.261499      -0.248210      -0.229017      -0.218804      -0.184474
           -0.179047      -0.173421      -0.164085      -0.155908      -0.146462
           -0.144018

 **********************************************************************
 *SIRIUS* a direct, restricted step, second order MCSCF program       *
 **********************************************************************

 
     Date and time (Linux)  : Mon Dec 24 23:38:11 2018
     Host name              : n-62-29-14                              

 Title lines from ".mol" input file:
                                                                             
                                                                             

 Print level on unit LUPRI =   2 is   0
 Print level on unit LUW4  =   2 is  11

@    (Integral direct) CC calculation.

@    This is a combination run starting with
@              a restricted, closed shell Hartree-Fock calculation


 Initial molecular orbitals are obtained according to
 ".MOSTART EWMO  " input option

@    QM part is embedded in an environment :

@         Model: QMMM

     Wave function specification
     ============================

     For the specification of the Coupled Cluster: see later.

@    Wave function type        --- CC ---
@    Number of closed shell electrons          50
@    Number of electrons in active shells       0
@    Total charge of the molecule               0

@    Spin multiplicity and 2 M_S                1         0
@    Total number of symmetries                 1 (point group: C1 )
@    Reference state symmetry                   1 (irrep name : A  )

     Orbital specifications
     ======================
@    Abelian symmetry species          All |    1
@                                          |  A  
                                       --- |  ---
@    Occupied SCF orbitals              25 |   25
@    Secondary orbitals                131 |  131
@    Total number of orbitals          156 |  156
@    Number of basis functions         156 |  156

     Optimization information
     ========================
@    Number of configurations                 1
@    Number of orbital rotations           3275
     ------------------------------------------
@    Total number of variables             3276

     Maximum number of Fock   iterations      0
     Maximum number of DIIS   iterations     60
     Maximum number of QC-SCF iterations     60
     Threshold for SCF convergence     1.00D-07


 Changes of defaults for CC:
 ---------------------------


 -Implicit frozen core calculation
 -Excitation energies calculated
 -One-photon absorption strengths will be calculated
 -Oscillator strengths calculated
  
* Read MO coefficients from SIRIUS.RST with label "NEWORB  " and header info: 24Dec18  REORTHO 


 ***********************************************
 ***** DIIS acceleration of SCF iterations *****
 ***********************************************

 C1-DIIS algorithm; max error vectors =    8
 -----------------------------------------------------------------------------

 *** DIIS iteration number    1
 RDSUPM called. NFMAT, ISYMDM(1:NFMAT)                     1
                     1

Calculating AOSUPINT
     (Precalculated two-electron integrals are transformed to P-supermatrix elements.
      Threshold for discarding integrals :  1.00D-12 )
  CPU  time used in FORMSUP    is   6.95 seconds
  WALL time used in FORMSUP    is   8.41 seconds

 ITDIIS, energy, error norm, change in energy, scr.thr., difden:
@ DIIS iter.   1    -359.781052968        3.87636D+00   -3.60D+02  -20    F

 (DIIS_RED) Control Parameters C2DIIS =         F NEVC =    1


 (DIIS_RED) B matrix:

               Column   1
       1      15.02614996
    ==== End of matrix output ====

 DIIS C vector; C2DIIS = F, LAMBDA = -1.50D+01
    1.000000
* Read MO coefficients from SIRIUS.RST with label "NEWORB  " and header info: 24Dec18  DIIS   1
      Virial theorem: -V/T =      1.996709
@      MULPOP N      -0.30; H       0.16; H       0.16; H       0.17; O      -0.60; O      -0.60; O      -0.93; O      -0.67; H       0.33; H       0.33; 
@             H       0.32; H       0.32; H       0.32; H       0.33; H       0.34; H       0.33; 
   1  Level shift: doubly occupied orbital energies shifted by -2.00D-01

 DIIS Fock eigenvalues in symmetry 1
      -20.75405      -20.75277      -20.68325      -20.38850      -16.02326
       -1.56909       -1.56722       -1.54175       -1.47633       -1.36359
       -0.97264       -0.96146       -0.96103       -0.93546       -0.92891
       -0.85935       -0.82250       -0.81158       -0.78218       -0.77987
       -0.76884       -0.72836       -0.70437       -0.61306       -0.56664
        0.09947        0.13409        0.17881        0.19243        0.22988
        0.24302        0.26017        0.27209        0.29014        0.30292
        0.36009        0.42119        0.44243        0.50132        0.51917
        0.53446        0.53862        0.56188        0.57990        0.60336
        0.63832        0.68080        0.79501        0.84573        0.86615
        0.93032        0.95247        0.99867        1.01598        1.05139
        1.05522        1.07066        1.07818        1.10840        1.13475
        1.15672        1.19586        1.21919        1.23389        1.27113
        1.28877        1.34945        1.40061        1.43305        1.44086
        1.45196        1.46446        1.50447        1.54964        1.57655
        1.63038        1.63544        1.67736        1.69906        1.70717
        1.73762        1.75434        1.76671        1.83177        1.84532
        1.87413        1.90956        1.94571        2.04961        2.11047
        2.11858        2.15045        2.23196        2.24113        2.25347
        2.27607        2.34261        2.37092        2.46600        2.50733
        2.57109        2.59610        2.61935        2.65737        2.66665
        2.70113        2.72127        2.74834        2.77390        2.82755
        2.84973        2.90070        3.00647        3.02190        3.30200
        3.32712        3.33948        3.38670        3.42693        3.48989
        3.49581        3.52873        3.53730        3.57440        3.59183
        3.63948        3.70579        3.77858        3.90699        4.04262
        4.05794        4.09346        4.10202        4.16236        4.24652
        4.29665        4.66456        4.97936        4.98797        5.31640
        5.34753        5.50357        5.54766        5.64506        5.75567
        5.77706        5.95773        5.97394        6.13695        6.18857
        6.27465       36.76296       51.50017       51.52225       51.62066
       51.88329
 Time used in FCKEIG, thr_jaco:   4.25D-01  4.30D-02  1.69D-04
 CPU and wall times used in FCKEIG, THR_FCKEIG:   4.26D-01  4.30D-02  3.88D-02
 -----------------------------------------------------------------------------

 *** DIIS iteration number    2
 RDSUPM called. NFMAT, ISYMDM(1:NFMAT)                     1
                     1

 ITDIIS, energy, error norm, change in energy, scr.thr., difden:
@ DIIS iter.   2    -360.591821772        1.02136D+00   -8.11D-01  -20    F

 (DIIS_RED) Control Parameters C2DIIS =         F NEVC =    2


 (DIIS_RED) B matrix:

               Column   1     Column   2
       1      15.02614996
       2       0.64397391     1.04316998
    ==== End of matrix output ====

 DIIS C vector; C2DIIS = F, LAMBDA = -1.03D+00
    0.027007    0.972993
* Read MO coefficients from SIRIUS.RST with label "NEWORB  " and header info: 24Dec18  DIIS   2
      Virial theorem: -V/T =      2.004235
@      MULPOP N      -0.65; H       0.22; H       0.24; H       0.22; O      -0.59; O      -0.60; O      -0.67; O      -0.55; H       0.30; H       0.32; 
@             H       0.32; H       0.31; H       0.21; H       0.33; H       0.30; H       0.26; 
   2  Level shift: doubly occupied orbital energies shifted by -1.00D-01

 DIIS Fock eigenvalues in symmetry 1
      -20.71104      -20.69898      -20.67876      -20.67465      -15.51835
       -1.45390       -1.45020       -1.44076       -1.38391       -1.21312
       -0.83859       -0.81174       -0.80607       -0.74608       -0.72602
       -0.70567       -0.70057       -0.68550       -0.68310       -0.66616
       -0.64809       -0.63542       -0.60775       -0.58405       -0.50577
        0.14503        0.16782        0.21437        0.22970        0.24908
        0.26376        0.28257        0.31383        0.31971        0.35819
        0.37539        0.49543        0.51259        0.54694        0.56024
        0.57342        0.58318        0.60125        0.60949        0.64306
        0.66028        0.73267        0.89633        0.91533        0.94544
        0.96119        1.00292        1.01360        1.03239        1.07069
        1.07948        1.08541        1.10022        1.12932        1.14689
        1.17520        1.18241        1.28281        1.28394        1.33275
        1.35477        1.40243        1.45992        1.47896        1.48533
        1.50000        1.51265        1.55740        1.59108        1.61382
        1.65534        1.68347        1.70283        1.73286        1.76278
        1.79365        1.81373        1.85607        1.90691        1.91311
        1.93610        1.96773        2.03338        2.12108        2.16725
        2.23962        2.26771        2.28489        2.28959        2.31582
        2.33545        2.34309        2.43390        2.51830        2.60518
        2.64722        2.66691        2.70627        2.71335        2.72396
        2.77526        2.80586        2.83126        2.84603        2.93503
        3.01685        3.02087        3.12793        3.16169        3.37351
        3.41518        3.45044        3.45421        3.47059        3.50258
        3.52070        3.53329        3.54446        3.56400        3.57045
        3.62515        3.67233        3.72737        3.93317        3.96635
        4.08121        4.11581        4.13249        4.18927        4.20808
        4.25661        4.82376        5.21356        5.22683        5.31812
        5.34235        5.36817        5.48836        5.66006        5.74942
        5.76442        5.77138        5.99339        6.08934        6.16814
        6.19136       37.16080       51.45592       51.46841       51.49871
       51.53405
 Time used in FCKEIG, thr_jaco:   3.34D-01  3.40D-02  4.46D-05
 CPU and wall times used in FCKEIG, THR_FCKEIG:   3.34D-01  3.40D-02  1.02D-02
 -----------------------------------------------------------------------------

 *** DIIS iteration number    3
 RDSUPM called. NFMAT, ISYMDM(1:NFMAT)                     1
                     1

 ITDIIS, energy, error norm, change in energy, scr.thr., difden:
@ DIIS iter.   3    -360.655445682        4.00945D-01   -6.36D-02  -20    F

 (DIIS_RED) Control Parameters C2DIIS =         F NEVC =    3


 (DIIS_RED) B matrix:

               Column   1     Column   2     Column   3
       1      15.02614996
       2       0.64397391     1.04316998
       3       0.80716716    -0.01169782     0.16075689
    ==== End of matrix output ====

 DIIS C vector; C2DIIS = F, LAMBDA = -1.06D-01
   -0.047722    0.140873    0.906849
* Read MO coefficients from SIRIUS.RST with label "NEWORB  " and header info: 24Dec18  DIIS   3
      Virial theorem: -V/T =      2.001180
@      MULPOP N      -0.56; H       0.19; H       0.21; H       0.19; O      -0.63; O      -0.66; O      -0.78; O      -0.60; H       0.32; H       0.34; 
@             H       0.35; H       0.34; H       0.28; H       0.39; H       0.33; H       0.29; 
   3  Level shift: doubly occupied orbital energies shifted by -5.00D-02

 DIIS Fock eigenvalues in symmetry 1
      -20.61832      -20.61053      -20.57528      -20.48174      -15.59473
       -1.39031       -1.39004       -1.37191       -1.27751       -1.19400
       -0.77721       -0.74227       -0.74082       -0.68467       -0.66989
       -0.65654       -0.64296       -0.62485       -0.61278       -0.58126
       -0.57210       -0.56824       -0.53519       -0.46922       -0.45930
        0.15052        0.17333        0.21930        0.23351        0.25356
        0.26875        0.28745        0.31577        0.32461        0.36097
        0.38146        0.49804        0.51219        0.55565        0.56851
        0.58319        0.59487        0.61189        0.62085        0.65301
        0.67488        0.73963        0.89559        0.92075        0.94958
        0.97170        1.00975        1.03077        1.05351        1.08663
        1.09017        1.10119        1.10699        1.13946        1.16124
        1.19438        1.21022        1.28582        1.29348        1.33942
        1.35669        1.40530        1.46544        1.49505        1.49762
        1.51395        1.52480        1.57119        1.60623        1.62844
        1.67399        1.69506        1.71776        1.74547        1.77347
        1.80547        1.82516        1.86352        1.91215        1.92188
        1.94397        1.98051        2.03923        2.12880        2.18007
        2.23339        2.26227        2.29825        2.30578        2.32905
        2.35034        2.37148        2.45191        2.53386        2.61439
        2.65875        2.67661        2.71656        2.72432        2.73275
        2.78465        2.81551        2.83865        2.85724        2.93705
        2.99793        3.00227        3.12973        3.14537        3.38964
        3.43577        3.46509        3.47500        3.48065        3.52216
        3.55043        3.55111        3.57736        3.58305        3.58665
        3.64584        3.73622        3.75124        3.95326        4.02517
        4.09849        4.14046        4.15050        4.21095        4.26972
        4.28492        4.78939        5.17452        5.18491        5.35396
        5.38406        5.42608        5.52034        5.67749        5.78607
        5.79253        5.85681        6.01783        6.18466        6.18939
        6.22358       37.03847       51.48728       51.51806       51.58199
       51.64596
 Time used in FCKEIG, thr_jaco:   2.96D-01  3.00D-02  1.75D-05
 CPU and wall times used in FCKEIG, THR_FCKEIG:   2.97D-01  3.00D-02  4.01D-03
 -----------------------------------------------------------------------------

 *** DIIS iteration number    4
 RDSUPM called. NFMAT, ISYMDM(1:NFMAT)                     1
                     1

 ITDIIS, energy, error norm, change in energy, scr.thr., difden:
@ DIIS iter.   4    -360.665548548        1.08176D-01   -1.01D-02  -20    F

 (DIIS_RED) Control Parameters C2DIIS =         F NEVC =    4


 (DIIS_RED) B matrix:

               Column   1     Column   2     Column   3     Column   4
       1      15.02614996
       2       0.64397391     1.04316998
       3       0.80716716    -0.01169782     0.16075689
       4       0.01769181     0.09114757    -0.00582806     0.01170207
    ==== End of matrix output ====

 DIIS C vector; C2DIIS = F, LAMBDA = -3.93D-03
   -0.000382   -0.085194    0.057411    1.028166
* Read MO coefficients from SIRIUS.RST with label "NEWORB  " and header info: 24Dec18  DIIS   4
      Virial theorem: -V/T =      2.002278
@      MULPOP N      -0.62; H       0.20; H       0.23; H       0.21; O      -0.65; O      -0.68; O      -0.75; O      -0.60; H       0.33; H       0.35; 
@             H       0.35; H       0.34; H       0.28; H       0.39; H       0.33; H       0.29; 
   4  Level shift: doubly occupied orbital energies shifted by -2.50D-02

 DIIS Fock eigenvalues in symmetry 1
      -20.59909      -20.58713      -20.55872      -20.49584      -15.54964
       -1.36826       -1.36666       -1.35024       -1.26438       -1.16261
       -0.75385       -0.71981       -0.71798       -0.65613       -0.63922
       -0.63346       -0.61773       -0.59820       -0.58810       -0.55740
       -0.55107       -0.54127       -0.50905       -0.45321       -0.43244
        0.15059        0.17247        0.21920        0.23356        0.25304
        0.26835        0.28758        0.31725        0.32505        0.36338
        0.38247        0.50079        0.51593        0.55571        0.56856
        0.58290        0.59481        0.61072        0.62041        0.65251
        0.67312        0.74129        0.89901        0.92323        0.95322
        0.97323        1.01181        1.03043        1.05226        1.08544
        1.09000        1.10005        1.10800        1.13913        1.16095
        1.19504        1.20466        1.28742        1.29335        1.34060
        1.36017        1.40754        1.46711        1.49394        1.49587
        1.51259        1.52264        1.57037        1.60550        1.62703
        1.67145        1.69426        1.71549        1.74462        1.77409
        1.80473        1.82414        1.86508        1.91392        1.92268
        1.94415        1.97947        2.04235        2.13125        2.17781
        2.23836        2.26745        2.29712        2.30413        2.32778
        2.34747        2.36542        2.45011        2.53462        2.61418
        2.65852        2.67735        2.71699        2.72312        2.73333
        2.78495        2.81532        2.84027        2.85686        2.94032
        3.00535        3.00875        3.13343        3.15195        3.39007
        3.43467        3.46900        3.47629        3.48668        3.51228
        3.55069        3.55353        3.57043        3.57732        3.58676
        3.64475        3.72577        3.75019        3.95179        4.01536
        4.09849        4.13896        4.15085        4.20990        4.25966
        4.28341        4.79713        5.18439        5.19527        5.35261
        5.38412        5.40553        5.51714        5.67751        5.78332
        5.78951        5.83899        6.01464        6.16609        6.18816
        6.21978       37.05834       51.48174       51.51655       51.57363
       51.60787
 Time used in FCKEIG, thr_jaco:   2.60D-01  2.60D-02  4.73D-06
 CPU and wall times used in FCKEIG, THR_FCKEIG:   2.60D-01  2.60D-02  1.08D-03
 -----------------------------------------------------------------------------

 *** DIIS iteration number    5
 RDSUPM called. NFMAT, ISYMDM(1:NFMAT)                     1
                     1

 ITDIIS, energy, error norm, change in energy, scr.thr., difden:
@ DIIS iter.   5    -360.666686582        2.43091D-02   -1.14D-03  -20    F

 (DIIS_RED) Control Parameters C2DIIS =         F NEVC =    5


 (DIIS_RED) B matrix:

               Column   1     Column   2     Column   3     Column   4     Column   5
       1      15.02614996
       2       0.64397391     1.04316998
       3       0.80716716    -0.01169782     0.16075689
       4       0.01769181     0.09114757    -0.00582806     0.01170207
       5       0.01229129     0.00713259     0.00467859     0.00117322     0.00059093
    ==== End of matrix output ====

 DIIS C vector; C2DIIS = F, LAMBDA = -3.72D-04
    0.001464    0.001528   -0.043036   -0.120043    1.160088
* Read MO coefficients from SIRIUS.RST with label "NEWORB  " and header info: 24Dec18  DIIS   5
      Virial theorem: -V/T =      2.001925
@      MULPOP N      -0.62; H       0.20; H       0.23; H       0.20; O      -0.66; O      -0.69; O      -0.77; O      -0.61; H       0.33; H       0.35; 
@             H       0.36; H       0.35; H       0.29; H       0.40; H       0.34; H       0.29; 

 DIIS Fock eigenvalues in symmetry 1
      -20.57312      -20.56224      -20.53278      -20.46461      -15.51772
       -1.34304       -1.34172       -1.32481       -1.23707       -1.13541
       -0.72952       -0.69487       -0.69320       -0.63015       -0.61246
       -0.60687       -0.59253       -0.57305       -0.56293       -0.53083
       -0.52471       -0.51549       -0.48272       -0.42534       -0.40527
        0.15054        0.17218        0.21924        0.23365        0.25284
        0.26820        0.28796        0.31750        0.32513        0.36394
        0.38295        0.50131        0.51659        0.55556        0.56850
        0.58272        0.59502        0.61069        0.62050        0.65254
        0.67355        0.74201        0.90021        0.92418        0.95424
        0.97394        1.01251        1.03134        1.05354        1.08573
        1.08977        1.10085        1.10879        1.13936        1.16106
        1.19589        1.20571        1.28808        1.29341        1.34133
        1.36104        1.40816        1.46774        1.49374        1.49621
        1.51236        1.52203        1.57030        1.60598        1.62728
        1.67204        1.69390        1.71573        1.74441        1.77445
        1.80441        1.82362        1.86529        1.91468        1.92306
        1.94410        1.97925        2.04319        2.13180        2.17720
        2.23957        2.26845        2.29643        2.30377        2.32727
        2.34693        2.36597        2.45007        2.53568        2.61387
        2.65836        2.67758        2.71685        2.72296        2.73325
        2.78480        2.81488        2.84044        2.85668        2.94084
        3.00703        3.01028        3.13463        3.15388        3.39007
        3.43488        3.47001        3.47708        3.48903        3.51459
        3.55052        3.55475        3.57262        3.57796        3.58669
        3.64484        3.72807        3.75057        3.95190        4.01783
        4.09823        4.13929        4.15073        4.21007        4.26220
        4.28370        4.80055        5.18742        5.19840        5.35355
        5.38429        5.40933        5.51793        5.67744        5.78377
        5.79008        5.84235        6.01481        6.16934        6.18790
        6.22003       37.06510       51.48269       51.51646       51.57463
       51.61393
 Time used in FCKEIG, thr_jaco:   2.73D-01  2.80D-02  1.06D-06
 CPU and wall times used in FCKEIG, THR_FCKEIG:   2.73D-01  2.80D-02  2.43D-04
 -----------------------------------------------------------------------------

 *** DIIS iteration number    6
 RDSUPM called. NFMAT, ISYMDM(1:NFMAT)                     1
                     1

 ITDIIS, energy, error norm, change in energy, scr.thr., difden:
@ DIIS iter.   6    -360.666775092        8.60825D-03   -8.85D-05  -20    F

 (DIIS_RED) Control Parameters C2DIIS =         F NEVC =    6


 (DIIS_RED) B matrix:

               Column   1     Column   2     Column   3     Column   4     Column   5     Column   6
       1      15.02614996
       2       0.64397391     1.04316998
       3       0.80716716    -0.01169782     0.16075689
       4       0.01769181     0.09114757    -0.00582806     0.01170207
       5       0.01229129     0.00713259     0.00467859     0.00117322     0.00059093
       6      -0.00186548    -0.00027299     0.00065668     0.00027975     0.00006749     0.00007410
    ==== End of matrix output ====

 DIIS C vector; C2DIIS = F, LAMBDA = -3.84D-05
    0.000566    0.007824   -0.015026   -0.106599    0.183169    0.930066
* Read MO coefficients from SIRIUS.RST with label "NEWORB  " and header info: 24Dec18  DIIS   6
      Virial theorem: -V/T =      2.002049
@      MULPOP N      -0.62; H       0.20; H       0.23; H       0.20; O      -0.66; O      -0.69; O      -0.77; O      -0.61; H       0.34; H       0.36; 
@             H       0.36; H       0.35; H       0.29; H       0.40; H       0.34; H       0.29; 

 DIIS Fock eigenvalues in symmetry 1
      -20.57355      -20.56211      -20.53286      -20.46669      -15.52159
       -1.34314       -1.34165       -1.32476       -1.23761       -1.13656
       -0.72968       -0.69498       -0.69342       -0.63092       -0.61331
       -0.60760       -0.59300       -0.57316       -0.56306       -0.53125
       -0.52493       -0.51526       -0.48258       -0.42573       -0.40632
        0.15045        0.17208        0.21913        0.23354        0.25275
        0.26813        0.28781        0.31735        0.32506        0.36377
        0.38279        0.50097        0.51621        0.55545        0.56836
        0.58266        0.59474        0.61043        0.62035        0.65245
        0.67331        0.74168        0.89960        0.92377        0.95386
        0.97379        1.01225        1.03111        1.05335        1.08554
        1.08970        1.10068        1.10843        1.13911        1.16102
        1.19585        1.20536        1.28769        1.29337        1.34099
        1.36063        1.40778        1.46740        1.49348        1.49595
        1.51220        1.52177        1.57018        1.60574        1.62701
        1.67171        1.69376        1.71542        1.74427        1.77414
        1.80427        1.82346        1.86498        1.91417        1.92275
        1.94380        1.97914        2.04282        2.13149        2.17691
        2.23891        2.26777        2.29625        2.30362        2.32709
        2.34665        2.36555        2.44993        2.53520        2.61353
        2.65811        2.67729        2.71660        2.72271        2.73299
        2.78454        2.81457        2.84010        2.85646        2.94038
        3.00598        3.00929        3.13408        3.15275        3.39011
        3.43470        3.46945        3.47656        3.48776        3.51394
        3.55053        3.55417        3.57201        3.57777        3.58670
        3.64465        3.72739        3.75049        3.95171        4.01707
        4.09822        4.13922        4.15075        4.20989        4.26139
        4.28368        4.79867        5.18570        5.19663        5.35317
        5.38437        5.40825        5.51788        5.67750        5.78356
        5.78991        5.84127        6.01451        6.16824        6.18789
        6.21996       37.06132       51.48227       51.51658       51.57452
       51.61190
 Time used in FCKEIG, thr_jaco:   2.67D-01  2.70D-02  3.76D-07
 CPU and wall times used in FCKEIG, THR_FCKEIG:   2.67D-01  2.70D-02  8.61D-05
 -----------------------------------------------------------------------------

 *** DIIS iteration number    7
 RDSUPM called. NFMAT, ISYMDM(1:NFMAT)                     1
                     1

 ITDIIS, energy, error norm, change in energy, scr.thr., difden:
@ DIIS iter.   7    -360.666783108        2.44768D-03   -8.02D-06  -20    F

 (DIIS_RED) Control Parameters C2DIIS =         F NEVC =    7


 (DIIS_RED) B matrix:

               Column   1     Column   2     Column   3     Column   4     Column   5     Column   6
       1      15.02614996
       2       0.64397391     1.04316998
       3       0.80716716    -0.01169782     0.16075689
       4       0.01769181     0.09114757    -0.00582806     0.01170207
       5       0.01229129     0.00713259     0.00467859     0.00117322     0.00059093
       6      -0.00186548    -0.00027299     0.00065668     0.00027975     0.00006749     0.00007410
       7       0.00042589    -0.00004441     0.00009648     0.00000417     0.00003903     0.00000146

               Column   7
       7       0.00000599
    ==== End of matrix output ====

 DIIS C vector; C2DIIS = F, LAMBDA = -1.43D-06
   -0.000217   -0.001261    0.006110    0.029539   -0.157301   -0.036064    1.159196
* Read MO coefficients from SIRIUS.RST with label "NEWORB  " and header info: 24Dec18  DIIS   7
      Virial theorem: -V/T =      2.002024
@      MULPOP N      -0.62; H       0.20; H       0.23; H       0.20; O      -0.66; O      -0.69; O      -0.78; O      -0.61; H       0.34; H       0.36; 
@             H       0.36; H       0.35; H       0.29; H       0.40; H       0.34; H       0.29; 

 DIIS Fock eigenvalues in symmetry 1
      -20.57357      -20.56223      -20.53294      -20.46608      -15.52095
       -1.34312       -1.34166       -1.32475       -1.23730       -1.13632
       -0.72974       -0.69501       -0.69345       -0.63084       -0.61314
       -0.60741       -0.59304       -0.57322       -0.56313       -0.53109
       -0.52481       -0.51523       -0.48250       -0.42539       -0.40608
        0.15046        0.17207        0.21917        0.23357        0.25274
        0.26814        0.28785        0.31738        0.32507        0.36381
        0.38290        0.50104        0.51631        0.55545        0.56837
        0.58265        0.59479        0.61047        0.62040        0.65246
        0.67339        0.74178        0.89970        0.92385        0.95396
        0.97383        1.01231        1.03120        1.05348        1.08559
        1.08968        1.10076        1.10851        1.13912        1.16103
        1.19591        1.20550        1.28776        1.29338        1.34106
        1.36070        1.40787        1.46749        1.49347        1.49603
        1.51219        1.52171        1.57017        1.60580        1.62710
        1.67181        1.69375        1.71549        1.74426        1.77424
        1.80425        1.82343        1.86499        1.91429        1.92283
        1.94383        1.97912        2.04292        2.13159        2.17686
        2.23901        2.26788        2.29621        2.30360        2.32706
        2.34659        2.36565        2.44991        2.53537        2.61350
        2.65809        2.67733        2.71660        2.72275        2.73299
        2.78454        2.81453        2.84012        2.85644        2.94052
        3.00617        3.00948        3.13420        3.15297        3.39007
        3.43470        3.46954        3.47663        3.48800        3.51422
        3.55049        3.55426        3.57228        3.57780        3.58667
        3.64466        3.72770        3.75050        3.95170        4.01737
        4.09819        4.13921        4.15073        4.20990        4.26171
        4.28368        4.79904        5.18598        5.19692        5.35321
        5.38432        5.40866        5.51787        5.67744        5.78355
        5.78990        5.84165        6.01450        6.16863        6.18784
        6.21993       37.06194       51.48224       51.51646       51.57445
       51.61250
 Time used in FCKEIG, thr_jaco:   2.62D-01  2.60D-02  1.07D-07
 CPU and wall times used in FCKEIG, THR_FCKEIG:   2.62D-01  2.60D-02  2.45D-05
 -----------------------------------------------------------------------------

 *** DIIS iteration number    8
 RDSUPM called. NFMAT, ISYMDM(1:NFMAT)                     1
                     1

 ITDIIS, energy, error norm, change in energy, scr.thr., difden:
@ DIIS iter.   8    -360.666783829        3.89241D-04   -7.21D-07  -20    F

 (DIIS_RED) Control Parameters C2DIIS =         F NEVC =    8


 (DIIS_RED) B matrix:

               Column   1     Column   2     Column   3     Column   4     Column   5     Column   6
       1      15.02614996
       2       0.64397391     1.04316998
       3       0.80716716    -0.01169782     0.16075689
       4       0.01769181     0.09114757    -0.00582806     0.01170207
       5       0.01229129     0.00713259     0.00467859     0.00117322     0.00059093
       6      -0.00186548    -0.00027299     0.00065668     0.00027975     0.00006749     0.00007410
       7       0.00042589    -0.00004441     0.00009648     0.00000417     0.00003903     0.00000146
       8       0.00008232     0.00000928    -0.00000188     0.00000328     0.00000117     0.00000147

               Column   7     Column   8
       7       0.00000599
       8       0.00000039     0.00000015
    ==== End of matrix output ====

 DIIS C vector; C2DIIS = F, LAMBDA = -9.35D-08
   -0.000004   -0.000087   -0.000165   -0.000287    0.013030   -0.028687   -0.134362    1.150561
* Read MO coefficients from SIRIUS.RST with label "NEWORB  " and header info: 24Dec18  DIIS   8
      Virial theorem: -V/T =      2.002038
@      MULPOP N      -0.62; H       0.20; H       0.23; H       0.20; O      -0.66; O      -0.69; O      -0.78; O      -0.61; H       0.34; H       0.36; 
@             H       0.36; H       0.35; H       0.29; H       0.40; H       0.34; H       0.29; 

 DIIS Fock eigenvalues in symmetry 1
      -20.57353      -20.56217      -20.53285      -20.46612      -15.52096
       -1.34310       -1.34163       -1.32472       -1.23732       -1.13633
       -0.72972       -0.69498       -0.69343       -0.63084       -0.61315
       -0.60742       -0.59305       -0.57322       -0.56312       -0.53110
       -0.52481       -0.51520       -0.48247       -0.42540       -0.40610
        0.15046        0.17207        0.21917        0.23357        0.25274
        0.26814        0.28786        0.31737        0.32507        0.36381
        0.38289        0.50104        0.51630        0.55545        0.56837
        0.58265        0.59479        0.61046        0.62041        0.65246
        0.67339        0.74178        0.89970        0.92385        0.95396
        0.97384        1.01232        1.03120        1.05348        1.08559
        1.08969        1.10076        1.10851        1.13912        1.16104
        1.19592        1.20551        1.28776        1.29340        1.34106
        1.36070        1.40786        1.46749        1.49346        1.49602
        1.51219        1.52171        1.57017        1.60580        1.62709
        1.67181        1.69375        1.71549        1.74426        1.77423
        1.80425        1.82343        1.86498        1.91427        1.92282
        1.94382        1.97913        2.04291        2.13157        2.17685
        2.23901        2.26786        2.29621        2.30361        2.32706
        2.34659        2.36566        2.44992        2.53535        2.61349
        2.65809        2.67732        2.71660        2.72275        2.73299
        2.78454        2.81452        2.84011        2.85644        2.94050
        3.00616        3.00947        3.13419        3.15296        3.39009
        3.43471        3.46954        3.47663        3.48800        3.51420
[...]
    ==== End of matrix output ====


 CCSD   oscillator strength matrix for state nr. 13 of symmetry 1
 CCSD  excitation energy:15.13438193


               Column   1     Column   2     Column   3
       1       0.00370872    -0.00113676     0.00402192
       2      -0.00113676     0.00034843    -0.00123274
       3       0.00402192    -0.00123274     0.00436133
    ==== End of matrix output ====

 Principal values of diagonalized oscillator strength matrix:

             a.u.               
 1      -0.00000011
 2      -0.00000000
 3       0.00841858

 Principal axis of diagonalized oscillator strength matrix:


               Column   1     Column   2     Column   3
       1       0.71502883     0.21951676     0.66373652
       2      -0.10983969     0.97290662    -0.20344030
       3      -0.69041221     0.07256106     0.71976793
    ==== End of matrix output ====


 CCSD  Transition strength matrix for state nr. 14 of symmetry 1
 CCSD  excitation energy:15.21048270

 Gauge: length

               Column   1     Column   2     Column   3
       1     2.762401D-05   1.245647D-05  -8.526752D-05
       2     1.245647D-05   5.614594D-06  -3.843900D-05
       3    -8.526752D-05  -3.843900D-05   2.631497D-04
    ==== End of matrix output ====

 Principal values of diagonalized transition strength matrix:

             a.u.               
 1      -0.00000000
 2       0.00000000
 3       0.00029639

 Principal axis of diagonalized transition strength matrix:


               Column   1     Column   2     Column   3
       1       0.92334501     0.23285062    -0.30531063
       2      -0.28474822     0.94866963    -0.13763864
       3       0.25758968     0.21402460     0.94225317
    ==== End of matrix output ====


 CCSD   oscillator strength matrix for state nr. 14 of symmetry 1
 CCSD  excitation energy:15.21048270


               Column   1     Column   2     Column   3
       1       0.00028012     0.00012631    -0.00086464
       2       0.00012631     0.00005693    -0.00038978
       3      -0.00086464    -0.00038978     0.00266842
    ==== End of matrix output ====

 Principal values of diagonalized oscillator strength matrix:

             a.u.               
 1      -0.00000005
 2      -0.00000000
 3       0.00300552

 Principal axis of diagonalized oscillator strength matrix:


               Column   1     Column   2     Column   3
       1       0.92334501     0.23285062    -0.30531063
       2      -0.28474822     0.94866963    -0.13763864
       3       0.25758968     0.21402460     0.94225317
    ==== End of matrix output ====


 CCSD  Transition strength matrix for state nr. 15 of symmetry 1
 CCSD  excitation energy:15.29005461

 Gauge: length

               Column   1     Column   2     Column   3
       1     3.086680D-06  -6.817279D-06   4.321859D-05
       2    -6.817279D-06   1.505063D-05  -9.539778D-05
       3     4.321859D-05  -9.539778D-05   6.046291D-04
    ==== End of matrix output ====

 Principal values of diagonalized transition strength matrix:

             a.u.               
 1      -0.00000000
 2      -0.00000000
 3       0.00062277

 Principal axis of diagonalized transition strength matrix:


               Column   1     Column   2     Column   3
       1       0.83082211     0.55206362     0.07043002
       2      -0.53753303     0.82878786    -0.15546355
       3      -0.14419732     0.09130410     0.98532771
    ==== End of matrix output ====


 CCSD   oscillator strength matrix for state nr. 15 of symmetry 1
 CCSD  excitation energy:15.29005461


               Column   1     Column   2     Column   3
       1       0.00003146    -0.00006949     0.00044054
       2      -0.00006949     0.00015342    -0.00097242
       3       0.00044054    -0.00097242     0.00616321
    ==== End of matrix output ====

 Principal values of diagonalized oscillator strength matrix:

             a.u.               
 1      -0.00000004
 2      -0.00000000
 3       0.00634812

 Principal axis of diagonalized oscillator strength matrix:


               Column   1     Column   2     Column   3
       1       0.83082211     0.55206362     0.07043002
       2      -0.53753303     0.82878786    -0.15546355
       3      -0.14419732     0.09130410     0.98532771
    ==== End of matrix output ====

  Total time for    135 linear response residues:     173.50 seconds.
  

 *******************************************************************************
 *******************************************************************************
 *                                                                             *
 *                                                                             *
 *                   SUMMARY OF COUPLED CLUSTER CALCULATION                    *
 *                                                                             *
 *                                                                             *
 *******************************************************************************
 *******************************************************************************

                                                                                
                                                                                
            Total SCF   energy:                  -360.6667838508                
            Total MP2   energy:                  -361.7749492298                
            Total CCSD  energy:                  -361.8133069515                
                                                                                
                                                                                
            Total SCF   energy:                  -360.6667838508                
            Total RSTAR energy:                  -361.8133069515                
            Total CCSD  energy:                  -361.8134433703                
                                                                                
                                                                                
            Total SCF   energy:                  -360.6667838508                
            Total RSTAR energy:                  -361.8134433703                
            Total CCSD  energy:                  -361.8134454005                
                                                                                
                                                                                
            Total SCF   energy:                  -360.6667838508                
            Total RSTAR energy:                  -361.8134454005                
            Total CCSD  energy:                  -361.8134455387                
                                                                                
                                                                                
            Total SCF   energy:                  -360.6667838508                
            Total RSTAR energy:                  -361.8134455387                
            Total CCSD  energy:                  -361.8134455475                
                                                                                
                                                                                
            Total SCF   energy:                  -360.6667838508                
            Total RSTAR energy:                  -361.8134455475                
            Total CCSD  energy:                  -361.8134455481                
                                                                                
                                                                                
            Total SCF   energy:                  -360.6667838508                
            Total RSTAR energy:                  -361.8134455481                
            Total CCSD  energy:                  -361.8134455481                
            CCSD Total  energy:                  -362.1149762803                
            CCSD E(QM/MM)     :                    -0.2970185469                
                                                                                
                                                                                
                                                                                
 +=============================================================================+
 |  sym. | Exci.  |        CCSD       Excitation energies            | ||T1||  |
 |(spin, |        +------------------------------------------------------------+
 | spat) |        |     Hartree    |       eV.      |     cm-1       |    %    |
 +=============================================================================+
 | ^1A   |    1   |    14.8269944  |     403.46304  |   3254149.092  |  88.39  |
 | ^1A   |    2   |    14.8895000  |     405.16391  |   3267867.501  |  88.78  |
 | ^1A   |    3   |    14.9161005  |     405.88774  |   3273705.622  |  88.75  |
 | ^1A   |    4   |    14.9598895  |     407.07930  |   3283316.198  |  88.05  |
 | ^1A   |    5   |    14.9735693  |     407.45155  |   3286318.569  |  88.24  |
 | ^1A   |    6   |    14.9977266  |     408.10890  |   3291620.484  |  88.21  |
 | ^1A   |    7   |    15.0060956  |     408.33663  |   3293457.262  |  87.95  |
 | ^1A   |    8   |    15.0279403  |     408.93106  |   3298251.627  |  87.97  |
 | ^1A   |    9   |    15.0445456  |     409.38291  |   3301896.073  |  87.91  |
 | ^1A   |   10   |    15.0746709  |     410.20266  |   3308507.814  |  87.93  |
 | ^1A   |   11   |    15.0784619  |     410.30582  |   3309339.831  |  88.06  |
 | ^1A   |   12   |    15.1203255  |     411.44499  |   3318527.833  |  87.88  |
 | ^1A   |   13   |    15.1343819  |     411.82748  |   3321612.864  |  88.11  |
 | ^1A   |   14   |    15.2104827  |     413.89829  |   3338315.052  |  87.90  |
 | ^1A   |   15   |    15.2900546  |     416.06355  |   3355779.067  |  87.87  |
 +=============================================================================+
                                                                                
                                                                                
     Total energies in Hartree:                                                 
             1 ^1A       -346.9909633702                                        
             2 ^1A       -346.9284576981                                        
             3 ^1A       -346.9018572624                                        
             4 ^1A       -346.8580682581                                        
             5 ^1A       -346.8443884477                                        
             6 ^1A       -346.8202311466                                        
             7 ^1A       -346.8118621682                                        
             8 ^1A       -346.7900174337                                        
             9 ^1A       -346.7734121137                                        
            10 ^1A       -346.7432868051                                        
            11 ^1A       -346.7394958602                                        
            12 ^1A       -346.6976322393                                        
            13 ^1A       -346.6835758041                                        
            14 ^1A       -346.6074750367                                        
            15 ^1A       -346.5279031266                                        
                                                                                
                                                                                
 +=============================================================================+
 |  sym. | Exci.  |        CCSD       Length   Gauge Oscillator Strength       |
 |(spin, |        +------------------------------------------------------------+
 | spat) |        | Dipole Strength(a.u.) | Oscillator strength  | Direction   |
 +=============================================================================+
 | ^1A   |    1   |        0.0009759      |      0.0096469       |  (Y,Z)      |
 | ^1A   |    2   |        0.0032656      |      0.0324157       |  (Y,Z)      |
 | ^1A   |    3   |        0.0029651      |      0.0294851       |  (Y,Z)      |
 | ^1A   |    4   |        0.0001897      |      0.0018915       |  (Y,Z)      |
 | ^1A   |    5   |        0.0016198      |      0.0161694       |  (Y,Z)      |
 | ^1A   |    6   |        0.0010689      |      0.0106875       |  (Y,Z)      |
 | ^1A   |    7   |        0.0003463      |      0.0034643       |  (Y,Z)      |
 | ^1A   |    8   |        0.0003324      |      0.0033299       |  (Y,Z)      |
 | ^1A   |    9   |        0.0001087      |      0.0010901       |  (Y,Z)      |
 | ^1A   |   10   |        0.0000454      |      0.0004559       |  (Y,Z)      |
 | ^1A   |   11   |        0.0002481      |      0.0024937       |  (Y,Z)      |
 | ^1A   |   12   |        0.0001912      |      0.0019276       |  (Y,Z)      |
 | ^1A   |   13   |        0.0008344      |      0.0084185       |  (Y,Z)      |
 | ^1A   |   14   |        0.0002964      |      0.0030055       |  (Y,Z)      |
 | ^1A   |   15   |        0.0006228      |      0.0063481       |  (Y,Z)      |
 +=============================================================================+

  1 a.u. =        27.21138 eV.  
  1 a.u. =    219474.62934 cm-1.
  

 *******************************************************************************
 *******************************************************************************
 *                                                                             *
 *                                                                             *
 *                      END OF COUPLED CLUSTER CALCULATION                     *
 *                                                                             *
 *                                                                             *
 *******************************************************************************
 *******************************************************************************


 CPU and wall time for CC :  615119.465  130217.947

 
     Date and time (Linux)  : Wed Dec 26 11:50:30 2018
     Host name              : n-62-29-14                              


                      .-------------------------------------.
                      | End of Coupled Cluster Section (CC) |
                      `-------------------------------------'

  Total CPU  time used in DALTON: 171 hours  2 minutes 36 seconds
  Total wall time used in DALTON:  36 hours 12 minutes 26 seconds

 
     Date and time (Linux)  : Wed Dec 26 11:50:30 2018
     Host name              : n-62-29-14                              
  

 +---------------------------------------------------------+ 
 | List of selected calculated molecular properties (a.u.) | 
 +---------------------------------------------------------+ 

  Properties are read from unit number                      4

 CCSD       properties :
 #  1 1 CCSD/MM  Ground state Energy =    -362.1149762803
 #  2 1 E_QM/MM  Ground state Energy =      -0.2970185469
 #  3 1 Sy: 1 Sp: 1 Exc:  1 E_tot:   -346.9909633702 w:     14.8269943632 E_grs:   -361.8179577334
 #  4 1 Exctot   Excited state Energy =    -346.9909633702
 #  5 1 Sy: 1 Sp: 1 Exc:  2 E_tot:   -346.9284576981 w:     14.8895000353 E_grs:   -361.8179577334
 #  6 1 Exctot   Excited state Energy =    -346.9284576981
 #  7 1 Sy: 1 Sp: 1 Exc:  3 E_tot:   -346.9018572624 w:     14.9161004710 E_grs:   -361.8179577334
 #  8 1 Exctot   Excited state Energy =    -346.9018572624
 #  9 1 Sy: 1 Sp: 1 Exc:  4 E_tot:   -346.8580682581 w:     14.9598894753 E_grs:   -361.8179577334
 # 10 1 Exctot   Excited state Energy =    -346.8580682581
 # 11 1 Sy: 1 Sp: 1 Exc:  5 E_tot:   -346.8443884477 w:     14.9735692857 E_grs:   -361.8179577334
 # 12 1 Exctot   Excited state Energy =    -346.8443884477
 # 13 1 Sy: 1 Sp: 1 Exc:  6 E_tot:   -346.8202311466 w:     14.9977265868 E_grs:   -361.8179577334
 # 14 1 Exctot   Excited state Energy =    -346.8202311466
 # 15 1 Sy: 1 Sp: 1 Exc:  7 E_tot:   -346.8118621682 w:     15.0060955652 E_grs:   -361.8179577334
 # 16 1 Exctot   Excited state Energy =    -346.8118621682
 # 17 1 Sy: 1 Sp: 1 Exc:  8 E_tot:   -346.7900174337 w:     15.0279402997 E_grs:   -361.8179577334
 # 18 1 Exctot   Excited state Energy =    -346.7900174337
 # 19 1 Sy: 1 Sp: 1 Exc:  9 E_tot:   -346.7734121137 w:     15.0445456197 E_grs:   -361.8179577334
 # 20 1 Exctot   Excited state Energy =    -346.7734121137
 # 21 1 Sy: 1 Sp: 1 Exc: 10 E_tot:   -346.7432868051 w:     15.0746709283 E_grs:   -361.8179577334
 # 22 1 Exctot   Excited state Energy =    -346.7432868051
 # 23 1 Sy: 1 Sp: 1 Exc: 11 E_tot:   -346.7394958602 w:     15.0784618732 E_grs:   -361.8179577334
 # 24 1 Exctot   Excited state Energy =    -346.7394958602
 # 25 1 Sy: 1 Sp: 1 Exc: 12 E_tot:   -346.6976322393 w:     15.1203254941 E_grs:   -361.8179577334
 # 26 1 Exctot   Excited state Energy =    -346.6976322393
 # 27 1 Sy: 1 Sp: 1 Exc: 13 E_tot:   -346.6835758041 w:     15.1343819293 E_grs:   -361.8179577334
 # 28 1 Exctot   Excited state Energy =    -346.6835758041
 # 29 1 Sy: 1 Sp: 1 Exc: 14 E_tot:   -346.6074750367 w:     15.2104826967 E_grs:   -361.8179577334
 # 30 1 Exctot   Excited state Energy =    -346.6074750367
 # 31 1 Sy: 1 Sp: 1 Exc: 15 E_tot:   -346.5279031266 w:     15.2900546068 E_grs:   -361.8179577334
 # 32 1 Exctot   Excited state Energy =    -346.5279031266
 # 33 1 |<O|XDIPLEN |i(14.826994)>| =     0.01709398
 # 35 1 |<O|XDIPLEN |i(14.889500)>| =     0.00078007
 # 37 1 |<O|XDIPLEN |i(14.916100)>| =     0.05191542
 # 39 1 |<O|XDIPLEN |i(14.959889)>| =     0.00650332
 # 41 1 |<O|XDIPLEN |i(14.973569)>| =     0.02060894
 # 43 1 |<O|XDIPLEN |i(14.997727)>| =     0.01487351
 # 45 1 |<O|XDIPLEN |i(15.006096)>| =     0.01587299
 # 47 1 |<O|XDIPLEN |i(15.027940)>| =     0.00250740
 # 49 1 |<O|XDIPLEN |i(15.044546)>| =     0.00183236
 # 51 1 |<O|XDIPLEN |i(15.074671)>| =     0.00408714
 # 53 1 |<O|XDIPLEN |i(15.078462)>| =     0.01502906
 # 55 1 |<O|XDIPLEN |i(15.120325)>| =     0.00090889
 # 57 1 |<O|XDIPLEN |i(15.134382)>| =     0.01917235
 # 59 1 |<O|XDIPLEN |i(15.210483)>| =     0.00525585
 # 61 1 |<O|XDIPLEN |i(15.290055)>| =     0.00175690
 # 63 1 |<O|YDIPLEN |i(14.826994)>| =     0.02308531
 # 65 1 |<O|YDIPLEN |i(14.889500)>| =     0.05319988
 # 67 1 |<O|YDIPLEN |i(14.916100)>| =     0.00350917
 # 69 1 |<O|YDIPLEN |i(14.959889)>| =     0.00044005
 # 71 1 |<O|YDIPLEN |i(14.973569)>| =     0.02170638
 # 73 1 |<O|YDIPLEN |i(14.997727)>| =     0.01323327
 # 75 1 |<O|YDIPLEN |i(15.006096)>| =     0.00765079
 # 77 1 |<O|YDIPLEN |i(15.027940)>| =     0.00240663
 # 79 1 |<O|YDIPLEN |i(15.044546)>| =     0.00449458
 # 81 1 |<O|YDIPLEN |i(15.074671)>| =     0.00003180
 # 83 1 |<O|YDIPLEN |i(15.078462)>| =     0.00181066
 # 85 1 |<O|YDIPLEN |i(15.120325)>| =     0.01003378
 # 87 1 |<O|YDIPLEN |i(15.134382)>| =     0.00587650
 # 89 1 |<O|YDIPLEN |i(15.210483)>| =     0.00236951
 # 91 1 |<O|YDIPLEN |i(15.290055)>| =     0.00387951
 # 93 1 |<O|ZDIPLEN |i(14.826994)>| =     0.01228032
 # 95 1 |<O|ZDIPLEN |i(14.889500)>| =     0.02085154
 # 97 1 |<O|ZDIPLEN |i(14.916100)>| =     0.01604894
 # 99 1 |<O|ZDIPLEN |i(14.959889)>| =     0.01213128
 #101 1 |<O|ZDIPLEN |i(14.973569)>| =     0.02690545
 #103 1 |<O|ZDIPLEN |i(14.997727)>| =     0.02593392
 #105 1 |<O|ZDIPLEN |i(15.006096)>| =     0.00598381
 #107 1 |<O|ZDIPLEN |i(15.027940)>| =     0.01789674
 #109 1 |<O|ZDIPLEN |i(15.044546)>| =     0.00922639
 #111 1 |<O|ZDIPLEN |i(15.074671)>| =     0.00535369
 #113 1 |<O|ZDIPLEN |i(15.078462)>| =     0.00435038
 #115 1 |<O|ZDIPLEN |i(15.120325)>| =     0.00947236
 #117 1 |<O|ZDIPLEN |i(15.134382)>| =     0.02079087
 #119 1 |<O|ZDIPLEN |i(15.210483)>| =     0.01622189
 #121 1 |<O|ZDIPLEN |i(15.290055)>| =     0.02458921

 THE_END   
