

     ************************************************************************
     *************** Dalton - An Electronic Structure Program ***************
     ************************************************************************

    This is output from DALTON release Dalton2017.alpha (2016)
         ( Web site: http://daltonprogram.org )

   ----------------------------------------------------------------------------

    NOTE:
     
    Dalton is an experimental code for the evaluation of molecular
    properties using (MC)SCF, DFT, CI, and CC wave functions.
    The authors accept no responsibility for the performance of
    the code or for the correctness of the results.
     
    The code (in whole or part) is provided under a licence and
    is not to be reproduced for further distribution without
    the written permission of the authors or their representatives.
     
    See the home page "http://daltonprogram.org" for further information.
     
    If results obtained with this code are published,
    the appropriate citations would be both of:
     
       K. Aidas, C. Angeli, K. L. Bak, V. Bakken, R. Bast,
       L. Boman, O. Christiansen, R. Cimiraglia, S. Coriani,
       P. Dahle, E. K. Dalskov, U. Ekstroem,
       T. Enevoldsen, J. J. Eriksen, P. Ettenhuber, B. Fernandez,
       L. Ferrighi, H. Fliegl, L. Frediani, K. Hald, A. Halkier,
       C. Haettig, H. Heiberg, T. Helgaker, A. C. Hennum,
       H. Hettema, E. Hjertenaes, S. Hoest, I.-M. Hoeyvik,
       M. F. Iozzi, B. Jansik, H. J. Aa. Jensen, D. Jonsson,
       P. Joergensen, J. Kauczor, S. Kirpekar,
       T. Kjaergaard, W. Klopper, S. Knecht, R. Kobayashi, H. Koch,
       J. Kongsted, A. Krapp, K. Kristensen, A. Ligabue,
       O. B. Lutnaes, J. I. Melo, K. V. Mikkelsen, R. H. Myhre,
       C. Neiss, C. B. Nielsen, P. Norman, J. Olsen,
       J. M. H. Olsen, A. Osted, M. J. Packer, F. Pawlowski,
       T. B. Pedersen, P. F. Provasi, S. Reine, Z. Rinkevicius,
       T. A. Ruden, K. Ruud, V. Rybkin, P. Salek, C. C. M. Samson,
       A. Sanchez de Meras, T. Saue, S. P. A. Sauer,
       B. Schimmelpfennig, K. Sneskov, A. H. Steindal,
       K. O. Sylvester-Hvid, P. R. Taylor, A. M. Teale,
       E. I. Tellgren, D. P. Tew, A. J. Thorvaldsen, L. Thoegersen,
       O. Vahtras, M. A. Watson, D. J. D. Wilson, M. Ziolkowski
       and H. Agren,
       "The Dalton quantum chemistry program system",
       WIREs Comput. Mol. Sci. 2014, 4:269–284 (doi: 10.1002/wcms.1172)
     
    and
     
       Dalton, a Molecular Electronic Structure Program,
       Release Dalton2017.alpha (2016), see http://daltonprogram.org
   ----------------------------------------------------------------------------

    Authors in alphabetical order (major contribution(s) in parenthesis):

  Kestutis Aidas,           Vilnius University,           Lithuania   (QM/MM)
  Celestino Angeli,         University of Ferrara,        Italy       (NEVPT2)
  Keld L. Bak,              UNI-C,                        Denmark     (AOSOPPA, non-adiabatic coupling, magnetic properties)
  Vebjoern Bakken,          University of Oslo,           Norway      (DALTON; geometry optimizer, symmetry detection)
  Radovan Bast,             UiT The Arctic U. of Norway,  Norway      (DALTON installation and execution frameworks)
  Pablo Baudin,             University of Valencia,       Spain       (Cholesky excitation energies)
  Linus Boman,              NTNU,                         Norway      (Cholesky decomposition and subsystems)
  Ove Christiansen,         Aarhus University,            Denmark     (CC module)
  Renzo Cimiraglia,         University of Ferrara,        Italy       (NEVPT2)
  Sonia Coriani,            University of Trieste,        Italy       (CC module, MCD in RESPONS)
  Janusz Cukras,            University of Trieste,        Italy       (MChD in RESPONS)
  Paal Dahle,               University of Oslo,           Norway      (Parallelization)
  Erik K. Dalskov,          UNI-C,                        Denmark     (SOPPA)
  Thomas Enevoldsen,        Univ. of Southern Denmark,    Denmark     (SOPPA)
  Janus J. Eriksen,         Aarhus University,            Denmark     (Polarizable embedding model, TDA)
  Rasmus Faber,             University of Copenhagen,     Denmark     (Vib.avg. NMR with SOPPA, parallel AO-SOPPA)
  Berta Fernandez,          U. of Santiago de Compostela, Spain       (doublet spin, ESR in RESPONS)
  Lara Ferrighi,            Aarhus University,            Denmark     (PCM Cubic response)
  Heike Fliegl,             University of Oslo,           Norway      (CCSD(R12))
  Luca Frediani,            UiT The Arctic U. of Norway,  Norway      (PCM)
  Bin Gao,                  UiT The Arctic U. of Norway,  Norway      (Gen1Int library)
  Christof Haettig,         Ruhr-University Bochum,       Germany     (CC module)
  Kasper Hald,              Aarhus University,            Denmark     (CC module)
  Asger Halkier,            Aarhus University,            Denmark     (CC module)
  Frederik Beyer Hansen,    University of Copenhagen,     Denmark     (Parallel AO-SOPPA)
  Erik D. Hedegaard,        Univ. of Southern Denmark,    Denmark     (Polarizable embedding model, QM/MM)
  Hanne Heiberg,            University of Oslo,           Norway      (geometry analysis, selected one-electron integrals)
  Trygve Helgaker,          University of Oslo,           Norway      (DALTON; ABACUS, ERI, DFT modules, London, and much more)
  Alf Christian Hennum,     University of Oslo,           Norway      (Parity violation)
  Hinne Hettema,            University of Auckland,       New Zealand (quadratic response in RESPONS; SIRIUS supersymmetry)
  Eirik Hjertenaes,         NTNU,                         Norway      (Cholesky decomposition)
  Pi A. B. Haase,           University of Copenhagen,     Denmark     (Triplet AO-SOPPA)
  Maria Francesca Iozzi,    University of Oslo,           Norway      (RPA)
  Brano Jansik              Technical Univ. of Ostrava    Czech Rep.  (DFT cubic response)
  Hans Joergen Aa. Jensen,  Univ. of Southern Denmark,    Denmark     (DALTON; SIRIUS, RESPONS, ABACUS modules, London, and much more)
  Dan Jonsson,              UiT The Arctic U. of Norway,  Norway      (cubic response in RESPONS module)
  Poul Joergensen,          Aarhus University,            Denmark     (RESPONS, ABACUS, and CC modules)
  Maciej Kaminski,          University of Warsaw,         Poland      (CPPh in RESPONS)
  Joanna Kauczor,           Linkoeping University,        Sweden      (Complex polarization propagator (CPP) module)
  Sheela Kirpekar,          Univ. of Southern Denmark,    Denmark     (Mass-velocity & Darwin integrals)
  Wim Klopper,              KIT Karlsruhe,                Germany     (R12 code in CC, SIRIUS, and ABACUS modules)
  Stefan Knecht,            ETH Zurich,                   Switzerland (Parallel CI and MCSCF)
  Rika Kobayashi,           Australian National Univ.,    Australia   (DIIS in CC, London in MCSCF)
  Henrik Koch,              NTNU,                         Norway      (CC module, Cholesky decomposition)
  Jacob Kongsted,           Univ. of Southern Denmark,    Denmark     (Polarizable embedding model, QM/MM)
  Andrea Ligabue,           University of Modena,         Italy       (CTOCD, AOSOPPA)
  Nanna H. List             Univ. of Southern Denmark,    Denmark     (Polarizable embedding model)
  Ola B. Lutnaes,           University of Oslo,           Norway      (DFT Hessian)
  Juan I. Melo,             University of Buenos Aires,   Argentina   (LRESC, Relativistic Effects on NMR Shieldings)
  Kurt V. Mikkelsen,        University of Copenhagen,     Denmark     (MC-SCRF and QM/MM)
  Rolf H. Myhre,            NTNU,                         Norway      (Cholesky, subsystems and ECC2)
  Christian Neiss,          Univ. Erlangen-Nuernberg,     Germany     (CCSD(R12))
  Christian B. Nielsen,     University of Copenhagen,     Denmark     (QM/MM)
  Patrick Norman,           Linkoeping University,        Sweden      (Cubic response and complex frequency response in RESPONS)
  Jeppe Olsen,              Aarhus University,            Denmark     (SIRIUS CI/density modules)
  Jogvan Magnus H. Olsen,   Univ. of Southern Denmark,    Denmark     (Polarizable embedding model, QM/MM)
  Anders Osted,             Copenhagen University,        Denmark     (QM/MM)
  Martin J. Packer,         University of Sheffield,      UK          (SOPPA)
  Filip Pawlowski,          Kazimierz Wielki University,  Poland      (CC3)
  Morten N. Pedersen,       Univ. of Southern Denmark,    Denmark     (Polarizable embedding model)
  Thomas B. Pedersen,       University of Oslo,           Norway      (Cholesky decomposition)
  Patricio F. Provasi,      University of Northeastern,   Argentina   (Analysis of coupling constants in localized orbitals)
  Zilvinas Rinkevicius,     KTH Stockholm,                Sweden      (open-shell DFT, ESR)
  Elias Rudberg,            KTH Stockholm,                Sweden      (DFT grid and basis info)
  Torgeir A. Ruden,         University of Oslo,           Norway      (Numerical derivatives in ABACUS)
  Kenneth Ruud,             UiT The Arctic U. of Norway,  Norway      (DALTON; ABACUS magnetic properties and much more)
  Pawel Salek,              KTH Stockholm,                Sweden      (DALTON; DFT code)
  Claire C. M. Samson       University of Karlsruhe       Germany     (Boys localization, r12 integrals in ERI)
  Alfredo Sanchez de Meras, University of Valencia,       Spain       (CC module, Cholesky decomposition)
  Trond Saue,               Paul Sabatier University,     France      (direct Fock matrix construction)
  Stephan P. A. Sauer,      University of Copenhagen,     Denmark     (SOPPA(CCSD), SOPPA prop., AOSOPPA, vibrational g-factors)
  Bernd Schimmelpfennig,    Forschungszentrum Karlsruhe,  Germany     (AMFI module)
  Kristian Sneskov,         Aarhus University,            Denmark     (Polarizable embedding model, QM/MM)
  Arnfinn H. Steindal,      UiT The Arctic U. of Norway,  Norway      (parallel QM/MM, Polarizable embedding model)
  Casper Steinmann,         Univ. of Southern Denmark,    Denmark     (QFIT, Polarizable embedding model)
  K. O. Sylvester-Hvid,     University of Copenhagen,     Denmark     (MC-SCRF)
  Peter R. Taylor,          VLSCI/Univ. of Melbourne,     Australia   (Symmetry handling ABACUS, integral transformation)
  Andrew M. Teale,          University of Nottingham,     England     (DFT-AC, DFT-D)
  David P. Tew,             University of Bristol,        England     (CCSD(R12))
  Olav Vahtras,             KTH Stockholm,                Sweden      (triplet response, spin-orbit, ESR, TDDFT, open-shell DFT)
  David J. Wilson,          La Trobe University,          Australia   (DFT Hessian and DFT magnetizabilities)
  Hans Agren,               KTH Stockholm,                Sweden      (SIRIUS module, RESPONS, MC-SCRF solvation model)
 --------------------------------------------------------------------------------

     Date and time (Linux)  : Mon Dec 31 03:11:13 2018
     Host name              : n-62-24-3                               

 * Work memory size             :  1280000000 =  9.537 gigabytes.

 * Directories for basis set searches:
   1) /zhome/37/3/129401/NH3NH4/CCSD/AIMD_SAMPLING/nh3_4h2o_nd
   2) /zhome/9a/4/124800/source/dalton/build-mlcc/basis


Compilation information
-----------------------

 Who compiled             | rfaber
 Host                     | hpclogin1
 System                   | Linux-2.6.32-696.1.1.el6.x86_64
 CMake generator          | Unix Makefiles
 Processor                | x86_64
 64-bit integers          | ON
 MPI                      | OFF
 Fortran compiler         | /opt/intel/2016update2/compilers_and_libraries_201
                          | 6.2.181/linux/bin/intel64/ifort
 Fortran compiler version | ifort (IFORT) 16.0.2 20160204
 C compiler               | /opt/intel/2016update2/compilers_and_libraries_201
                          | 6.2.181/linux/bin/intel64/icc
 C compiler version       | icc (ICC) 16.0.2 20160204
 C++ compiler             | /opt/intel/2016update2/compilers_and_libraries_201
                          | 6.2.181/linux/bin/intel64/icpc
 C++ compiler version     | icpc (ICC) 16.0.2 20160204
 Static linking           | OFF
 Last Git revision        | bb4d1599ca5680a9f3980451fc8bbefdba436d59
 Git branch               | mlcc
 Configuration time       | 2017-06-13 16:11:03.928841


   Content of the .dal input file
 ----------------------------------

**DALTON
.RUN WAVE FUNCTIONS
*QMMM
.QMMM
**INTEGRALS
.DIPLEN
**WAVE FUNCTIONS
.CC
*PRINT
!To check the origin of excit
.PRINTL
   0 11
*SCF INP
.THRESH
1.0D-7
*CC INP
.CCSD
.THRLEQ
 1.0D-9
.THRENR
 1.0D-10
.FROIMP
4
0
.PRINT
 1
.MAX IT
 1200
.MAXRED
 1200
.MXLRV
1199
*CCSLV
.CCMM
.MXSLIT
200
.MXINIT
4 5
*CCEXCI
.NCCEXC
 15
.CVSEPARA
1
1
*CCLRSD
.DIPOLE
**END OF DALTON INPUT


   Content of the .mol file
 ----------------------------

ATOMBASIS


Atomtypes=4 Charge=0 Nosymm Angstrom
   7.00000    1    Basis=6-311G**
N          0.000000        0.000000        0.000000
   1.00000    3    Basis=6-311G**
H         -0.848036        0.361101        0.485607
H         -0.422069       -0.712777       -0.590482
H          0.565657       -0.457734        0.693539
   8.00000    4    Basis=6-311G**
O         -0.599922       -2.432413       -1.947957
O          1.575627       -0.955322        3.225384
O          1.996853        0.999964       -1.506367
O         -1.940108        2.957494        0.698810
   1.00000    8    Basis=6-311G**
H         -1.494956       -2.780727       -2.088323
H          0.068639       -3.146922       -2.163772
H          2.173818       -1.102486        4.015475
H          2.041607       -0.216241        2.651672
H          2.538172        1.815868       -1.311103
H          1.318314        0.896644       -0.795657
H         -1.917463        2.317654        1.486002
H         -2.822576        3.348083        0.706763


       *******************************************************************
       *********** Output from DALTON general input processing ***********
       *******************************************************************

 --------------------------------------------------------------------------------
   Overall default print level:    0
   Print level for DALTON.STAT:    1

    HERMIT 1- and 2-electron integral sections will be executed
    "Old" integral transformation used (limited to max 255 basis functions)
    Wave function sections will be executed (SIRIUS module)
 --------------------------------------------------------------------------------


 Changes of defaults for *QMMM  :
 --------------------------------

 +------------------+
 |  WORD: | CHANGE: |
 +------------------+
 |   QMMM |       T |
 +------------------+
 


   ****************************************************************************
   *************** Output of molecule and basis set information ***************
   ****************************************************************************


    The two title cards from your ".mol" input:
    ------------------------------------------------------------------------
 1:                                                                         
 2:                                                                         
    ------------------------------------------------------------------------

  Coordinates are entered in Angstrom and converted to atomic units.
          - Conversion factor : 1 bohr = 0.52917721 A

  Atomic type no.    1
  --------------------
  Nuclear charge:   7.00000
  Number of symmetry independent centers:    1
  Number of basis sets to read;    2
  The basis set is "6-311G**" from the basis set library.
  Basis set file used for this atomic type with Z =   7 :
     "/zhome/9a/4/124800/source/dalton/build-mlcc/basis/6-311G**"

  Info about the basis set file: your basis has no documentation.
  Basis set: 6-311G**                                                                        

  Atomic type no.    2
  --------------------
  Nuclear charge:   1.00000
  Number of symmetry independent centers:    3
  Number of basis sets to read;    2
  The basis set is "6-311G**" from the basis set library.
  Basis set file used for this atomic type with Z =   1 :
     "/zhome/9a/4/124800/source/dalton/build-mlcc/basis/6-311G**"

  Info about the basis set file: your basis has no documentation.
  Basis set: 6-311G**                                                                        

  Atomic type no.    3
  --------------------
  Nuclear charge:   8.00000
  Number of symmetry independent centers:    4
  Number of basis sets to read;    2
  The basis set is "6-311G**" from the basis set library.
  Basis set file used for this atomic type with Z =   8 :
     "/zhome/9a/4/124800/source/dalton/build-mlcc/basis/6-311G**"

  Info about the basis set file: your basis has no documentation.
  Basis set: 6-311G**                                                                        

  Atomic type no.    4
  --------------------
  Nuclear charge:   1.00000
  Number of symmetry independent centers:    8
  Number of basis sets to read;    2
  The basis set is "6-311G**" from the basis set library.
  Basis set file used for this atomic type with Z =   1 :
     "/zhome/9a/4/124800/source/dalton/build-mlcc/basis/6-311G**"

  Info about the basis set file: your basis has no documentation.
  Basis set: 6-311G**                                                                        


                         SYMGRP: Point group information
                         -------------------------------

@    Point group: C1 


                                 Isotopic Masses
                                 ---------------

                           N          14.003074
                           H           1.007825
                           H           1.007825
                           H           1.007825
                           O          15.994915
                           O          15.994915
                           O          15.994915
                           O          15.994915
                           H           1.007825
                           H           1.007825
                           H           1.007825
                           H           1.007825
                           H           1.007825
                           H           1.007825
                           H           1.007825
                           H           1.007825

                       Total mass:    89.068809 amu
                       Natural abundance:  98.514 %

 Center-of-mass coordinates (a.u.):    0.376050    0.200234    0.225519


  Atoms and basis sets
  --------------------

  Number of atom types :    4
  Total number of atoms:   16

  label    atoms   charge   prim   cont     basis
  ----------------------------------------------------------------------
  N           1    7.0000    31    18      [11s5p1d|4s3p1d]                                   
  H           3    1.0000     8     6      [5s1p|3s1p]                                        
  O           4    8.0000    31    18      [11s5p1d|4s3p1d]                                   
  H           8    1.0000     8     6      [5s1p|3s1p]                                        
  ----------------------------------------------------------------------
  total:     16   50.0000   243   156
  ----------------------------------------------------------------------
  Spherical harmonic basis used.

  Threshold for neglecting AO integrals:  1.00D-12


  Cartesian Coordinates (a.u.)
  ----------------------------

  Total number of coordinates:   48
  N       :     1  x   0.0000000000    2  y   0.0000000000    3  z   0.0000000000
  H       :     4  x  -1.6025557841    5  y   0.6823819935    6  z   0.9176642344
  H       :     7  x  -0.7975948158    8  y  -1.3469533182    9  z  -1.1158492617
  H       :    10  x   1.0689368107   11  y  -0.8649918981   12  z   1.3105987670
  O       :    13  x  -1.1336882764   14  y  -4.5965943929   15  z  -3.6811052333
  O       :    16  x   2.9775035051   17  y  -1.8052969412   18  z   6.0950924079
  O       :    19  x   3.7735052819   20  y   1.8896580949   21  z  -2.8466210737
  O       :    22  x  -3.6662727729   23  y   5.5888536763   24  z   1.3205595134
  H       :    25  x  -2.8250574089   26  y  -5.2548124584   27  z  -3.9463585305
  H       :    28  x   0.1297089115   29  y  -5.9468207167   30  z  -4.0889364769
  H       :    31  x   4.1079206656   32  y  -2.0833965966   33  z   7.5881480118
  H       :    34  x   3.8580780849   35  y  -0.4086362670   36  z   5.0109338533
  H       :    37  x   4.7964499381   38  y   3.4314931991   39  z  -2.4776255917
  H       :    40  x   2.4912524067   41  y   1.6944115916   42  z  -1.5035738194
  H       :    43  x  -3.6234799248   44  y   4.3797313125   45  z   2.8081368012
  H       :    46  x  -5.3338956070   47  y   6.3269599137   48  z   1.3355885053


   Interatomic separations (in Angstrom):
   --------------------------------------

            N           H           H           H           O           O     
            ------      ------      ------      ------      ------      ------
 N     :    0.000000
 H     :    1.041812    0.000000
 H     :    1.017282    1.578806    0.000000
 H     :    1.005229    1.646892    1.639927    0.000000
 O     :    3.173496    3.713154    2.198071    3.497918    0.000000
 O     :    3.714612    3.887607    4.313983    2.770897    5.803298    0.000000
 O     :    2.693788    3.531218    3.102178    3.002131    4.326598    5.137124
 O     :    3.605430    2.824771    4.175836    4.235879    6.152444    5.835589
 H     :    3.785291    4.112749    2.769663    4.169074    0.970624    6.402817
 H     :    3.819652    4.490627    2.939574    3.955121    1.002034    6.009753
 H     :    4.697340    4.871720    5.301447    3.746618    6.710057    1.001865
 H     :    3.353548    3.657212    4.102171    2.463946    5.748537    1.045239
 H     :    3.385068    4.100112    3.959339    3.616445    5.319879    5.402379
 H     :    1.781851    2.573231    2.379341    2.149078    4.011240    4.434496
 H     :    3.355054    2.443883    3.966296    3.807448    6.007589    5.093083
 H     :    4.435776    3.587448    4.892429    5.095541    6.738090    6.648830

            O           O           H           H           H           H     
            ------      ------      ------      ------      ------      ------
 O     :    0.000000
 O     :    4.918779    0.000000
 H     :    5.179288    6.394799    0.000000
 H     :    4.620266    7.035150    1.607676    0.000000
 H     :    5.911206    6.663940    7.316608    6.840657    0.000000
 H     :    4.332487    5.453468    6.446039    5.972436    1.631830    0.000000
 H     :    0.998426    5.039648    6.164323    5.608469    6.084569    4.481030
 H     :    0.988028    4.134954    4.807133    4.447904    5.279716    3.694014
 H     :    5.100240    1.014682    6.240817    6.864914    5.902048    4.842896
 H     :    5.799871    0.965077    6.865668    7.667085    7.464522    6.336194

            H           H           H           H     
            ------      ------      ------      ------
 H     :    0.000000
 H     :    1.612052    0.000000
 H     :    5.284720    4.206601    0.000000
 H     :    5.929341    5.041209    1.577411    0.000000


  Max    interatomic separation is    7.6671 Angstrom (   14.4887 Bohr)
  between atoms   16 and   10, "H     " and "H     ".

  Min HX interatomic separation is    0.9651 Angstrom (    1.8237 Bohr)

  Min YX interatomic separation is    2.6938 Angstrom (    5.0905 Bohr)


  Bond distances (Angstrom):
  --------------------------

                  atom 1     atom 2       distance
                  ------     ------       --------
  bond distance:  H          N            1.041812
  bond distance:  H          N            1.017282
  bond distance:  H          N            1.005229
  bond distance:  H          O            0.970624
  bond distance:  H          O            1.002034
  bond distance:  H          O            1.001865
  bond distance:  H          O            1.045239
  bond distance:  H          O            0.998426
  bond distance:  H          O            0.988028
  bond distance:  H          O            1.014682
  bond distance:  H          O            0.965077


  Bond angles (degrees):
  ----------------------

                  atom 1     atom 2     atom 3         angle
                  ------     ------     ------         -----
  bond angle:     H          N          H            100.119
  bond angle:     H          N          H            107.115
  bond angle:     H          N          H            108.354
  bond angle:     H          O          H            109.160
  bond angle:     H          O          H            105.696
  bond angle:     H          O          H            108.489
  bond angle:     H          O          H            105.618




 Principal moments of inertia (u*A**2) and principal axes
 --------------------------------------------------------

   IA     455.005497         -0.216122    0.789315    0.574694
   IB     503.288267          0.509280   -0.411055    0.756087
   IC     665.256018          0.833022    0.456087   -0.313144


 Rotational constants
 --------------------

               A                   B                   C

           1110.7097           1004.1542            759.6760 MHz
            0.037049            0.033495            0.025340 cm-1


@  Nuclear repulsion energy :  170.980460265800 Hartree


                     .---------------------------------------.
                     | Starting in Integral Section (HERMIT) |
                     `---------------------------------------'



 ***************************************************************************************
 ****************** Output from **INTEGRALS input processing (HERMIT) ******************
 ***************************************************************************************



    *************************************************************************
    ****************** Output from HERMIT input processing ******************
    *************************************************************************


 Default print level:        1

 * Nuclear model: Point charge

 Calculation of one- and two-electron Hamiltonian integrals.

 The following one-electron property integrals are calculated as requested:
          - overlap integrals
          - dipole length integrals

 Center of mass  (bohr):      0.376050463420      0.200233815062      0.225519005821
 Operator center (bohr):      0.000000000000      0.000000000000      0.000000000000
 Gauge origin    (bohr):      0.000000000000      0.000000000000      0.000000000000
 Dipole origin   (bohr):      0.000000000000      0.000000000000      0.000000000000
 
  *********************************** 
  QMMM electrostatic potential: 
  Multipole order                                    0
  Isotropic polarization  
  *********************************** 
 
  ---------------- 
  QMMM information 
  ---------------- 
 
  MM coordinates in au 
  -------------------- 
     1    -10.143065      2.885206     11.495060
     2    -11.526292      2.131868     10.646726
     3    -11.170464      4.141569     12.492734
     4     -6.323774     11.561739      5.124737
     5     -4.530061     11.102222      5.724054
     6     -6.322391     13.260790      4.580938
     7     -3.621700      0.481111    -11.092874
     8     -3.557436     -0.217800    -12.696543
     9     -2.467459     -0.543793     -9.942301
    10     -7.275967      5.647254      8.352586
    11     -8.437332      4.702391      9.521595
    12     -7.821442      7.486549      8.845387
    13     -4.045603     -6.466911      5.300266
    14     -2.937201     -7.342217      3.940489
    15     -3.485180     -4.659760      5.437570
    16      9.393041      0.735277      0.107726
    17     10.320087      2.044852     -0.783377
    18      9.747670     -0.805316     -0.874835
    19     -9.099181      3.969973     -5.733832
    20     -7.377784      3.771680     -4.920138
    21     -9.639378      2.213686     -6.148708
    22      3.457573    -10.860033    -11.340056
    23      3.148803     -9.084613    -10.739918
    24      3.494209    -10.755662    -13.149296
    25    -11.566929    -10.718984     -9.594737
    26    -12.132677     -9.160572    -10.408664
    27    -13.220473    -11.420452     -9.104489
    28     -0.025286     -1.252480     -7.911263
    29      0.043980      0.551647     -7.249505
    30     -0.289602     -2.354907     -6.394047
    31      6.801935     -7.584682     -0.296445
    32      8.612894     -8.018962     -0.316743
    33      6.204126     -9.116965     -1.246751
    34      0.311157      3.876544     -5.808614
    35      0.894375      5.443991     -6.713392
    36      1.720573      3.441152     -4.697810
    37     -8.239860      0.110615      1.622147
    38     -8.249059      0.739697     -0.046945
    39     -8.695408      1.542162      2.766682
    40     -7.848719      8.567950      0.938506
    41     -6.937585      9.558785      2.186447
    42     -7.377731      9.032520     -0.832628
    43      9.312833      2.699988      7.183682
    44      9.163112      4.472260      7.754215
    45      7.871923      2.567166      6.029407
    46      9.571965     -3.513798     -3.019008
    47      7.928747     -3.945680     -3.804852
    48      9.978138     -5.029763     -2.035991
    49     -4.238992    -11.577282     11.141177
    50     -3.211450    -12.608995      9.951999
    51     -5.474898    -12.668046     11.868784
    52    -10.288950      4.326080      3.973631
    53     -9.387145      4.993514      5.460161
    54    -11.366347      2.998663      4.759423
    55     -2.014089     -8.840889     -7.772447
    56     -3.582651     -7.769943     -7.425660
    57     -2.530538    -10.091835     -9.058209
    58      3.367430    -10.641097      6.479060
    59      4.728781    -11.931198      5.995455
    60      3.708463     -9.150411      5.337800
    61     10.183521     -7.025505      6.390642
    62     11.674017     -6.485680      5.353059
    63     10.015051     -8.605654      5.407151
    64      5.525780      5.078582    -11.691152
    65      4.470232      6.075942    -10.412257
    66      6.568682      3.877780    -10.517341
    67     -9.902717     10.102884      9.429123
    68     -9.085361     11.020594      7.975052
    69     -9.819867     11.204780     10.971140
    70      7.401938      9.715600      4.773250
    71      8.886705     10.574958      3.996967
    72      8.003604      8.990357      6.332085
    73     -0.620735      9.987180     -4.663411
    74     -0.086973      9.046612     -6.201185
    75      0.021715      9.279591     -3.095644
    76      5.419500     -1.918544     -5.799144
    77      3.616050     -1.985063     -6.347940
    78      5.143967     -0.759672     -4.217935
    79     -8.428649     -5.682875      3.152177
    80     -6.820515     -5.903017      3.968121
    81     -8.794430     -3.919402      3.001221
    82      8.609930      7.641300      8.869666
    83      7.301314      7.218601     10.207452
    84     10.256477      7.969565      9.698462
    85      5.225214      1.775392      3.318391
    86      4.854691      3.548431      2.994413
    87      6.575725      1.453487      2.108207
    88      7.919666      1.633562     -8.387376
    89      9.547091      0.706431     -7.870492
    90      6.684713      0.528243     -7.409779
    91      2.161556     -8.016944     -4.936615
    92      3.215067     -7.206227     -6.283702
    93      0.933895     -9.066845     -5.889237
    94     11.328526      6.610634     -8.882752
    95     11.961218      6.044278     -7.230595
    96      9.742897      7.430369     -8.691523
    97     10.841877      5.816911     -0.940961
    98     12.176399      5.500528     -2.166280
    99     11.856539      6.010357      0.612010
   100      7.106888     11.036002     -8.201840
   101      5.702753     11.783351     -9.258876
   102      6.972670     11.537787     -6.372663
   103     -0.729523     -8.951262      1.330252
   104      0.766076     -7.850920      1.953797
   105     -1.660992     -7.936368      0.085703
   106      3.372980     -6.188282     -9.932368
   107      4.822638     -5.008948    -10.380458
   108      1.665597     -5.290666     -9.932113
   109    -11.312639     -7.652293     -0.607211
   110     -9.939566     -6.700814      0.101813
   111    -10.541395     -8.300478     -2.169510
   112     -3.155032      3.306849      6.064018
   113     -4.480378      4.250982      6.954188
   114     -1.549284      4.063550      6.670769
   115      0.866090      8.579100     -9.194973
   116      1.528395     10.262005     -9.711837
   117     -0.460659      7.985847    -10.317016
   118     -5.816414      9.649930     -3.759196
   119     -6.063062      9.075674     -5.514933
   120     -3.902186      9.877918     -4.094934
   121      5.531960    -11.634779     -3.183780
   122      5.341970    -13.437045     -2.718373
   123      3.880526    -10.959011     -3.758025
   124     -4.788326      3.958617     -3.414892
   125     -4.502488      4.224808     -1.603147
   126     -3.117334      3.983677     -4.159399
   127      4.079554      7.050449      2.330252
   128      2.683094      8.266773      1.798647
   129      5.523055      8.199593      3.026096
   130      6.819372     -2.787231     11.722425
   131      8.588465     -3.358329     11.527397
   132      6.908589     -1.093522     12.623956
   133    -11.412313    -11.247249      3.174918
   134    -10.332253    -12.650065      2.589427
   135    -11.551274     -9.967381      1.878269
   136      1.869413      6.278757      7.261377
   137      2.929435      6.207401      5.722329
   138      2.856693      5.476434      8.661701
   139    -11.597395     -1.109602     -7.149575
   140    -12.284010     -1.946630     -5.659433
   141    -10.870988     -2.495888     -8.170369
   142     -2.404019     -1.735538      6.755127
   143     -2.718978      0.039586      6.336649
   144     -0.640634     -1.443583      6.161864
   145      5.995283      6.579165     -2.457188
   146      5.300897      6.729893     -0.730005
   147      7.893341      6.654198     -2.067608
   148     -6.660060      8.495058     -8.664831
   149     -5.837111      6.759628     -8.871117
   150     -8.514989      7.975243     -8.786259
   151      0.265159      9.539011      0.569208
   152     -1.115762      8.260722      1.012307
   153     -0.299968     11.317383      0.605754
   154     -6.043146     -6.081233     -5.473728
   155     -6.818844     -4.928479     -6.864190
   156     -7.356985     -7.391121     -5.165183
   157     11.500023     -6.030643     11.130339
   158     13.152679     -5.266413     11.122491
   159     11.073058     -6.467559      9.297883
   160      3.458012     -6.519687      3.521718
   161      3.235050     -4.866109      4.268984
   162      5.044728     -6.828085      2.687251
   163     -1.407727     10.424472      7.045445
   164     -0.697787      8.657591      6.665536
   165      0.082632     11.518841      6.844172
   166     -2.922375      5.280324     11.635904
   167     -3.070612      3.450262     11.814407
   168     -4.363495      6.090226     10.687845
   169     -5.763680     -7.002556     10.112918
   170     -5.229896     -6.912227      8.400672
   171     -5.151987     -8.651858     10.649996
   172     -7.736796     -3.436631     -9.941071
   173     -6.558196     -4.291765    -11.165449
   174     -7.211174     -1.688805     -9.974090
   175     -8.995618     -9.899561     -5.058723
   176     -7.618193    -11.154736     -4.694012
   177     -9.883670    -10.343066     -6.659860
 
  MM charges 
  ---------- 
     1     -0.674440
     2      0.337220
     3      0.337220
     4     -0.674440
     5      0.337220
     6      0.337220
     7     -0.674440
     8      0.337220
     9      0.337220
    10     -0.674440
    11      0.337220
    12      0.337220
    13     -0.674440
    14      0.337220
    15      0.337220
    16     -0.674440
    17      0.337220
    18      0.337220
    19     -0.674440
    20      0.337220
    21      0.337220
    22     -0.674440
    23      0.337220
    24      0.337220
    25     -0.674440
    26      0.337220
    27      0.337220
    28     -0.674440
    29      0.337220
    30      0.337220
    31     -0.674440
    32      0.337220
    33      0.337220
    34     -0.674440
    35      0.337220
    36      0.337220
    37     -0.674440
    38      0.337220
    39      0.337220
    40     -0.674440
    41      0.337220
    42      0.337220
    43     -0.674440
    44      0.337220
    45      0.337220
    46     -0.674440
    47      0.337220
    48      0.337220
    49     -0.674440
    50      0.337220
    51      0.337220
    52     -0.674440
    53      0.337220
    54      0.337220
    55     -0.674440
    56      0.337220
    57      0.337220
    58     -0.674440
    59      0.337220
    60      0.337220
    61     -0.674440
    62      0.337220
    63      0.337220
    64     -0.674440
    65      0.337220
    66      0.337220
    67     -0.674440
    68      0.337220
    69      0.337220
    70     -0.674440
    71      0.337220
    72      0.337220
    73     -0.674440
    74      0.337220
    75      0.337220
    76     -0.674440
    77      0.337220
    78      0.337220
    79     -0.674440
    80      0.337220
    81      0.337220
    82     -0.674440
    83      0.337220
    84      0.337220
    85     -0.674440
    86      0.337220
    87      0.337220
    88     -0.674440
    89      0.337220
    90      0.337220
    91     -0.674440
    92      0.337220
    93      0.337220
    94     -0.674440
    95      0.337220
    96      0.337220
    97     -0.674440
    98      0.337220
    99      0.337220
   100     -0.674440
   101      0.337220
   102      0.337220
   103     -0.674440
   104      0.337220
   105      0.337220
   106     -0.674440
   107      0.337220
   108      0.337220
   109     -0.674440
   110      0.337220
   111      0.337220
   112     -0.674440
   113      0.337220
   114      0.337220
   115     -0.674440
   116      0.337220
   117      0.337220
   118     -0.674440
   119      0.337220
   120      0.337220
   121     -0.674440
   122      0.337220
   123      0.337220
   124     -0.674440
   125      0.337220
   126      0.337220
   127     -0.674440
   128      0.337220
   129      0.337220
   130     -0.674440
   131      0.337220
   132      0.337220
   133     -0.674440
   134      0.337220
   135      0.337220
   136     -0.674440
   137      0.337220
   138      0.337220
   139     -0.674440
   140      0.337220
   141      0.337220
   142     -0.674440
   143      0.337220
   144      0.337220
   145     -0.674440
   146      0.337220
   147      0.337220
   148     -0.674440
   149      0.337220
   150      0.337220
   151     -0.674440
   152      0.337220
   153      0.337220
   154     -0.674440
   155      0.337220
   156      0.337220
   157     -0.674440
   158      0.337220
   159      0.337220
   160     -0.674440
   161      0.337220
   162      0.337220
   163     -0.674440
   164      0.337220
   165      0.337220
   166     -0.674440
   167      0.337220
   168      0.337220
   169     -0.674440
   170      0.337220
   171      0.337220
   172     -0.674440
   173      0.337220
   174      0.337220
   175     -0.674440
   176      0.337220
   177      0.337220
 
  MM isotropic polarizabilities in au 
  ----------------------------------- 
     1      5.739350
     2      2.308390
     3      2.308390
     4      5.739350
     5      2.308390
     6      2.308390
     7      5.739350
     8      2.308390
     9      2.308390
    10      5.739350
    11      2.308390
    12      2.308390
    13      5.739350
    14      2.308390
    15      2.308390
    16      5.739350
    17      2.308390
    18      2.308390
    19      5.739350
    20      2.308390
    21      2.308390
    22      5.739350
    23      2.308390
    24      2.308390
    25      5.739350
    26      2.308390
    27      2.308390
    28      5.739350
    29      2.308390
    30      2.308390
    31      5.739350
    32      2.308390
    33      2.308390
    34      5.739350
    35      2.308390
    36      2.308390
    37      5.739350
    38      2.308390
    39      2.308390
    40      5.739350
    41      2.308390
    42      2.308390
    43      5.739350
    44      2.308390
    45      2.308390
    46      5.739350
    47      2.308390
    48      2.308390
    49      5.739350
    50      2.308390
    51      2.308390
    52      5.739350
    53      2.308390
    54      2.308390
    55      5.739350
    56      2.308390
    57      2.308390
    58      5.739350
    59      2.308390
    60      2.308390
    61      5.739350
    62      2.308390
    63      2.308390
    64      5.739350
    65      2.308390
    66      2.308390
    67      5.739350
    68      2.308390
    69      2.308390
    70      5.739350
    71      2.308390
    72      2.308390
    73      5.739350
    74      2.308390
    75      2.308390
    76      5.739350
    77      2.308390
    78      2.308390
    79      5.739350
    80      2.308390
    81      2.308390
    82      5.739350
    83      2.308390
    84      2.308390
    85      5.739350
    86      2.308390
    87      2.308390
    88      5.739350
    89      2.308390
    90      2.308390
    91      5.739350
    92      2.308390
    93      2.308390
    94      5.739350
    95      2.308390
    96      2.308390
    97      5.739350
    98      2.308390
    99      2.308390
   100      5.739350
   101      2.308390
   102      2.308390
   103      5.739350
   104      2.308390
   105      2.308390
   106      5.739350
   107      2.308390
   108      2.308390
   109      5.739350
   110      2.308390
   111      2.308390
   112      5.739350
   113      2.308390
   114      2.308390
   115      5.739350
   116      2.308390
   117      2.308390
   118      5.739350
   119      2.308390
   120      2.308390
   121      5.739350
   122      2.308390
   123      2.308390
   124      5.739350
   125      2.308390
   126      2.308390
   127      5.739350
   128      2.308390
   129      2.308390
   130      5.739350
   131      2.308390
   132      2.308390
   133      5.739350
   134      2.308390
   135      2.308390
   136      5.739350
   137      2.308390
   138      2.308390
   139      5.739350
   140      2.308390
   141      2.308390
   142      5.739350
   143      2.308390
   144      2.308390
   145      5.739350
   146      2.308390
   147      2.308390
   148      5.739350
   149      2.308390
   150      2.308390
   151      5.739350
   152      2.308390
   153      2.308390
   154      5.739350
   155      2.308390
   156      2.308390
   157      5.739350
   158      2.308390
   159      2.308390
   160      5.739350
   161      2.308390
   162      2.308390
   163      5.739350
   164      2.308390
   165      2.308390
   166      5.739350
   167      2.308390
   168      2.308390
   169      5.739350
   170      2.308390
   171      2.308390
   172      5.739350
   173      2.308390
   174      2.308390
   175      5.739350
   176      2.308390
   177      2.308390


     ************************************************************************
     ************************** Output from HERINT **************************
     ************************************************************************



                      Nuclear contribution to dipole moments
                      --------------------------------------

                 au               Debye          C m (/(10**-30)

      x     17.87814518        45.44170950       151.57722713
      y      9.22233025        23.44082387        78.19017204
      z     12.94213141        32.89561472       109.72795960


  Time used in HUCKEL     is       1.48 seconds
  Time used in OVERLAP    is       0.13 seconds
  Time used in POPOVLP    is       0.23 seconds
  Time used in DIPLEN     is       0.20 seconds
  Time used in QUADRUP    is       0.44 seconds
  Time used in KINENE     is       0.26 seconds

 Threshold for neglecting two-electron integrals:  1.00D-12
 HERMIT - Number of two-electron integrals written:    23111391 ( 30.8% )
 HERMIT - Megabytes written:                            264.636

  Time used in TWOINT     is      13.27 seconds
  Total CPU  time used in HERMIT:  16.08 seconds
  Total wall time used in HERMIT:   5.75 seconds


                        .----------------------------------.
                        | End of Integral Section (HERMIT) |
                        `----------------------------------'



                   .--------------------------------------------.
                   | Starting in Wave Function Section (SIRIUS) |
                   `--------------------------------------------'

NCCEXCI for singlet:   15
 CCSD_INPUT: core-val requested
 Requested number of core orbs per sym
                     1
 Indices of requested core orbs
                     1

 *** Output from Huckel module :

     Using EWMO model:          T
     Using EHT  model:          F
     Number of Huckel orbitals each symmetry:   36

 EWMO - Energy Weighted Maximum Overlap - is a Huckel type method,
        which normally is better than Extended Huckel Theory.
 Reference: Linderberg and Ohrn, Propagators in Quantum Chemistry (Wiley, 1973)

 Huckel EWMO eigenvalues for symmetry :  1
          -20.684555     -20.684495     -20.684437     -20.684039     -15.673881
           -1.688565      -1.593470      -1.590847      -1.569249      -1.473614
           -0.817705      -0.797541      -0.787581      -0.784878      -0.737991
           -0.697273      -0.691788      -0.688791      -0.681286      -0.639777
           -0.616473      -0.615952      -0.611152      -0.607532      -0.517830
           -0.258630      -0.248406      -0.243476      -0.230289      -0.188637
           -0.182214      -0.176632      -0.175980      -0.155232      -0.152638
           -0.142964

 **********************************************************************
 *SIRIUS* a direct, restricted step, second order MCSCF program       *
 **********************************************************************

 
     Date and time (Linux)  : Mon Dec 31 03:11:19 2018
     Host name              : n-62-24-3                               

 Title lines from ".mol" input file:
                                                                             
                                                                             

 Print level on unit LUPRI =   2 is   0
 Print level on unit LUW4  =   2 is  11

@    (Integral direct) CC calculation.

@    This is a combination run starting with
@              a restricted, closed shell Hartree-Fock calculation


 Initial molecular orbitals are obtained according to
 ".MOSTART EWMO  " input option

@    QM part is embedded in an environment :

@         Model: QMMM

     Wave function specification
     ============================

     For the specification of the Coupled Cluster: see later.

@    Wave function type        --- CC ---
@    Number of closed shell electrons          50
@    Number of electrons in active shells       0
@    Total charge of the molecule               0

@    Spin multiplicity and 2 M_S                1         0
@    Total number of symmetries                 1 (point group: C1 )
@    Reference state symmetry                   1 (irrep name : A  )

     Orbital specifications
     ======================
@    Abelian symmetry species          All |    1
@                                          |  A  
                                       --- |  ---
@    Occupied SCF orbitals              25 |   25
@    Secondary orbitals                131 |  131
@    Total number of orbitals          156 |  156
@    Number of basis functions         156 |  156

     Optimization information
     ========================
@    Number of configurations                 1
@    Number of orbital rotations           3275
     ------------------------------------------
@    Total number of variables             3276

     Maximum number of Fock   iterations      0
     Maximum number of DIIS   iterations     60
     Maximum number of QC-SCF iterations     60
     Threshold for SCF convergence     1.00D-07


 Changes of defaults for CC:
 ---------------------------


 -Implicit frozen core calculation
 -Excitation energies calculated
 -One-photon absorption strengths will be calculated
 -Oscillator strengths calculated
  
* Read MO coefficients from SIRIUS.RST with label "NEWORB  " and header info: 31Dec18  REORTHO 


 ***********************************************
 ***** DIIS acceleration of SCF iterations *****
 ***********************************************

 C1-DIIS algorithm; max error vectors =    8
 -----------------------------------------------------------------------------

 *** DIIS iteration number    1
 RDSUPM called. NFMAT, ISYMDM(1:NFMAT)                     1
                     1

Calculating AOSUPINT
     (Precalculated two-electron integrals are transformed to P-supermatrix elements.
      Threshold for discarding integrals :  1.00D-12 )
  CPU  time used in FORMSUP    is   6.63 seconds
  WALL time used in FORMSUP    is   8.16 seconds

 ITDIIS, energy, error norm, change in energy, scr.thr., difden:
@ DIIS iter.   1    -359.967474529        3.75728D+00   -3.60D+02  -20    F

 (DIIS_RED) Control Parameters C2DIIS =         F NEVC =    1


 (DIIS_RED) B matrix:

               Column   1
       1      14.11715114
    ==== End of matrix output ====

 DIIS C vector; C2DIIS = F, LAMBDA = -1.41D+01
    1.000000
* Read MO coefficients from SIRIUS.RST with label "NEWORB  " and header info: 31Dec18  DIIS   1
      Virial theorem: -V/T =      1.998651
@      MULPOP N      -0.37; H       0.17; H       0.15; H       0.18; O      -0.60; O      -0.64; O      -0.81; O      -0.66; H       0.32; H       0.31; 
@             H       0.31; H       0.33; H       0.32; H       0.32; H       0.33; H       0.33; 
   1  Level shift: doubly occupied orbital energies shifted by -2.00D-01

 DIIS Fock eigenvalues in symmetry 1
      -20.71681      -20.71592      -20.69254      -20.59737      -15.98178
       -1.53874       -1.53367       -1.50867       -1.50433       -1.44114
       -0.95289       -0.92822       -0.91879       -0.91396       -0.90273
       -0.88782       -0.78963       -0.77764       -0.77288       -0.76611
       -0.75489       -0.74586       -0.73202       -0.73142       -0.71376
        0.10861        0.16009        0.16575        0.18854        0.21858
        0.25056        0.27681        0.28564        0.30090        0.32554
        0.34246        0.42562        0.44411        0.52188        0.56019
        0.56180        0.56637        0.57463        0.58113        0.58397
        0.59806        0.62196        0.82944        0.86378        0.91243
        0.95050        0.95130        0.96200        0.96966        0.98254
        1.01375        1.04369        1.07550        1.08841        1.09954
        1.11205        1.13547        1.20894        1.26840        1.29407
        1.30501        1.33141        1.39538        1.46209        1.46729
        1.47480        1.48290        1.50321        1.51134        1.51557
        1.54807        1.56912        1.67776        1.67893        1.68184
        1.69571        1.71527        1.77154        1.83214        1.84503
        1.86110        1.88101        1.90527        1.96614        2.08032
        2.12637        2.17144        2.20043        2.22248        2.25054
        2.27647        2.31997        2.32846        2.41614        2.47948
        2.56322        2.58008        2.59465        2.60308        2.63961
        2.70431        2.73843        2.77233        2.78282        2.79328
        2.84317        2.84958        2.88455        3.02385        3.32549
        3.33832        3.40351        3.40802        3.41032        3.44607
        3.47190        3.49186        3.50467        3.54045        3.60175
        3.63231        3.63949        3.66267        3.95933        3.96573
        4.00267        4.04811        4.17444        4.17985        4.18900
        4.23499        4.43071        4.94592        5.09086        5.31121
        5.31494        5.32062        5.37729        5.68414        5.68768
        5.73314        5.79263        6.01929        6.08584        6.11787
        6.19127       36.78626       51.54232       51.54656       51.55994
       51.68790
 Time used in FCKEIG, thr_jaco:   4.07D-01  4.10D-02  1.64D-04
 CPU and wall times used in FCKEIG, THR_FCKEIG:   4.07D-01  4.10D-02  3.76D-02
 -----------------------------------------------------------------------------

 *** DIIS iteration number    2
 RDSUPM called. NFMAT, ISYMDM(1:NFMAT)                     1
                     1

 ITDIIS, energy, error norm, change in energy, scr.thr., difden:
@ DIIS iter.   2    -360.748994311        9.18367D-01   -7.82D-01  -20    F

 (DIIS_RED) Control Parameters C2DIIS =         F NEVC =    2


 (DIIS_RED) B matrix:

               Column   1     Column   2
       1      14.11715114
       2       0.98143907     0.84339823
    ==== End of matrix output ====

 DIIS C vector; C2DIIS = F, LAMBDA = -8.42D-01
   -0.010620    1.010620
* Read MO coefficients from SIRIUS.RST with label "NEWORB  " and header info: 31Dec18  DIIS   2
      Virial theorem: -V/T =      2.004209
@      MULPOP N      -0.65; H       0.23; H       0.24; H       0.23; O      -0.60; O      -0.61; O      -0.70; O      -0.64; H       0.31; H       0.32; 
@             H       0.28; H       0.34; H       0.30; H       0.32; H       0.32; H       0.33; 
   2  Level shift: doubly occupied orbital energies shifted by -5.00D-02

 DIIS Fock eigenvalues in symmetry 1
      -20.68397      -20.62320      -20.61359      -20.60541      -15.48298
       -1.40981       -1.37744       -1.37173       -1.35873       -1.15924
       -0.77679       -0.74121       -0.73820       -0.71969       -0.67304
       -0.66274       -0.64507       -0.63264       -0.61847       -0.60823
       -0.60579       -0.57632       -0.56656       -0.56571       -0.47074
        0.15214        0.19034        0.19738        0.20285        0.25464
        0.28185        0.29621        0.31222        0.32901        0.35461
        0.37355        0.47537        0.50749        0.56187        0.59162
        0.59498        0.60211        0.61011        0.61461        0.62196
        0.63651        0.69037        0.91549        0.93247        0.95018
        0.95967        0.97086        0.97664        0.98691        1.01639
        1.03654        1.07187        1.09346        1.11237        1.12057
        1.13909        1.16942        1.29823        1.31715        1.32822
        1.34954        1.39349        1.41398        1.48233        1.52414
        1.53046        1.53220        1.53844        1.55748        1.56565
        1.58272        1.61912        1.72096        1.72785        1.73187
        1.75376        1.80073        1.85101        1.89000        1.90665
        1.91956        1.95775        1.97266        2.05198        2.17919
        2.21509        2.23748        2.25295        2.26569        2.27184
        2.33172        2.38378        2.39159        2.49590        2.56091
        2.62939        2.63998        2.65382        2.65904        2.70381
        2.77804        2.80126        2.83683        2.84060        2.85525
        2.96444        2.99439        3.03169        3.16134        3.39214
        3.41735        3.43439        3.43866        3.47764        3.48649
        3.51037        3.51963        3.52877        3.53341        3.62032
        3.62554        3.66369        3.67388        3.97708        3.98645
        4.01243        4.03180        4.17719        4.20132        4.21235
        4.21658        4.62375        5.16506        5.26356        5.29360
        5.30961        5.32249        5.33186        5.63034        5.66929
        5.69157        5.80118        6.01977        6.10674        6.10904
        6.14263       37.12912       51.45489       51.46631       51.50243
       51.52283
 Time used in FCKEIG, thr_jaco:   2.87D-01  3.00D-02  4.01D-05
 CPU and wall times used in FCKEIG, THR_FCKEIG:   2.87D-01  3.00D-02  9.18D-03
 -----------------------------------------------------------------------------

 *** DIIS iteration number    3
 RDSUPM called. NFMAT, ISYMDM(1:NFMAT)                     1
                     1

 ITDIIS, energy, error norm, change in energy, scr.thr., difden:
@ DIIS iter.   3    -360.809978656        3.33364D-01   -6.10D-02  -20    F

 (DIIS_RED) Control Parameters C2DIIS =         F NEVC =    3


 (DIIS_RED) B matrix:

               Column   1     Column   2     Column   3
       1      14.11715114
       2       0.98143907     0.84339823
       3       0.60296037     0.07210653     0.11113173
    ==== End of matrix output ====

 DIIS C vector; C2DIIS = F, LAMBDA = -8.88D-02
   -0.039972    0.068756    0.971217
* Read MO coefficients from SIRIUS.RST with label "NEWORB  " and header info: 31Dec18  DIIS   3
      Virial theorem: -V/T =      2.002387
@      MULPOP N      -0.58; H       0.20; H       0.22; H       0.20; O      -0.67; O      -0.68; O      -0.79; O      -0.70; H       0.34; H       0.36; 
@             H       0.31; H       0.37; H       0.36; H       0.36; H       0.35; H       0.36; 
   3  Level shift: doubly occupied orbital energies shifted by -2.50D-02

 DIIS Fock eigenvalues in symmetry 1
      -20.56009      -20.55128      -20.54943      -20.53839      -15.59101
       -1.34501       -1.34171       -1.33319       -1.31723       -1.16900
       -0.72172       -0.70206       -0.70157       -0.68043       -0.66197
       -0.63602       -0.60280       -0.59322       -0.57425       -0.57094
       -0.53516       -0.53084       -0.51832       -0.51557       -0.46985
        0.15515        0.19420        0.20128        0.20849        0.25598
        0.28369        0.29954        0.31474        0.33163        0.35765
        0.37619        0.47785        0.50842        0.57138        0.60045
        0.60474        0.60905        0.61800        0.62248        0.63068
        0.64356        0.69071        0.91982        0.93448        0.96866
        0.98030        0.98776        0.98933        0.99967        1.00911
        1.04605        1.07927        1.10476        1.12095        1.13000
        1.14992        1.17795        1.29393        1.32586        1.33879
        1.35646        1.39149        1.42682        1.49379        1.53530
        1.53975        1.54292        1.55088        1.56730        1.57390
        1.59433        1.62845        1.73298        1.73659        1.74020
        1.76352        1.80322        1.85170        1.89659        1.91496
        1.92695        1.96313        1.97645        2.05349        2.17319
        2.22542        2.23070        2.26060        2.28274        2.28647
        2.34419        2.39423        2.40386        2.50889        2.56589
        2.63709        2.64818        2.66285        2.66956        2.71060
        2.78593        2.80794        2.84506        2.84765        2.86220
        2.95549        2.96901        3.00868        3.14118        3.43492
        3.44173        3.45123        3.45891        3.47384        3.48115
        3.51093        3.53720        3.54738        3.55430        3.64466
        3.67075        3.68198        3.69382        3.99996        4.00465
        4.05086        4.05765        4.21234        4.22583        4.23506
        4.24974        4.56586        5.11067        5.25460        5.33405
        5.34006        5.34419        5.34894        5.69796        5.70231
        5.71327        5.82431        6.05070        6.12893        6.16671
        6.17599       37.00027       51.51140       51.53116       51.55391
       51.57629
 Time used in FCKEIG, thr_jaco:   2.49D-01  2.50D-02  1.46D-05
 CPU and wall times used in FCKEIG, THR_FCKEIG:   2.49D-01  2.50D-02  3.33D-03
 -----------------------------------------------------------------------------

 *** DIIS iteration number    4
 RDSUPM called. NFMAT, ISYMDM(1:NFMAT)                     1
                     1

 ITDIIS, energy, error norm, change in energy, scr.thr., difden:
@ DIIS iter.   4    -360.818070302        1.19037D-01   -8.09D-03  -20    F

 (DIIS_RED) Control Parameters C2DIIS =         F NEVC =    4


 (DIIS_RED) B matrix:

               Column   1     Column   2     Column   3     Column   4
       1      14.11715114
       2       0.98143907     0.84339823
       3       0.60296037     0.07210653     0.11113173
       4      -0.00458817     0.07960657    -0.00805942     0.01416973
    ==== End of matrix output ====

 DIIS C vector; C2DIIS = F, LAMBDA = -4.09D-03
    0.000282   -0.097576    0.166093    0.931201
* Read MO coefficients from SIRIUS.RST with label "NEWORB  " and header info: 31Dec18  DIIS   4
      Virial theorem: -V/T =      2.003187
@      MULPOP N      -0.65; H       0.22; H       0.24; H       0.22; O      -0.68; O      -0.68; O      -0.78; O      -0.72; H       0.34; H       0.36; 
@             H       0.31; H       0.38; H       0.36; H       0.36; H       0.35; H       0.37; 
   4  Level shift: doubly occupied orbital energies shifted by -1.25D-02

 DIIS Fock eigenvalues in symmetry 1
      -20.56333      -20.55529      -20.55339      -20.54561      -15.54088
       -1.34417       -1.33255       -1.32413       -1.31053       -1.14433
       -0.71678       -0.69255       -0.69187       -0.67104       -0.64081
       -0.61377       -0.59864       -0.58209       -0.56567       -0.55818
       -0.53091       -0.51761       -0.50542       -0.50530       -0.44422
        0.15596        0.19328        0.20095        0.20724        0.25602
        0.28425        0.29935        0.31503        0.33310        0.35866
        0.37837        0.48149        0.51324        0.57184        0.59941
        0.60350        0.60795        0.61735        0.62092        0.62988
        0.64211        0.69444        0.92418        0.93875        0.96731
        0.97923        0.98722        0.98968        0.99932        1.01522
        1.04703        1.07971        1.10372        1.12070        1.12922
        1.14916        1.17708        1.29956        1.32472        1.33609
        1.35735        1.39739        1.42617        1.49295        1.53341
        1.53704        1.54105        1.54889        1.56473        1.57217
        1.59338        1.62796        1.73184        1.73410        1.73833
        1.76267        1.80730        1.85537        1.89485        1.91444
        1.92500        1.96599        1.97981        2.05798        2.17971
        2.22283        2.23744        2.25891        2.27982        2.28182
        2.34033        2.39117        2.40149        2.51014        2.56942
        2.63626        2.64624        2.66234        2.66786        2.71191
        2.78795        2.80819        2.84387        2.84747        2.86067
        2.96331        2.98154        3.02093        3.15154        3.42710
        3.43694        3.45012        3.45714        3.48351        3.49432
        3.50616        3.53513        3.54005        3.55205        3.64009
        3.66057        3.68010        3.69194        3.99537        4.00211
        4.04549        4.05057        4.20598        4.22282        4.23300
        4.24164        4.58605        5.13031        5.27137        5.32061
        5.32860        5.33966        5.34504        5.68073        5.69338
        5.70975        5.82074        6.04266        6.12462        6.15760
        6.16213       37.03720       51.49698       51.52367       51.53925
       51.54591
 Time used in FCKEIG, thr_jaco:   2.39D-01  2.40D-02  5.20D-06
 CPU and wall times used in FCKEIG, THR_FCKEIG:   2.39D-01  2.40D-02  1.19D-03
 -----------------------------------------------------------------------------

 *** DIIS iteration number    5
 RDSUPM called. NFMAT, ISYMDM(1:NFMAT)                     1
                     1

 ITDIIS, energy, error norm, change in energy, scr.thr., difden:
@ DIIS iter.   5    -360.819220081        2.43846D-02   -1.15D-03  -20    F

 (DIIS_RED) Control Parameters C2DIIS =         F NEVC =    5


 (DIIS_RED) B matrix:

               Column   1     Column   2     Column   3     Column   4     Column   5
       1      14.11715114
       2       0.98143907     0.84339823
       3       0.60296037     0.07210653     0.11113173
       4      -0.00458817     0.07960657    -0.00805942     0.01416973
       5       0.01388040     0.00658211     0.00505624     0.00079421     0.00059461
    ==== End of matrix output ====

 DIIS C vector; C2DIIS = F, LAMBDA = -3.02D-04
    0.001399    0.008796   -0.075310   -0.137889    1.203005
* Read MO coefficients from SIRIUS.RST with label "NEWORB  " and header info: 31Dec18  DIIS   5
      Virial theorem: -V/T =      2.002838
@      MULPOP N      -0.64; H       0.21; H       0.24; H       0.21; O      -0.69; O      -0.70; O      -0.80; O      -0.73; H       0.35; H       0.37; 
@             H       0.32; H       0.39; H       0.37; H       0.36; H       0.36; H       0.38; 

 DIIS Fock eigenvalues in symmetry 1
      -20.54483      -20.54179      -20.53851      -20.53110      -15.52538
       -1.32949       -1.31966       -1.31095       -1.29720       -1.13105
       -0.70318       -0.68005       -0.67957       -0.65829       -0.62788
       -0.60071       -0.58436       -0.56971       -0.55293       -0.54540
       -0.51543       -0.50373       -0.49137       -0.49110       -0.43048
        0.15601        0.19311        0.20083        0.20731        0.25598
        0.28421        0.29925        0.31496        0.33326        0.35880
        0.37852        0.48171        0.51349        0.57198        0.59946
        0.60344        0.60781        0.61748        0.62082        0.62983
        0.64190        0.69470        0.92508        0.93972        0.96843
        0.98064        0.98845        0.99041        1.00036        1.01578
        1.04774        1.08011        1.10399        1.12074        1.12934
        1.14970        1.17721        1.30002        1.32501        1.33634
        1.35777        1.39780        1.42677        1.49365        1.53304
        1.53661        1.54081        1.54909        1.56450        1.57178
        1.59371        1.62781        1.73186        1.73374        1.73793
        1.76242        1.80742        1.85551        1.89433        1.91403
        1.92441        1.96616        1.98007        2.05817        2.17997
        2.22249        2.23760        2.25845        2.27990        2.28179
        2.34008        2.39072        2.40125        2.51055        2.56979
        2.63582        2.64569        2.66202        2.66743        2.71185
        2.78771        2.80782        2.84325        2.84697        2.85995
        2.96381        2.98213        3.02145        3.15210        3.42928
        3.43781        3.45049        3.45777        3.48468        3.49524
        3.50691        3.53534        3.54193        3.55254        3.64083
        3.66265        3.68035        3.69244        3.99603        4.00233
        4.04703        4.05154        4.20726        4.22352        4.23330
        4.24321        4.58750        5.13156        5.27274        5.32391
        5.33036        5.34066        5.34624        5.68395        5.69468
        5.71018        5.82170        6.04368        6.12485        6.16054
        6.16290       37.04014       51.49935       51.52465       51.54472
       51.54829
 Time used in FCKEIG, thr_jaco:   2.26D-01  2.30D-02  1.07D-06
 CPU and wall times used in FCKEIG, THR_FCKEIG:   2.26D-01  2.30D-02  2.44D-04
 -----------------------------------------------------------------------------

 *** DIIS iteration number    6
 RDSUPM called. NFMAT, ISYMDM(1:NFMAT)                     1
                     1

 ITDIIS, energy, error norm, change in energy, scr.thr., difden:
@ DIIS iter.   6    -360.819307537        7.26216D-03   -8.75D-05  -20    F

 (DIIS_RED) Control Parameters C2DIIS =         F NEVC =    6


 (DIIS_RED) B matrix:

               Column   1     Column   2     Column   3     Column   4     Column   5     Column   6
       1      14.11715114
       2       0.98143907     0.84339823
       3       0.60296037     0.07210653     0.11113173
       4      -0.00458817     0.07960657    -0.00805942     0.01416973
       5       0.01388040     0.00658211     0.00505624     0.00079421     0.00059461
       6      -0.00265236    -0.00039017     0.00048620     0.00017015     0.00006888     0.00005274
    ==== End of matrix output ====

 DIIS C vector; C2DIIS = F, LAMBDA = -3.14D-05
    0.000471    0.007822   -0.023457   -0.074367    0.144612    0.944919
* Read MO coefficients from SIRIUS.RST with label "NEWORB  " and header info: 31Dec18  DIIS   6
      Virial theorem: -V/T =      2.002977
@      MULPOP N      -0.64; H       0.21; H       0.24; H       0.21; O      -0.69; O      -0.70; O      -0.80; O      -0.73; H       0.35; H       0.37; 
@             H       0.32; H       0.39; H       0.37; H       0.36; H       0.36; H       0.38; 

 DIIS Fock eigenvalues in symmetry 1
      -20.54685      -20.54200      -20.53943      -20.53201      -15.52857
       -1.33000       -1.31965       -1.31121       -1.29741       -1.13207
       -0.70376       -0.68041       -0.67971       -0.65861       -0.62877
       -0.60156       -0.58497       -0.56991       -0.55335       -0.54589
       -0.51578       -0.50356       -0.49150       -0.49118       -0.43140
        0.15588        0.19301        0.20074        0.20722        0.25584
        0.28408        0.29915        0.31484        0.33312        0.35867
        0.37830        0.48144        0.51313        0.57179        0.59934
        0.60328        0.60764        0.61724        0.62066        0.62963
        0.64179        0.69436        0.92462        0.93923        0.96822
        0.98037        0.98831        0.99026        1.00018        1.01523
        1.04752        1.07982        1.10376        1.12051        1.12916
        1.14936        1.17692        1.29948        1.32484        1.33622
        1.35748        1.39728        1.42648        1.49329        1.53279
        1.53641        1.54066        1.54886        1.56432        1.57162
        1.59344        1.62754        1.73165        1.73356        1.73779
        1.76217        1.80702        1.85509        1.89413        1.91377
        1.92426        1.96585        1.97969        2.05775        2.17937
        2.22223        2.23696        2.25822        2.27955        2.28145
        2.33984        2.39056        2.40096        2.51013        2.56933
        2.63560        2.64548        2.66178        2.66718        2.71158
        2.78742        2.80759        2.84305        2.84668        2.85972
        2.96307        2.98112        3.02048        3.15123        3.42861
        3.43751        3.45039        3.45743        3.48358        3.49404
        3.50659        3.53526        3.54119        3.55219        3.64054
        3.66205        3.68029        3.69209        3.99573        4.00223
        4.04648        4.05106        4.20682        4.22316        4.23321
        4.24268        4.58578        5.12990        5.27122        5.32298
        5.32980        5.34042        5.34581        5.68292        5.69417
        5.71006        5.82117        6.04317        6.12470        6.15951
        6.16236       37.03701       51.49844       51.52444       51.54291
       51.54721
 Time used in FCKEIG, thr_jaco:   2.27D-01  2.30D-02  3.17D-07
 CPU and wall times used in FCKEIG, THR_FCKEIG:   2.27D-01  2.30D-02  7.26D-05
 -----------------------------------------------------------------------------

 *** DIIS iteration number    7
 RDSUPM called. NFMAT, ISYMDM(1:NFMAT)                     1
                     1

 ITDIIS, energy, error norm, change in energy, scr.thr., difden:
@ DIIS iter.   7    -360.819312920        2.44969D-03   -5.38D-06  -20    F

 (DIIS_RED) Control Parameters C2DIIS =         F NEVC =    7


 (DIIS_RED) B matrix:

               Column   1     Column   2     Column   3     Column   4     Column   5     Column   6
       1      14.11715114
       2       0.98143907     0.84339823
       3       0.60296037     0.07210653     0.11113173
       4      -0.00458817     0.07960657    -0.00805942     0.01416973
       5       0.01388040     0.00658211     0.00505624     0.00079421     0.00059461
       6      -0.00265236    -0.00039017     0.00048620     0.00017015     0.00006888     0.00005274
       7       0.00096014     0.00002367     0.00007199    -0.00000495     0.00003362    -0.00000140

               Column   7
       7       0.00000600
    ==== End of matrix output ====

 DIIS C vector; C2DIIS = F, LAMBDA = -1.19D-06
   -0.000223   -0.001492    0.010181    0.022733   -0.161383    0.072040    1.058143
* Read MO coefficients from SIRIUS.RST with label "NEWORB  " and header info: 31Dec18  DIIS   7
      Virial theorem: -V/T =      2.002942
@      MULPOP N      -0.64; H       0.21; H       0.24; H       0.21; O      -0.69; O      -0.70; O      -0.80; O      -0.73; H       0.35; H       0.37; 
@             H       0.32; H       0.39; H       0.37; H       0.36; H       0.36; H       0.38; 

 DIIS Fock eigenvalues in symmetry 1
      -20.54618      -20.54197      -20.53913      -20.53179      -15.52790
       -1.32969       -1.31959       -1.31110       -1.29726       -1.13184
       -0.70353       -0.68036       -0.67969       -0.65851       -0.62862
       -0.60142       -0.58475       -0.56995       -0.55332       -0.54585
       -0.51545       -0.50347       -0.49137       -0.49101       -0.43115
        0.15593        0.19304        0.20076        0.20728        0.25588
        0.28410        0.29917        0.31487        0.33317        0.35873
        0.37835        0.48153        0.51323        0.57187        0.59940
        0.60333        0.60768        0.61731        0.62070        0.62968
        0.64181        0.69444        0.92475        0.93939        0.96834
        0.98053        0.98844        0.99033        1.00030        1.01535
        1.04763        1.07990        1.10384        1.12058        1.12923
        1.14947        1.17697        1.29960        1.32493        1.33630
        1.35759        1.39738        1.42661        1.49346        1.53279
        1.53643        1.54069        1.54897        1.56436        1.57163
        1.59357        1.62757        1.73174        1.73359        1.73781
        1.76219        1.80708        1.85519        1.89415        1.91378
        1.92426        1.96593        1.97978        2.05784        2.17949
        2.22227        2.23707        2.25824        2.27963        2.28153
        2.33988        2.39057        2.40098        2.51027        2.56943
        2.63563        2.64550        2.66183        2.66720        2.71162
        2.78747        2.80763        2.84308        2.84669        2.85973
        2.96323        2.98133        3.02068        3.15139        3.42891
        3.43765        3.45044        3.45753        3.48385        3.49430
        3.50674        3.53531        3.54149        3.55229        3.64069
        3.66235        3.68034        3.69219        3.99585        4.00228
        4.04670        4.05123        4.20703        4.22329        4.23327
        4.24293        4.58617        5.13023        5.27155        5.32337
        5.33003        5.34052        5.34594        5.68332        5.69436
        5.71010        5.82131        6.04336        6.12475        6.15992
        6.16249       37.03767       51.49874       51.52448       51.54351
       51.54749
 Time used in FCKEIG, thr_jaco:   2.27D-01  2.30D-02  1.07D-07
 CPU and wall times used in FCKEIG, THR_FCKEIG:   2.28D-01  2.30D-02  2.45D-05
 -----------------------------------------------------------------------------

 *** DIIS iteration number    8
 RDSUPM called. NFMAT, ISYMDM(1:NFMAT)                     1
                     1

 ITDIIS, energy, error norm, change in energy, scr.thr., difden:
@ DIIS iter.   8    -360.819313450        3.44006D-04   -5.30D-07  -20    F

 (DIIS_RED) Control Parameters C2DIIS =         F NEVC =    8


 (DIIS_RED) B matrix:

               Column   1     Column   2     Column   3     Column   4     Column   5     Column   6
       1      14.11715114
       2       0.98143907     0.84339823
       3       0.60296037     0.07210653     0.11113173
       4      -0.00458817     0.07960657    -0.00805942     0.01416973
       5       0.01388040     0.00658211     0.00505624     0.00079421     0.00059461
       6      -0.00265236    -0.00039017     0.00048620     0.00017015     0.00006888     0.00005274
       7       0.00096014     0.00002367     0.00007199    -0.00000495     0.00003362    -0.00000140
       8      -0.00003059     0.00000105    -0.00000423     0.00000472     0.00000073     0.00000134

               Column   7     Column   8
       7       0.00000600
       8       0.00000017     0.00000012
    ==== End of matrix output ====

 DIIS C vector; C2DIIS = F, LAMBDA = -6.34D-08
    0.000017    0.000046   -0.000887   -0.001847    0.021226   -0.044910   -0.146250    1.172604
* Read MO coefficients from SIRIUS.RST with label "NEWORB  " and header info: 31Dec18  DIIS   8
      Virial theorem: -V/T =      2.002961
@      MULPOP N      -0.64; H       0.21; H       0.24; H       0.21; O      -0.69; O      -0.70; O      -0.80; O      -0.73; H       0.35; H       0.37; 
@             H       0.32; H       0.39; H       0.37; H       0.36; H       0.36; H       0.38; 

 DIIS Fock eigenvalues in symmetry 1
      -20.54620      -20.54196      -20.53918      -20.53182      -15.52794
       -1.32970       -1.31958       -1.31110       -1.29727       -1.13185
       -0.70354       -0.68036       -0.67968       -0.65852       -0.62863
       -0.60143       -0.58477       -0.56997       -0.55335       -0.54588
       -0.51545       -0.50346       -0.49138       -0.49102       -0.43117
        0.15593        0.19303        0.20076        0.20728        0.25588
        0.28410        0.29917        0.31487        0.33316        0.35872
        0.37834        0.48153        0.51322        0.57187        0.59940
        0.60332        0.60767        0.61731        0.62070        0.62967
        0.64181        0.69443        0.92475        0.93938        0.96833
        0.98053        0.98843        0.99032        1.00029        1.01534
        1.04763        1.07989        1.10384        1.12058        1.12922
        1.14946        1.17696        1.29959        1.32492        1.33629
        1.35758        1.39737        1.42660        1.49344        1.53278
        1.53642        1.54069        1.54896        1.56435        1.57163
        1.59356        1.62756        1.73173        1.73358        1.73781
        1.76219        1.80708        1.85517        1.89415        1.91377
        1.92426        1.96592        1.97977        2.05783        2.17948
        2.22226        2.23705        2.25824        2.27962        2.28153
        2.33987        2.39057        2.40097        2.51025        2.56942
        2.63562        2.64550        2.66182        2.66719        2.71162
        2.78745        2.80763        2.84307        2.84668        2.85972
        2.96321        2.98131        3.02066        3.15138        3.42889
        3.43763        3.45044        3.45751        3.48383        3.49428
[...]

 Principal values of diagonalized transition strength matrix:

             a.u.               
 1      -0.00000000
 2       0.00000000
 3       0.00011679

 Principal axis of diagonalized transition strength matrix:


               Column   1     Column   2     Column   3
       1      -0.33648872     0.73119075    -0.59341000
       2       0.86413843     0.49017591     0.11398403
       3      -0.37421936     0.47443405     0.79678869
    ==== End of matrix output ====


 CCSD   oscillator strength matrix for state nr. 13 of symmetry 1
 CCSD  excitation energy:15.14074667


               Column   1     Column   2     Column   3
       1     4.151150D-04  -7.973591D-05  -5.573875D-04
       2    -7.973591D-05   1.531422D-05   1.070655D-04
       3    -5.573875D-04   1.070655D-04   7.484195D-04
    ==== End of matrix output ====

 Principal values of diagonalized oscillator strength matrix:

             a.u.               
 1      -0.00000000
 2      -0.00000000
 3       0.00117885

 Principal axis of diagonalized oscillator strength matrix:


               Column   1     Column   2     Column   3
       1      -0.33648872     0.73119075    -0.59341000
       2       0.86413843     0.49017591     0.11398403
       3      -0.37421936     0.47443405     0.79678869
    ==== End of matrix output ====


 CCSD  Transition strength matrix for state nr. 14 of symmetry 1
 CCSD  excitation energy:15.21984565

 Gauge: length

               Column   1     Column   2     Column   3
       1     1.503197D-04   5.069841D-05  -5.018041D-05
       2     5.069841D-05   1.709731D-05  -1.692429D-05
       3    -5.018041D-05  -1.692429D-05   1.675145D-05
    ==== End of matrix output ====

 Principal values of diagonalized transition strength matrix:

             a.u.               
 1      -0.00000000
 2      -0.00000000
 3       0.00018417

 Principal axis of diagonalized transition strength matrix:


               Column   1     Column   2     Column   3
       1      -0.30413732     0.30215752     0.90343861
       2       0.95131232     0.04650445     0.30470018
       3       0.05005353     0.95212298    -0.30158991
    ==== End of matrix output ====


 CCSD   oscillator strength matrix for state nr. 14 of symmetry 1
 CCSD  excitation energy:15.21984565


               Column   1     Column   2     Column   3
       1       0.00152523     0.00051441    -0.00050916
       2       0.00051441     0.00017348    -0.00017172
       3      -0.00050916    -0.00017172     0.00016997
    ==== End of matrix output ====

 Principal values of diagonalized oscillator strength matrix:

             a.u.               
 1      -0.00000002
 2      -0.00000000
 3       0.00186869

 Principal axis of diagonalized oscillator strength matrix:


               Column   1     Column   2     Column   3
       1      -0.30413732     0.30215752     0.90343861
       2       0.95131232     0.04650445     0.30470018
       3       0.05005353     0.95212298    -0.30158991
    ==== End of matrix output ====


 CCSD  Transition strength matrix for state nr. 15 of symmetry 1
 CCSD  excitation energy:15.27150289

 Gauge: length

               Column   1     Column   2     Column   3
       1     1.511503D-04   8.283936D-05  -4.567606D-05
       2     8.283936D-05   4.539184D-05  -2.502885D-05
       3    -4.567606D-05  -2.502885D-05   1.380075D-05
    ==== End of matrix output ====

 Principal values of diagonalized transition strength matrix:

             a.u.               
 1      -0.00000001
 2      -0.00000000
 3       0.00021035

 Principal axis of diagonalized transition strength matrix:


               Column   1     Column   2     Column   3
       1      -0.52932043     0.03530649     0.84768705
       2       0.77281188     0.43237485     0.46455763
       3      -0.35011666     0.90100247    -0.25615012
    ==== End of matrix output ====


 CCSD   oscillator strength matrix for state nr. 15 of symmetry 1
 CCSD  excitation energy:15.27150289


               Column   1     Column   2     Column   3
       1       0.00153886     0.00084339    -0.00046503
       2       0.00084339     0.00046213    -0.00025482
       3      -0.00046503    -0.00025482     0.00014051
    ==== End of matrix output ====

 Principal values of diagonalized oscillator strength matrix:

             a.u.               
 1      -0.00000008
 2      -0.00000000
 3       0.00214158

 Principal axis of diagonalized oscillator strength matrix:


               Column   1     Column   2     Column   3
       1      -0.52932043     0.03530649     0.84768705
       2       0.77281188     0.43237485     0.46455763
       3      -0.35011666     0.90100247    -0.25615012
    ==== End of matrix output ====

  Total time for    135 linear response residues:     138.94 seconds.
  

 *******************************************************************************
 *******************************************************************************
 *                                                                             *
 *                                                                             *
 *                   SUMMARY OF COUPLED CLUSTER CALCULATION                    *
 *                                                                             *
 *                                                                             *
 *******************************************************************************
 *******************************************************************************

                                                                                
                                                                                
            Total SCF   energy:                  -360.8193134665                
            Total MP2   energy:                  -361.9177163308                
            Total CCSD  energy:                  -361.9575914541                
                                                                                
                                                                                
            Total SCF   energy:                  -360.8193134665                
            Total RSTAR energy:                  -361.9575914541                
            Total CCSD  energy:                  -361.9577361515                
                                                                                
                                                                                
            Total SCF   energy:                  -360.8193134665                
            Total RSTAR energy:                  -361.9577361515                
            Total CCSD  energy:                  -361.9577383290                
                                                                                
                                                                                
            Total SCF   energy:                  -360.8193134665                
            Total RSTAR energy:                  -361.9577383290                
            Total CCSD  energy:                  -361.9577384706                
                                                                                
                                                                                
            Total SCF   energy:                  -360.8193134665                
            Total RSTAR energy:                  -361.9577384706                
            Total CCSD  energy:                  -361.9577384782                
                                                                                
                                                                                
            Total SCF   energy:                  -360.8193134665                
            Total RSTAR energy:                  -361.9577384782                
            Total CCSD  energy:                  -361.9577384786                
            CCSD Total  energy:                  -362.4269210956                
            CCSD E(QM/MM)     :                    -0.4627065707                
                                                                                
                                                                                
                                                                                
 +=============================================================================+
 |  sym. | Exci.  |        CCSD       Excitation energies            | ||T1||  |
 |(spin, |        +------------------------------------------------------------+
 | spat) |        |     Hartree    |       eV.      |     cm-1       |    %    |
 +=============================================================================+
 | ^1A   |    1   |    14.8191331  |     403.24912  |   3252423.741  |  88.32  |
 | ^1A   |    2   |    14.8789235  |     404.87610  |   3265546.228  |  88.74  |
 | ^1A   |    3   |    14.9126307  |     405.79332  |   3272944.101  |  88.78  |
 | ^1A   |    4   |    14.9506850  |     406.82883  |   3281296.043  |  88.37  |
 | ^1A   |    5   |    15.0118186  |     408.49236  |   3294713.313  |  88.02  |
 | ^1A   |    6   |    15.0226488  |     408.78707  |   3297090.270  |  87.98  |
 | ^1A   |    7   |    15.0259834  |     408.87781  |   3297822.140  |  88.12  |
 | ^1A   |    8   |    15.0673252  |     410.00277  |   3306895.607  |  88.11  |
 | ^1A   |    9   |    15.0837562  |     410.44988  |   3310501.792  |  88.01  |
 | ^1A   |   10   |    15.0884135  |     410.57662  |   3311523.962  |  88.08  |
 | ^1A   |   11   |    15.1173584  |     411.36425  |   3317876.640  |  87.94  |
 | ^1A   |   12   |    15.1237860  |     411.53915  |   3319287.324  |  87.93  |
 | ^1A   |   13   |    15.1407467  |     412.00067  |   3323009.764  |  88.03  |
 | ^1A   |   14   |    15.2198456  |     414.15307  |   3340369.982  |  87.60  |
 | ^1A   |   15   |    15.2715029  |     415.55873  |   3351707.437  |  87.97  |
 +=============================================================================+
                                                                                
                                                                                
     Total energies in Hartree:                                                 
             1 ^1A       -347.1450814417                                        
             2 ^1A       -347.0852909883                                        
             3 ^1A       -347.0515838013                                        
             4 ^1A       -347.0135295531                                        
             5 ^1A       -346.9523959711                                        
             6 ^1A       -346.9415657571                                        
             7 ^1A       -346.9382311114                                        
             8 ^1A       -346.8968893530                                        
             9 ^1A       -346.8804583644                                        
            10 ^1A       -346.8758010192                                        
            11 ^1A       -346.8468560881                                        
            12 ^1A       -346.8404285347                                        
            13 ^1A       -346.8234678504                                        
            14 ^1A       -346.7443688775                                        
            15 ^1A       -346.6927116316                                        
                                                                                
                                                                                
 +=============================================================================+
 |  sym. | Exci.  |        CCSD       Length   Gauge Oscillator Strength       |
 |(spin, |        +------------------------------------------------------------+
 | spat) |        | Dipole Strength(a.u.) | Oscillator strength  | Direction   |
 +=============================================================================+
 | ^1A   |    1   |        0.0007661      |      0.0075684       |  (Y,Z)      |
 | ^1A   |    2   |        0.0037679      |      0.0373752       |  (Y,Z)      |
 | ^1A   |    3   |        0.0033757      |      0.0335608       |  (Y,Z)      |
 | ^1A   |    4   |        0.0014939      |      0.0148900       |  (Y,Z)      |
 | ^1A   |    5   |        0.0003973      |      0.0039760       |  (Y,Z)      |
 | ^1A   |    6   |        0.0003700      |      0.0037055       |  (Y,Z)      |
 | ^1A   |    7   |        0.0005195      |      0.0052039       |  (Y,Z)      |
 | ^1A   |    8   |        0.0004737      |      0.0047580       |  (Y,Z)      |
 | ^1A   |    9   |        0.0002375      |      0.0023885       |  (Y,Z)      |
 | ^1A   |   10   |        0.0006261      |      0.0062981       |  (Y,Z)      |
 | ^1A   |   11   |        0.0000534      |      0.0005377       |  (Y,Z)      |
 | ^1A   |   12   |        0.0001124      |      0.0011331       |  (Y,Z)      |
 | ^1A   |   13   |        0.0001168      |      0.0011788       |  (Y,Z)      |
 | ^1A   |   14   |        0.0001842      |      0.0018687       |  (Y,Z)      |
 | ^1A   |   15   |        0.0002103      |      0.0021415       |  (Y,Z)      |
 +=============================================================================+

  1 a.u. =        27.21138 eV.  
  1 a.u. =    219474.62934 cm-1.
  

 *******************************************************************************
 *******************************************************************************
 *                                                                             *
 *                                                                             *
 *                      END OF COUPLED CLUSTER CALCULATION                     *
 *                                                                             *
 *                                                                             *
 *******************************************************************************
 *******************************************************************************


 CPU and wall time for CC :  489764.934   57772.525

 
     Date and time (Linux)  : Mon Dec 31 19:16:29 2018
     Host name              : n-62-24-3                               


                      .-------------------------------------.
                      | End of Coupled Cluster Section (CC) |
                      `-------------------------------------'

  Total CPU  time used in DALTON: 136 hours 14 minutes 31 seconds
  Total wall time used in DALTON:  16 hours  5 minutes 16 seconds

 
     Date and time (Linux)  : Mon Dec 31 19:16:29 2018
     Host name              : n-62-24-3                               
  

 +---------------------------------------------------------+ 
 | List of selected calculated molecular properties (a.u.) | 
 +---------------------------------------------------------+ 

  Properties are read from unit number                      4

 CCSD       properties :
 #  1 1 CCSD/MM  Ground state Energy =    -362.4269210956
 #  2 1 E_QM/MM  Ground state Energy =      -0.4627065707
 #  3 1 Sy: 1 Sp: 1 Exc:  1 E_tot:   -347.1450814417 w:     14.8191330832 E_grs:   -361.9642145249
 #  4 1 Exctot   Excited state Energy =    -347.1450814417
 #  5 1 Sy: 1 Sp: 1 Exc:  2 E_tot:   -347.0852909883 w:     14.8789235366 E_grs:   -361.9642145249
 #  6 1 Exctot   Excited state Energy =    -347.0852909883
 #  7 1 Sy: 1 Sp: 1 Exc:  3 E_tot:   -347.0515838013 w:     14.9126307236 E_grs:   -361.9642145249
 #  8 1 Exctot   Excited state Energy =    -347.0515838013
 #  9 1 Sy: 1 Sp: 1 Exc:  4 E_tot:   -347.0135295531 w:     14.9506849718 E_grs:   -361.9642145249
 # 10 1 Exctot   Excited state Energy =    -347.0135295531
 # 11 1 Sy: 1 Sp: 1 Exc:  5 E_tot:   -346.9523959711 w:     15.0118185539 E_grs:   -361.9642145249
 # 12 1 Exctot   Excited state Energy =    -346.9523959711
 # 13 1 Sy: 1 Sp: 1 Exc:  6 E_tot:   -346.9415657571 w:     15.0226487679 E_grs:   -361.9642145249
 # 14 1 Exctot   Excited state Energy =    -346.9415657571
 # 15 1 Sy: 1 Sp: 1 Exc:  7 E_tot:   -346.9382311114 w:     15.0259834135 E_grs:   -361.9642145249
 # 16 1 Exctot   Excited state Energy =    -346.9382311114
 # 17 1 Sy: 1 Sp: 1 Exc:  8 E_tot:   -346.8968893530 w:     15.0673251720 E_grs:   -361.9642145249
 # 18 1 Exctot   Excited state Energy =    -346.8968893530
 # 19 1 Sy: 1 Sp: 1 Exc:  9 E_tot:   -346.8804583644 w:     15.0837561606 E_grs:   -361.9642145249
 # 20 1 Exctot   Excited state Energy =    -346.8804583644
 # 21 1 Sy: 1 Sp: 1 Exc: 10 E_tot:   -346.8758010192 w:     15.0884135057 E_grs:   -361.9642145249
 # 22 1 Exctot   Excited state Energy =    -346.8758010192
 # 23 1 Sy: 1 Sp: 1 Exc: 11 E_tot:   -346.8468560881 w:     15.1173584369 E_grs:   -361.9642145249
 # 24 1 Exctot   Excited state Energy =    -346.8468560881
 # 25 1 Sy: 1 Sp: 1 Exc: 12 E_tot:   -346.8404285347 w:     15.1237859902 E_grs:   -361.9642145249
 # 26 1 Exctot   Excited state Energy =    -346.8404285347
 # 27 1 Sy: 1 Sp: 1 Exc: 13 E_tot:   -346.8234678504 w:     15.1407466745 E_grs:   -361.9642145249
 # 28 1 Exctot   Excited state Energy =    -346.8234678504
 # 29 1 Sy: 1 Sp: 1 Exc: 14 E_tot:   -346.7443688775 w:     15.2198456474 E_grs:   -361.9642145249
 # 30 1 Exctot   Excited state Energy =    -346.7443688775
 # 31 1 Sy: 1 Sp: 1 Exc: 15 E_tot:   -346.6927116316 w:     15.2715028933 E_grs:   -361.9642145249
 # 32 1 Exctot   Excited state Energy =    -346.6927116316
 # 33 1 |<O|XDIPLEN |i(14.819133)>| =     0.01315305
 # 35 1 |<O|XDIPLEN |i(14.878924)>| =     0.05081997
 # 37 1 |<O|XDIPLEN |i(14.912631)>| =     0.01526024
 # 39 1 |<O|XDIPLEN |i(14.950685)>| =     0.01704606
 # 41 1 |<O|XDIPLEN |i(15.011819)>| =     0.00478447
 # 43 1 |<O|XDIPLEN |i(15.022649)>| =     0.00078952
 # 45 1 |<O|XDIPLEN |i(15.025983)>| =     0.02230772
 # 47 1 |<O|XDIPLEN |i(15.067325)>| =     0.00601919
 # 49 1 |<O|XDIPLEN |i(15.083756)>| =     0.00278295
 # 51 1 |<O|XDIPLEN |i(15.088414)>| =     0.01582626
 # 53 1 |<O|XDIPLEN |i(15.117358)>| =     0.00605489
 # 55 1 |<O|XDIPLEN |i(15.123786)>| =     0.00924680
 # 57 1 |<O|XDIPLEN |i(15.140747)>| =     0.00641293
 # 59 1 |<O|XDIPLEN |i(15.219846)>| =     0.01226049
 # 61 1 |<O|XDIPLEN |i(15.271503)>| =     0.01229432
 # 63 1 |<O|YDIPLEN |i(14.819133)>| =     0.00622083
 # 65 1 |<O|YDIPLEN |i(14.878924)>| =     0.03430284
 # 67 1 |<O|YDIPLEN |i(14.912631)>| =     0.02607666
 # 69 1 |<O|YDIPLEN |i(14.950685)>| =     0.03014278
 # 71 1 |<O|YDIPLEN |i(15.011819)>| =     0.00199134
 # 73 1 |<O|YDIPLEN |i(15.022649)>| =     0.01553593
 # 75 1 |<O|YDIPLEN |i(15.025983)>| =     0.00440041
 # 77 1 |<O|YDIPLEN |i(15.067325)>| =     0.02066835
 # 79 1 |<O|YDIPLEN |i(15.083756)>| =     0.00486944
 # 81 1 |<O|YDIPLEN |i(15.088414)>| =     0.01911301
 # 83 1 |<O|YDIPLEN |i(15.117358)>| =     0.00087104
 # 85 1 |<O|YDIPLEN |i(15.123786)>| =     0.00199379
 # 87 1 |<O|YDIPLEN |i(15.140747)>| =     0.00123174
 # 89 1 |<O|YDIPLEN |i(15.219846)>| =     0.00413489
 # 91 1 |<O|YDIPLEN |i(15.271503)>| =     0.00673735
 # 93 1 |<O|ZDIPLEN |i(14.819133)>| =     0.02354514
 # 95 1 |<O|ZDIPLEN |i(14.878924)>| =     0.00292930
 # 97 1 |<O|ZDIPLEN |i(14.912631)>| =     0.04962739
 # 99 1 |<O|ZDIPLEN |i(14.950685)>| =     0.01716855
 #101 1 |<O|ZDIPLEN |i(15.011819)>| =     0.01924649
 #103 1 |<O|ZDIPLEN |i(15.022649)>| =     0.01131382
 #105 1 |<O|ZDIPLEN |i(15.025983)>| =     0.00157794
 #107 1 |<O|ZDIPLEN |i(15.067325)>| =     0.00320305
 #109 1 |<O|ZDIPLEN |i(15.083756)>| =     0.01435500
 #111 1 |<O|ZDIPLEN |i(15.088414)>| =     0.00321583
 #113 1 |<O|ZDIPLEN |i(15.117358)>| =     0.00399185
 #115 1 |<O|ZDIPLEN |i(15.123786)>| =     0.00478623
 #117 1 |<O|ZDIPLEN |i(15.140747)>| =     0.00861082
 #119 1 |<O|ZDIPLEN |i(15.219846)>| =     0.00409285
 #121 1 |<O|ZDIPLEN |i(15.271503)>| =     0.00371494

 THE_END   
