

     ************************************************************************
     *************** Dalton - An Electronic Structure Program ***************
     ************************************************************************

    This is output from DALTON release Dalton2017.alpha (2016)
         ( Web site: http://daltonprogram.org )

   ----------------------------------------------------------------------------

    NOTE:
     
    Dalton is an experimental code for the evaluation of molecular
    properties using (MC)SCF, DFT, CI, and CC wave functions.
    The authors accept no responsibility for the performance of
    the code or for the correctness of the results.
     
    The code (in whole or part) is provided under a licence and
    is not to be reproduced for further distribution without
    the written permission of the authors or their representatives.
     
    See the home page "http://daltonprogram.org" for further information.
     
    If results obtained with this code are published,
    the appropriate citations would be both of:
     
       K. Aidas, C. Angeli, K. L. Bak, V. Bakken, R. Bast,
       L. Boman, O. Christiansen, R. Cimiraglia, S. Coriani,
       P. Dahle, E. K. Dalskov, U. Ekstroem,
       T. Enevoldsen, J. J. Eriksen, P. Ettenhuber, B. Fernandez,
       L. Ferrighi, H. Fliegl, L. Frediani, K. Hald, A. Halkier,
       C. Haettig, H. Heiberg, T. Helgaker, A. C. Hennum,
       H. Hettema, E. Hjertenaes, S. Hoest, I.-M. Hoeyvik,
       M. F. Iozzi, B. Jansik, H. J. Aa. Jensen, D. Jonsson,
       P. Joergensen, J. Kauczor, S. Kirpekar,
       T. Kjaergaard, W. Klopper, S. Knecht, R. Kobayashi, H. Koch,
       J. Kongsted, A. Krapp, K. Kristensen, A. Ligabue,
       O. B. Lutnaes, J. I. Melo, K. V. Mikkelsen, R. H. Myhre,
       C. Neiss, C. B. Nielsen, P. Norman, J. Olsen,
       J. M. H. Olsen, A. Osted, M. J. Packer, F. Pawlowski,
       T. B. Pedersen, P. F. Provasi, S. Reine, Z. Rinkevicius,
       T. A. Ruden, K. Ruud, V. Rybkin, P. Salek, C. C. M. Samson,
       A. Sanchez de Meras, T. Saue, S. P. A. Sauer,
       B. Schimmelpfennig, K. Sneskov, A. H. Steindal,
       K. O. Sylvester-Hvid, P. R. Taylor, A. M. Teale,
       E. I. Tellgren, D. P. Tew, A. J. Thorvaldsen, L. Thoegersen,
       O. Vahtras, M. A. Watson, D. J. D. Wilson, M. Ziolkowski
       and H. Agren,
       "The Dalton quantum chemistry program system",
       WIREs Comput. Mol. Sci. 2014, 4:269–284 (doi: 10.1002/wcms.1172)
     
    and
     
       Dalton, a Molecular Electronic Structure Program,
       Release Dalton2017.alpha (2016), see http://daltonprogram.org
   ----------------------------------------------------------------------------

    Authors in alphabetical order (major contribution(s) in parenthesis):

  Kestutis Aidas,           Vilnius University,           Lithuania   (QM/MM)
  Celestino Angeli,         University of Ferrara,        Italy       (NEVPT2)
  Keld L. Bak,              UNI-C,                        Denmark     (AOSOPPA, non-adiabatic coupling, magnetic properties)
  Vebjoern Bakken,          University of Oslo,           Norway      (DALTON; geometry optimizer, symmetry detection)
  Radovan Bast,             UiT The Arctic U. of Norway,  Norway      (DALTON installation and execution frameworks)
  Pablo Baudin,             University of Valencia,       Spain       (Cholesky excitation energies)
  Linus Boman,              NTNU,                         Norway      (Cholesky decomposition and subsystems)
  Ove Christiansen,         Aarhus University,            Denmark     (CC module)
  Renzo Cimiraglia,         University of Ferrara,        Italy       (NEVPT2)
  Sonia Coriani,            University of Trieste,        Italy       (CC module, MCD in RESPONS)
  Janusz Cukras,            University of Trieste,        Italy       (MChD in RESPONS)
  Paal Dahle,               University of Oslo,           Norway      (Parallelization)
  Erik K. Dalskov,          UNI-C,                        Denmark     (SOPPA)
  Thomas Enevoldsen,        Univ. of Southern Denmark,    Denmark     (SOPPA)
  Janus J. Eriksen,         Aarhus University,            Denmark     (Polarizable embedding model, TDA)
  Rasmus Faber,             University of Copenhagen,     Denmark     (Vib.avg. NMR with SOPPA, parallel AO-SOPPA)
  Berta Fernandez,          U. of Santiago de Compostela, Spain       (doublet spin, ESR in RESPONS)
  Lara Ferrighi,            Aarhus University,            Denmark     (PCM Cubic response)
  Heike Fliegl,             University of Oslo,           Norway      (CCSD(R12))
  Luca Frediani,            UiT The Arctic U. of Norway,  Norway      (PCM)
  Bin Gao,                  UiT The Arctic U. of Norway,  Norway      (Gen1Int library)
  Christof Haettig,         Ruhr-University Bochum,       Germany     (CC module)
  Kasper Hald,              Aarhus University,            Denmark     (CC module)
  Asger Halkier,            Aarhus University,            Denmark     (CC module)
  Frederik Beyer Hansen,    University of Copenhagen,     Denmark     (Parallel AO-SOPPA)
  Erik D. Hedegaard,        Univ. of Southern Denmark,    Denmark     (Polarizable embedding model, QM/MM)
  Hanne Heiberg,            University of Oslo,           Norway      (geometry analysis, selected one-electron integrals)
  Trygve Helgaker,          University of Oslo,           Norway      (DALTON; ABACUS, ERI, DFT modules, London, and much more)
  Alf Christian Hennum,     University of Oslo,           Norway      (Parity violation)
  Hinne Hettema,            University of Auckland,       New Zealand (quadratic response in RESPONS; SIRIUS supersymmetry)
  Eirik Hjertenaes,         NTNU,                         Norway      (Cholesky decomposition)
  Pi A. B. Haase,           University of Copenhagen,     Denmark     (Triplet AO-SOPPA)
  Maria Francesca Iozzi,    University of Oslo,           Norway      (RPA)
  Brano Jansik              Technical Univ. of Ostrava    Czech Rep.  (DFT cubic response)
  Hans Joergen Aa. Jensen,  Univ. of Southern Denmark,    Denmark     (DALTON; SIRIUS, RESPONS, ABACUS modules, London, and much more)
  Dan Jonsson,              UiT The Arctic U. of Norway,  Norway      (cubic response in RESPONS module)
  Poul Joergensen,          Aarhus University,            Denmark     (RESPONS, ABACUS, and CC modules)
  Maciej Kaminski,          University of Warsaw,         Poland      (CPPh in RESPONS)
  Joanna Kauczor,           Linkoeping University,        Sweden      (Complex polarization propagator (CPP) module)
  Sheela Kirpekar,          Univ. of Southern Denmark,    Denmark     (Mass-velocity & Darwin integrals)
  Wim Klopper,              KIT Karlsruhe,                Germany     (R12 code in CC, SIRIUS, and ABACUS modules)
  Stefan Knecht,            ETH Zurich,                   Switzerland (Parallel CI and MCSCF)
  Rika Kobayashi,           Australian National Univ.,    Australia   (DIIS in CC, London in MCSCF)
  Henrik Koch,              NTNU,                         Norway      (CC module, Cholesky decomposition)
  Jacob Kongsted,           Univ. of Southern Denmark,    Denmark     (Polarizable embedding model, QM/MM)
  Andrea Ligabue,           University of Modena,         Italy       (CTOCD, AOSOPPA)
  Nanna H. List             Univ. of Southern Denmark,    Denmark     (Polarizable embedding model)
  Ola B. Lutnaes,           University of Oslo,           Norway      (DFT Hessian)
  Juan I. Melo,             University of Buenos Aires,   Argentina   (LRESC, Relativistic Effects on NMR Shieldings)
  Kurt V. Mikkelsen,        University of Copenhagen,     Denmark     (MC-SCRF and QM/MM)
  Rolf H. Myhre,            NTNU,                         Norway      (Cholesky, subsystems and ECC2)
  Christian Neiss,          Univ. Erlangen-Nuernberg,     Germany     (CCSD(R12))
  Christian B. Nielsen,     University of Copenhagen,     Denmark     (QM/MM)
  Patrick Norman,           Linkoeping University,        Sweden      (Cubic response and complex frequency response in RESPONS)
  Jeppe Olsen,              Aarhus University,            Denmark     (SIRIUS CI/density modules)
  Jogvan Magnus H. Olsen,   Univ. of Southern Denmark,    Denmark     (Polarizable embedding model, QM/MM)
  Anders Osted,             Copenhagen University,        Denmark     (QM/MM)
  Martin J. Packer,         University of Sheffield,      UK          (SOPPA)
  Filip Pawlowski,          Kazimierz Wielki University,  Poland      (CC3)
  Morten N. Pedersen,       Univ. of Southern Denmark,    Denmark     (Polarizable embedding model)
  Thomas B. Pedersen,       University of Oslo,           Norway      (Cholesky decomposition)
  Patricio F. Provasi,      University of Northeastern,   Argentina   (Analysis of coupling constants in localized orbitals)
  Zilvinas Rinkevicius,     KTH Stockholm,                Sweden      (open-shell DFT, ESR)
  Elias Rudberg,            KTH Stockholm,                Sweden      (DFT grid and basis info)
  Torgeir A. Ruden,         University of Oslo,           Norway      (Numerical derivatives in ABACUS)
  Kenneth Ruud,             UiT The Arctic U. of Norway,  Norway      (DALTON; ABACUS magnetic properties and much more)
  Pawel Salek,              KTH Stockholm,                Sweden      (DALTON; DFT code)
  Claire C. M. Samson       University of Karlsruhe       Germany     (Boys localization, r12 integrals in ERI)
  Alfredo Sanchez de Meras, University of Valencia,       Spain       (CC module, Cholesky decomposition)
  Trond Saue,               Paul Sabatier University,     France      (direct Fock matrix construction)
  Stephan P. A. Sauer,      University of Copenhagen,     Denmark     (SOPPA(CCSD), SOPPA prop., AOSOPPA, vibrational g-factors)
  Bernd Schimmelpfennig,    Forschungszentrum Karlsruhe,  Germany     (AMFI module)
  Kristian Sneskov,         Aarhus University,            Denmark     (Polarizable embedding model, QM/MM)
  Arnfinn H. Steindal,      UiT The Arctic U. of Norway,  Norway      (parallel QM/MM, Polarizable embedding model)
  Casper Steinmann,         Univ. of Southern Denmark,    Denmark     (QFIT, Polarizable embedding model)
  K. O. Sylvester-Hvid,     University of Copenhagen,     Denmark     (MC-SCRF)
  Peter R. Taylor,          VLSCI/Univ. of Melbourne,     Australia   (Symmetry handling ABACUS, integral transformation)
  Andrew M. Teale,          University of Nottingham,     England     (DFT-AC, DFT-D)
  David P. Tew,             University of Bristol,        England     (CCSD(R12))
  Olav Vahtras,             KTH Stockholm,                Sweden      (triplet response, spin-orbit, ESR, TDDFT, open-shell DFT)
  David J. Wilson,          La Trobe University,          Australia   (DFT Hessian and DFT magnetizabilities)
  Hans Agren,               KTH Stockholm,                Sweden      (SIRIUS module, RESPONS, MC-SCRF solvation model)
 --------------------------------------------------------------------------------

     Date and time (Linux)  : Sat Dec 22 19:01:05 2018
     Host name              : n-62-29-7                               

 * Work memory size             :  1280000000 =  9.537 gigabytes.

 * Directories for basis set searches:
   1) /zhome/37/3/129401/NH3NH4/CCSD/AIMD_SAMPLING/nh3_4h2o_nd
   2) /zhome/9a/4/124800/source/dalton/build-mlcc/basis


Compilation information
-----------------------

 Who compiled             | rfaber
 Host                     | hpclogin1
 System                   | Linux-2.6.32-696.1.1.el6.x86_64
 CMake generator          | Unix Makefiles
 Processor                | x86_64
 64-bit integers          | ON
 MPI                      | OFF
 Fortran compiler         | /opt/intel/2016update2/compilers_and_libraries_201
                          | 6.2.181/linux/bin/intel64/ifort
 Fortran compiler version | ifort (IFORT) 16.0.2 20160204
 C compiler               | /opt/intel/2016update2/compilers_and_libraries_201
                          | 6.2.181/linux/bin/intel64/icc
 C compiler version       | icc (ICC) 16.0.2 20160204
 C++ compiler             | /opt/intel/2016update2/compilers_and_libraries_201
                          | 6.2.181/linux/bin/intel64/icpc
 C++ compiler version     | icpc (ICC) 16.0.2 20160204
 Static linking           | OFF
 Last Git revision        | bb4d1599ca5680a9f3980451fc8bbefdba436d59
 Git branch               | mlcc
 Configuration time       | 2017-06-13 16:11:03.928841


   Content of the .dal input file
 ----------------------------------

**DALTON
.RUN WAVE FUNCTIONS
*QMMM
.QMMM
**INTEGRALS
.DIPLEN
**WAVE FUNCTIONS
.CC
*PRINT
!To check the origin of excit
.PRINTL
   0 11
*SCF INP
.THRESH
1.0D-7
*CC INP
.CCSD
.THRLEQ
 1.0D-9
.THRENR
 1.0D-10
.FROIMP
4
0
.PRINT
 1
.MAX IT
 1200
.MAXRED
 1200
.MXLRV
1199
*CCSLV
.CCMM
.MXSLIT
200
.MXINIT
4 5
*CCEXCI
.NCCEXC
 15
.CVSEPARA
1
1
*CCLRSD
.DIPOLE
**END OF DALTON INPUT


   Content of the .mol file
 ----------------------------

ATOMBASIS


Atomtypes=4 Charge=0 Nosymm Angstrom
   7.00000    1    Basis=6-311G**
N          0.000000        0.000000        0.000000
   1.00000    3    Basis=6-311G**
H          0.037759       -0.738004        0.673998
H          0.500174        0.788775        0.400848
H         -1.017427        0.251873        0.073407
   8.00000    4    Basis=6-311G**
O         -1.253998       -3.020603        1.782833
O          3.003939        1.169397        1.514933
O         -0.006963       -0.160354       -2.759236
O         -3.405845       -0.294428       -0.147489
   1.00000    8    Basis=6-311G**
H         -0.939142       -3.071961        2.680897
H         -2.223852       -3.307641        1.903987
H          2.770427        1.696735        2.316979
H          3.953387        1.017825        1.506305
H          0.754107        0.218706       -3.192717
H          0.110608       -0.255979       -1.762269
H         -3.659079        0.407884       -0.845832
H         -4.303824       -0.712310        0.136455


       *******************************************************************
       *********** Output from DALTON general input processing ***********
       *******************************************************************

 --------------------------------------------------------------------------------
   Overall default print level:    0
   Print level for DALTON.STAT:    1

    HERMIT 1- and 2-electron integral sections will be executed
    "Old" integral transformation used (limited to max 255 basis functions)
    Wave function sections will be executed (SIRIUS module)
 --------------------------------------------------------------------------------


 Changes of defaults for *QMMM  :
 --------------------------------

 +------------------+
 |  WORD: | CHANGE: |
 +------------------+
 |   QMMM |       T |
 +------------------+
 


   ****************************************************************************
   *************** Output of molecule and basis set information ***************
   ****************************************************************************


    The two title cards from your ".mol" input:
    ------------------------------------------------------------------------
 1:                                                                         
 2:                                                                         
    ------------------------------------------------------------------------

  Coordinates are entered in Angstrom and converted to atomic units.
          - Conversion factor : 1 bohr = 0.52917721 A

  Atomic type no.    1
  --------------------
  Nuclear charge:   7.00000
  Number of symmetry independent centers:    1
  Number of basis sets to read;    2
  The basis set is "6-311G**" from the basis set library.
  Basis set file used for this atomic type with Z =   7 :
     "/zhome/9a/4/124800/source/dalton/build-mlcc/basis/6-311G**"

  Info about the basis set file: your basis has no documentation.
  Basis set: 6-311G**                                                                        

  Atomic type no.    2
  --------------------
  Nuclear charge:   1.00000
  Number of symmetry independent centers:    3
  Number of basis sets to read;    2
  The basis set is "6-311G**" from the basis set library.
  Basis set file used for this atomic type with Z =   1 :
     "/zhome/9a/4/124800/source/dalton/build-mlcc/basis/6-311G**"

  Info about the basis set file: your basis has no documentation.
  Basis set: 6-311G**                                                                        

  Atomic type no.    3
  --------------------
  Nuclear charge:   8.00000
  Number of symmetry independent centers:    4
  Number of basis sets to read;    2
  The basis set is "6-311G**" from the basis set library.
  Basis set file used for this atomic type with Z =   8 :
     "/zhome/9a/4/124800/source/dalton/build-mlcc/basis/6-311G**"

  Info about the basis set file: your basis has no documentation.
  Basis set: 6-311G**                                                                        

  Atomic type no.    4
  --------------------
  Nuclear charge:   1.00000
  Number of symmetry independent centers:    8
  Number of basis sets to read;    2
  The basis set is "6-311G**" from the basis set library.
  Basis set file used for this atomic type with Z =   1 :
     "/zhome/9a/4/124800/source/dalton/build-mlcc/basis/6-311G**"

  Info about the basis set file: your basis has no documentation.
  Basis set: 6-311G**                                                                        


                         SYMGRP: Point group information
                         -------------------------------

@    Point group: C1 


                                 Isotopic Masses
                                 ---------------

                           N          14.003074
                           H           1.007825
                           H           1.007825
                           H           1.007825
                           O          15.994915
                           O          15.994915
                           O          15.994915
                           O          15.994915
                           H           1.007825
                           H           1.007825
                           H           1.007825
                           H           1.007825
                           H           1.007825
                           H           1.007825
                           H           1.007825
                           H           1.007825

                       Total mass:    89.068809 amu
                       Natural abundance:  98.514 %

 Center-of-mass coordinates (a.u.):   -0.650194   -0.861753    0.215924


  Atoms and basis sets
  --------------------

  Number of atom types :    4
  Total number of atoms:   16

  label    atoms   charge   prim   cont     basis
  ----------------------------------------------------------------------
  N           1    7.0000    31    18      [11s5p1d|4s3p1d]                                   
  H           3    1.0000     8     6      [5s1p|3s1p]                                        
  O           4    8.0000    31    18      [11s5p1d|4s3p1d]                                   
  H           8    1.0000     8     6      [5s1p|3s1p]                                        
  ----------------------------------------------------------------------
  total:     16   50.0000   243   156
  ----------------------------------------------------------------------
  Spherical harmonic basis used.

  Threshold for neglecting AO integrals:  1.00D-12


  Cartesian Coordinates (a.u.)
  ----------------------------

  Total number of coordinates:   48
  N       :     1  x   0.0000000000    2  y   0.0000000000    3  z   0.0000000000
  H       :     4  x   0.0713541688    5  y  -1.3946254391    6  z   1.2736716288
  H       :     7  x   0.9451918748    8  y   1.4905687242    9  z   0.7574929378
  H       :    10  x  -1.9226583822   11  y   0.4759709883   12  z   0.1387191257
  O       :    13  x  -2.3697127813   14  y  -5.7081124023   15  z   3.3690660966
  O       :    16  x   5.6766220062   17  y   2.2098400614   18  z   2.8628084677
  O       :    19  x  -0.0131581630   20  y  -0.3030251430   21  z  -5.2142003542
  O       :    22  x  -6.4361142742   23  y  -0.5563882835   24  z  -0.2787138164
  H       :    25  x  -1.7747211725   26  y  -5.8051649567   27  z   5.0661610993
  H       :    28  x  -4.2024712225   29  y  -6.2505356098   30  z   3.5980139755
  H       :    31  x   5.2353482793   32  y   3.2063644567   33  z   4.3784557474
  H       :    34  x   7.4708186961   35  y   1.9234104932   36  z   2.8465039107
  H       :    37  x   1.4250556989   38  y   0.4132944419   39  z  -6.0333607246
  H       :    40  x   0.2090188272   41  y  -0.4837302037   42  z  -3.3302057686
  H       :    43  x  -6.9146571797   44  y   0.7707890508   45  z  -1.5983908278
  H       :    46  x  -8.1330486502   47  y  -1.3460708161   48  z   0.2578625784


   Interatomic separations (in Angstrom):
   --------------------------------------

            N           H           H           H           O           O     
            ------      ------      ------      ------      ------      ------
 N     :    0.000000
 H     :    1.000174    0.000000
 H     :    1.016375    1.618485    0.000000
 H     :    1.050708    1.566520    1.642740    0.000000
 O     :    3.724922    2.847527    4.415695    3.699622    0.000000
 O     :    3.561764    3.625407    2.766749    4.369351    5.979791    0.000000
 O     :    2.763900    3.481778    3.338288    3.035595    5.510582    5.394654
 O     :    3.421728    3.567914    4.090353    2.460037    3.973489    6.781723
 H     :    4.184034    3.229448    4.709091    4.225282    0.953043    5.907324
 H     :    4.417145    3.637416    5.143964    4.180505    1.018669    6.893840
 H     :    3.990309    4.011834    3.106445    4.633474    6.223712    0.987872
 H     :    4.351344    4.371248    3.633067    5.229615    6.595622    0.961509
 H     :    3.287849    4.047213    3.647351    3.715777    6.267512    5.303539
 H     :    1.784195    2.484563    2.433587    2.213613    4.698196    4.598164
 H     :    3.777653    4.158071    4.358747    2.801368    4.944575    7.109777
 H     :    4.364505    4.374809    5.039996    3.425497    4.164158    7.671012

            O           O           H           H           H           H     
            ------      ------      ------      ------      ------      ------
 O     :    0.000000
 O     :    4.288543    0.000000
 H     :    6.240309    4.668949    0.000000
 H     :    6.046955    3.832116    1.519741    0.000000
 H     :    6.077058    6.941518    6.052586    7.082172    0.000000
 H     :    5.938629    7.656065    6.484046    7.551562    1.586665    0.000000
 H     :    0.954369    5.180919    6.942256    6.876028    6.050361    5.740626
 H     :    1.008420    3.869681    5.364089    5.310723    5.246713    5.203182
 H     :    4.161966    1.022278    5.652008    4.840094    7.280320    7.990883
 H     :    5.210825    1.030347    4.833552    3.766457    7.784806    8.547011

            H           H           H           H     
            ------      ------      ------      ------
 H     :    0.000000
 H     :    1.638780    0.000000
 H     :    5.001986    3.935875    0.000000
 H     :    6.126405    4.827070    1.623397    0.000000


  Max    interatomic separation is    8.5470 Angstrom (   16.1515 Bohr)
  between atoms   16 and   12, "H     " and "H     ".

  Min HX interatomic separation is    0.9530 Angstrom (    1.8010 Bohr)

  Min YX interatomic separation is    2.7639 Angstrom (    5.2230 Bohr)


  Bond distances (Angstrom):
  --------------------------

                  atom 1     atom 2       distance
                  ------     ------       --------
  bond distance:  H          N            1.000174
  bond distance:  H          N            1.016375
  bond distance:  H          N            1.050708
  bond distance:  H          O            0.953043
  bond distance:  H          O            1.018669
  bond distance:  H          O            0.987872
  bond distance:  H          O            0.961509
  bond distance:  H          O            0.954369
  bond distance:  H          O            1.008420
  bond distance:  H          O            1.022278
  bond distance:  H          O            1.030347


  Bond angles (degrees):
  ----------------------

                  atom 1     atom 2     atom 3         angle
                  ------     ------     ------         -----
  bond angle:     H          N          H            106.756
  bond angle:     H          N          H             99.576
  bond angle:     H          N          H            105.244
  bond angle:     H          O          H            100.794
  bond angle:     H          O          H            108.956
  bond angle:     H          O          H            113.187
  bond angle:     H          O          H            104.536




 Principal moments of inertia (u*A**2) and principal axes
 --------------------------------------------------------

   IA     350.492243          0.907954    0.402685    0.116036
   IB     555.213940          0.072033   -0.422732    0.903387
   IC     749.005646         -0.412833    0.811876    0.412828


 Rotational constants
 --------------------

               A                   B                   C

           1441.9121            910.2419            674.7332 MHz
            0.048097            0.030362            0.022507 cm-1


@  Nuclear repulsion energy :  170.477054880673 Hartree


                     .---------------------------------------.
                     | Starting in Integral Section (HERMIT) |
                     `---------------------------------------'



 ***************************************************************************************
 ****************** Output from **INTEGRALS input processing (HERMIT) ******************
 ***************************************************************************************



    *************************************************************************
    ****************** Output from HERMIT input processing ******************
    *************************************************************************


 Default print level:        1

 * Nuclear model: Point charge

 Calculation of one- and two-electron Hamiltonian integrals.

 The following one-electron property integrals are calculated as requested:
          - overlap integrals
          - dipole length integrals

 Center of mass  (bohr):     -0.650193933878     -0.861753020601      0.215923900421
 Operator center (bohr):      0.000000000000      0.000000000000      0.000000000000
 Gauge origin    (bohr):      0.000000000000      0.000000000000      0.000000000000
 Dipole origin   (bohr):      0.000000000000      0.000000000000      0.000000000000
 
  *********************************** 
  QMMM electrostatic potential: 
  Multipole order                                    0
  Isotropic polarization  
  *********************************** 
 
  ---------------- 
  QMMM information 
  ---------------- 
 
  MM coordinates in au 
  -------------------- 
     1    -10.855324      2.775462      6.488720
     2     -9.152085      3.637802      6.595127
     3    -11.913701      4.330438      6.295271
     4     -7.219001    -11.435460      0.267861
     5     -5.423731    -12.059055      0.338594
     6     -7.162466    -10.167677      1.597773
     7     -6.643376      5.201571      6.872955
     8     -7.082380      6.982750      7.536876
     9     -5.586890      4.250712      8.057677
    10     -5.625924     -5.462078     -3.587860
    11     -6.178416     -4.092752     -2.425205
    12     -5.398534     -4.575550     -5.229787
    13      1.361283     -5.302158     -9.290752
    14      0.066025     -3.992256     -9.317818
    15      1.690965     -5.476678     -7.398556
    16     11.238626      1.697231     11.396105
    17     10.608592      3.444478     11.792993
    18     11.740574      1.811495      9.557093
    19      4.660958     -8.878610      8.481675
    20      2.848913     -8.682579      9.189523
    21      4.344461     -9.525737      6.699654
    22      7.230612     -4.512766      7.666626
    23      7.178064     -3.592407      9.376762
    24      6.503330     -6.269911      8.026270
    25     -7.994713      0.057484     -9.811035
    26     -9.390151      0.978154    -10.492476
    27     -8.186760     -1.569988    -10.489409
    28     -4.815589     -6.376766     11.324433
    29     -4.058421     -4.946320     12.204082
    30     -5.876103     -7.269472     12.599201
    31      2.810134     -5.644671     -4.395488
    32      4.008011     -6.891072     -5.270106
    33      1.653221     -6.717950     -3.197163
    34     -4.256325      2.411188     10.266109
    35     -3.784116      3.178708     11.855473
    36     -5.787723      1.541429     10.734332
    37    -10.818423     -1.928488     -5.551414
    38     -9.695935     -0.767690     -6.584730
    39    -10.754414     -1.393269     -3.785841
    40    -10.464570      7.772266     -5.527489
    41    -11.172299      9.314711     -4.593654
    42     -9.074121      7.985586     -6.840206
    43    -10.166687      7.570984      2.439041
    44     -9.397005      9.086771      1.927137
    45     -9.004708      6.359628      3.055421
    46     -0.494728     -1.509039     10.280456
    47     -0.348987     -2.630444      8.854125
    48     -1.530642     -0.021743      9.713124
    49     -3.478731     11.552145      6.200384
    50     -3.094134     10.205084      5.034546
    51     -4.752363     10.834287      7.312182
    52     -9.505132      3.279147     -2.734815
    53     -9.803963      5.077333     -3.427540
    54    -10.068652      3.458080     -0.912456
    55     -6.805497     -7.901397      4.436570
    56     -8.188144     -6.801207      5.262917
    57     -5.939455     -8.797367      5.827012
    58      5.069772    -10.418332      3.333843
    59      4.496480    -11.983806      2.380792
    60      5.117312     -8.921263      2.168557
    61     11.139002    -10.870164      3.771062
    62      9.267024    -11.252966      3.648439
    63     11.295772    -10.339355      5.528885
    64      3.276110      6.146306     11.074560
    65      3.523578      7.392361     12.421081
    66      3.551982      4.542354     12.014556
    67    -11.361935     -9.872356      9.272276
    68    -11.139297     -8.221459     10.023279
    69    -12.841218    -10.699903     10.197484
    70      8.497949      7.202308     -0.243104
    71      8.892371      8.655193     -1.395442
    72      9.932193      6.922768      1.009505
    73      4.891743     -2.733277      3.417798
    74      5.661147     -3.145757      5.151242
    75      5.038667     -0.961049      3.270736
    76     -2.511185      8.096430     11.086961
    77     -2.166165      8.537199      9.357621
    78     -1.203311      6.801177     11.526146
    79     -3.825091     -2.643704     -7.878724
    80     -4.931399     -1.400775     -8.836643
    81     -2.343687     -1.837093     -7.175215
    82     10.841495     -6.517461     -6.298856
    83     12.235215     -7.456572     -5.536172
    84     11.418878     -4.816481     -6.021278
    85      9.276962      7.296471      6.474149
    86      9.141554      8.455702      7.983326
    87     10.161418      8.352030      5.190059
    88      3.181773      1.479725    -10.138195
    89      3.052533      0.065358    -11.455433
    90      3.923062      0.868477     -8.510915
    91      0.206742    -10.608998     -9.829675
    92      0.174055     -8.745603     -9.808417
    93     -0.635267    -11.588426    -11.167601
    94      9.567130      5.888154     -9.129768
    95      8.962151      4.642864     -7.798429
    96     10.817259      6.867743     -8.187938
    97      5.524240     -1.303907     -6.180070
    98      4.907802     -2.864526     -5.187410
    99      6.587215     -0.208828     -5.134539
   100      7.877350     10.528732     10.625514
   101      6.426388     11.324758      9.928542
   102      7.332716      9.343804     11.946877
   103     -0.698273     -7.915768     -1.667313
   104     -0.756896     -7.007679      0.001712
   105     -2.172646     -7.426786     -2.718016
   106     -7.387176     -1.603867      8.593607
   107     -6.214007     -1.494341      7.111249
   108     -7.032620     -3.360610      9.435934
   109      6.133828     -8.996867     -5.974813
   110      7.743183     -8.234332     -6.527942
   111      5.880661    -10.360998     -7.213704
   112     -1.653835      7.148301      4.098071
   113     -2.850472      5.751795      4.136762
   114     -0.220631      6.448106      5.022953
   115     -0.897726     -8.054419      8.763208
   116     -2.238566     -7.885266     10.092509
   117     -1.267001     -9.713801      7.968340
   118     -1.186175      3.645365     -8.325016
   119     -1.695655      2.499854     -6.923511
   120      0.337738      2.844429     -9.074839
   121     -5.799218    -10.861137     -9.718236
   122     -4.004649    -11.089414     -9.079223
   123     -6.399924    -10.631363     -7.928240
   124      4.042164      9.914367     -8.460950
   125      3.417585      8.722520     -7.084179
   126      2.607448     11.138694     -8.828413
   127     -6.396320      7.116421     -8.776306
   128     -5.190724      8.540048     -9.016305
   129     -5.342666      5.624600     -8.185918
   130      2.785109      5.705482     -5.045926
   131      0.965888      5.373072     -5.089063
   132      3.307705      6.370444     -3.357645
   133      4.031069      6.449499      5.810745
   134      3.518156      6.262159      7.622201
   135      5.770691      6.992484      5.844551
   136      9.895897     11.019785     -3.368072
   137     10.558242     12.597916     -2.417566
   138      8.352142     11.702549     -4.127986
   139      3.557128      7.681179      0.340657
   140      5.477362      7.445020      0.319806
   141      3.177979      7.036014      2.044104
   142      7.925602     -2.373162    -11.283789
   143      7.253884     -2.201809     -9.559321
   144      8.962897     -0.899602    -11.631104
   145      8.267009      2.706470     -4.257816
   146      9.974277      2.116433     -3.858190
   147      7.831250      3.769626     -2.864528
   148     -7.702286      9.839723      9.385988
   149     -7.035910      9.512040     11.113591
   150     -8.720563     11.431362      9.507936
   151     -8.006188    -10.077076     -4.735030
   152     -7.253699     -8.380984     -4.447153
   153     -8.018365    -10.728472     -2.968900
   154    -10.912796     -4.970683      5.464976
   155    -10.241654     -3.423683      6.455847
   156    -12.344010     -5.479469      6.468372
   157     10.779355      1.626650      1.924250
   158     11.097258     -0.074580      1.264091
   159     11.544940      1.875411      3.541951
   160      6.205129     -6.205715      0.077403
   161      5.910160     -4.753510      1.302524
   162      5.347373     -5.710917     -1.362587
   163     -2.352575     10.520066     -0.264424
   164     -1.524104      8.897575     -0.827494
   165     -1.440871     11.918654     -1.127316
   166     -4.635876     -0.523346      4.761845
   167     -5.533885      0.112537      3.226945
   168     -3.588127     -1.961710      4.128192
   169     11.236094     -8.289478     -0.408993
   170      9.511672     -7.742321     -0.282151
   171     11.459547     -9.329508      1.232693
   172    -11.065811     -3.173485      0.363901
   173    -11.544908     -3.423211      2.205709
   174    -10.803086     -4.935056     -0.223560
   175    -10.445367     -4.788698    -11.225247
   176    -11.028784     -5.636382     -9.649174
   177    -11.962063     -3.677260    -11.301500
 
  MM charges 
  ---------- 
     1     -0.674440
     2      0.337220
     3      0.337220
     4     -0.674440
     5      0.337220
     6      0.337220
     7     -0.674440
     8      0.337220
     9      0.337220
    10     -0.674440
    11      0.337220
    12      0.337220
    13     -0.674440
    14      0.337220
    15      0.337220
    16     -0.674440
    17      0.337220
    18      0.337220
    19     -0.674440
    20      0.337220
    21      0.337220
    22     -0.674440
    23      0.337220
    24      0.337220
    25     -0.674440
    26      0.337220
    27      0.337220
    28     -0.674440
    29      0.337220
    30      0.337220
    31     -0.674440
    32      0.337220
    33      0.337220
    34     -0.674440
    35      0.337220
    36      0.337220
    37     -0.674440
    38      0.337220
    39      0.337220
    40     -0.674440
    41      0.337220
    42      0.337220
    43     -0.674440
    44      0.337220
    45      0.337220
    46     -0.674440
    47      0.337220
    48      0.337220
    49     -0.674440
    50      0.337220
    51      0.337220
    52     -0.674440
    53      0.337220
    54      0.337220
    55     -0.674440
    56      0.337220
    57      0.337220
    58     -0.674440
    59      0.337220
    60      0.337220
    61     -0.674440
    62      0.337220
    63      0.337220
    64     -0.674440
    65      0.337220
    66      0.337220
    67     -0.674440
    68      0.337220
    69      0.337220
    70     -0.674440
    71      0.337220
    72      0.337220
    73     -0.674440
    74      0.337220
    75      0.337220
    76     -0.674440
    77      0.337220
    78      0.337220
    79     -0.674440
    80      0.337220
    81      0.337220
    82     -0.674440
    83      0.337220
    84      0.337220
    85     -0.674440
    86      0.337220
    87      0.337220
    88     -0.674440
    89      0.337220
    90      0.337220
    91     -0.674440
    92      0.337220
    93      0.337220
    94     -0.674440
    95      0.337220
    96      0.337220
    97     -0.674440
    98      0.337220
    99      0.337220
   100     -0.674440
   101      0.337220
   102      0.337220
   103     -0.674440
   104      0.337220
   105      0.337220
   106     -0.674440
   107      0.337220
   108      0.337220
   109     -0.674440
   110      0.337220
   111      0.337220
   112     -0.674440
   113      0.337220
   114      0.337220
   115     -0.674440
   116      0.337220
   117      0.337220
   118     -0.674440
   119      0.337220
   120      0.337220
   121     -0.674440
   122      0.337220
   123      0.337220
   124     -0.674440
   125      0.337220
   126      0.337220
   127     -0.674440
   128      0.337220
   129      0.337220
   130     -0.674440
   131      0.337220
   132      0.337220
   133     -0.674440
   134      0.337220
   135      0.337220
   136     -0.674440
   137      0.337220
   138      0.337220
   139     -0.674440
   140      0.337220
   141      0.337220
   142     -0.674440
   143      0.337220
   144      0.337220
   145     -0.674440
   146      0.337220
   147      0.337220
   148     -0.674440
   149      0.337220
   150      0.337220
   151     -0.674440
   152      0.337220
   153      0.337220
   154     -0.674440
   155      0.337220
   156      0.337220
   157     -0.674440
   158      0.337220
   159      0.337220
   160     -0.674440
   161      0.337220
   162      0.337220
   163     -0.674440
   164      0.337220
   165      0.337220
   166     -0.674440
   167      0.337220
   168      0.337220
   169     -0.674440
   170      0.337220
   171      0.337220
   172     -0.674440
   173      0.337220
   174      0.337220
   175     -0.674440
   176      0.337220
   177      0.337220
 
  MM isotropic polarizabilities in au 
  ----------------------------------- 
     1      5.739350
     2      2.308390
     3      2.308390
     4      5.739350
     5      2.308390
     6      2.308390
     7      5.739350
     8      2.308390
     9      2.308390
    10      5.739350
    11      2.308390
    12      2.308390
    13      5.739350
    14      2.308390
    15      2.308390
    16      5.739350
    17      2.308390
    18      2.308390
    19      5.739350
    20      2.308390
    21      2.308390
    22      5.739350
    23      2.308390
    24      2.308390
    25      5.739350
    26      2.308390
    27      2.308390
    28      5.739350
    29      2.308390
    30      2.308390
    31      5.739350
    32      2.308390
    33      2.308390
    34      5.739350
    35      2.308390
    36      2.308390
    37      5.739350
    38      2.308390
    39      2.308390
    40      5.739350
    41      2.308390
    42      2.308390
    43      5.739350
    44      2.308390
    45      2.308390
    46      5.739350
    47      2.308390
    48      2.308390
    49      5.739350
    50      2.308390
    51      2.308390
    52      5.739350
    53      2.308390
    54      2.308390
    55      5.739350
    56      2.308390
    57      2.308390
    58      5.739350
    59      2.308390
    60      2.308390
    61      5.739350
    62      2.308390
    63      2.308390
    64      5.739350
    65      2.308390
    66      2.308390
    67      5.739350
    68      2.308390
    69      2.308390
    70      5.739350
    71      2.308390
    72      2.308390
    73      5.739350
    74      2.308390
    75      2.308390
    76      5.739350
    77      2.308390
    78      2.308390
    79      5.739350
    80      2.308390
    81      2.308390
    82      5.739350
    83      2.308390
    84      2.308390
    85      5.739350
    86      2.308390
    87      2.308390
    88      5.739350
    89      2.308390
    90      2.308390
    91      5.739350
    92      2.308390
    93      2.308390
    94      5.739350
    95      2.308390
    96      2.308390
    97      5.739350
    98      2.308390
    99      2.308390
   100      5.739350
   101      2.308390
   102      2.308390
   103      5.739350
   104      2.308390
   105      2.308390
   106      5.739350
   107      2.308390
   108      2.308390
   109      5.739350
   110      2.308390
   111      2.308390
   112      5.739350
   113      2.308390
   114      2.308390
   115      5.739350
   116      2.308390
   117      2.308390
   118      5.739350
   119      2.308390
   120      2.308390
   121      5.739350
   122      2.308390
   123      2.308390
   124      5.739350
   125      2.308390
   126      2.308390
   127      5.739350
   128      2.308390
   129      2.308390
   130      5.739350
   131      2.308390
   132      2.308390
   133      5.739350
   134      2.308390
   135      2.308390
   136      5.739350
   137      2.308390
   138      2.308390
   139      5.739350
   140      2.308390
   141      2.308390
   142      5.739350
   143      2.308390
   144      2.308390
   145      5.739350
   146      2.308390
   147      2.308390
   148      5.739350
   149      2.308390
   150      2.308390
   151      5.739350
   152      2.308390
   153      2.308390
   154      5.739350
   155      2.308390
   156      2.308390
   157      5.739350
   158      2.308390
   159      2.308390
   160      5.739350
   161      2.308390
   162      2.308390
   163      5.739350
   164      2.308390
   165      2.308390
   166      5.739350
   167      2.308390
   168      2.308390
   169      5.739350
   170      2.308390
   171      2.308390
   172      5.739350
   173      2.308390
   174      2.308390
   175      5.739350
   176      2.308390
   177      2.308390


     ************************************************************************
     ************************** Output from HERINT **************************
     ************************************************************************



                      Nuclear contribution to dipole moments
                      --------------------------------------

                 au               Debye          C m (/(10**-30)

      x    -32.72967476       -83.19052997      -277.49373860
      y    -41.86121501      -106.40058869      -354.91416095
      z     13.26660683        33.72034893       112.47897681


  Time used in HUCKEL     is       0.89 seconds
  Time used in OVERLAP    is       0.23 seconds
  Time used in POPOVLP    is       0.33 seconds
  Time used in DIPLEN     is       0.33 seconds
  Time used in QUADRUP    is       0.37 seconds
  Time used in KINENE     is       0.18 seconds

 Threshold for neglecting two-electron integrals:  1.00D-12
 HERMIT - Number of two-electron integrals written:    21854571 ( 29.1% )
 HERMIT - Megabytes written:                            250.250

  Time used in TWOINT     is      11.62 seconds
  Total CPU  time used in HERMIT:  13.99 seconds
  Total wall time used in HERMIT:   4.63 seconds


                        .----------------------------------.
                        | End of Integral Section (HERMIT) |
                        `----------------------------------'



                   .--------------------------------------------.
                   | Starting in Wave Function Section (SIRIUS) |
                   `--------------------------------------------'

NCCEXCI for singlet:   15
 CCSD_INPUT: core-val requested
 Requested number of core orbs per sym
                     1
 Indices of requested core orbs
                     1

 *** Output from Huckel module :

     Using EWMO model:          T
     Using EHT  model:          F
     Number of Huckel orbitals each symmetry:   36

 EWMO - Energy Weighted Maximum Overlap - is a Huckel type method,
        which normally is better than Extended Huckel Theory.
 Reference: Linderberg and Ohrn, Propagators in Quantum Chemistry (Wiley, 1973)

 Huckel EWMO eigenvalues for symmetry :  1
          -20.684703     -20.684630     -20.684567     -20.683997     -15.673860
           -1.676969      -1.597747      -1.597537      -1.568553      -1.486087
           -0.820527      -0.788272      -0.783008      -0.768914      -0.740631
           -0.712638      -0.688654      -0.687261      -0.674517      -0.649850
           -0.616723      -0.616060      -0.614837      -0.610049      -0.521985
           -0.258891      -0.241874      -0.240530      -0.227298      -0.190260
           -0.179738      -0.175880      -0.172452      -0.159742      -0.150943
           -0.145615

 **********************************************************************
 *SIRIUS* a direct, restricted step, second order MCSCF program       *
 **********************************************************************

 
     Date and time (Linux)  : Sat Dec 22 19:01:10 2018
     Host name              : n-62-29-7                               

 Title lines from ".mol" input file:
                                                                             
                                                                             

 Print level on unit LUPRI =   2 is   0
 Print level on unit LUW4  =   2 is  11

@    (Integral direct) CC calculation.

@    This is a combination run starting with
@              a restricted, closed shell Hartree-Fock calculation


 Initial molecular orbitals are obtained according to
 ".MOSTART EWMO  " input option

@    QM part is embedded in an environment :

@         Model: QMMM

     Wave function specification
     ============================

     For the specification of the Coupled Cluster: see later.

@    Wave function type        --- CC ---
@    Number of closed shell electrons          50
@    Number of electrons in active shells       0
@    Total charge of the molecule               0

@    Spin multiplicity and 2 M_S                1         0
@    Total number of symmetries                 1 (point group: C1 )
@    Reference state symmetry                   1 (irrep name : A  )

     Orbital specifications
     ======================
@    Abelian symmetry species          All |    1
@                                          |  A  
                                       --- |  ---
@    Occupied SCF orbitals              25 |   25
@    Secondary orbitals                131 |  131
@    Total number of orbitals          156 |  156
@    Number of basis functions         156 |  156

     Optimization information
     ========================
@    Number of configurations                 1
@    Number of orbital rotations           3275
     ------------------------------------------
@    Total number of variables             3276

     Maximum number of Fock   iterations      0
     Maximum number of DIIS   iterations     60
     Maximum number of QC-SCF iterations     60
     Threshold for SCF convergence     1.00D-07


 Changes of defaults for CC:
 ---------------------------


 -Implicit frozen core calculation
 -Excitation energies calculated
 -One-photon absorption strengths will be calculated
 -Oscillator strengths calculated
  
* Read MO coefficients from SIRIUS.RST with label "NEWORB  " and header info: 22Dec18  REORTHO 


 ***********************************************
 ***** DIIS acceleration of SCF iterations *****
 ***********************************************

 C1-DIIS algorithm; max error vectors =    8
 -----------------------------------------------------------------------------

 *** DIIS iteration number    1
 RDSUPM called. NFMAT, ISYMDM(1:NFMAT)                     1
                     1

Calculating AOSUPINT
     (Precalculated two-electron integrals are transformed to P-supermatrix elements.
      Threshold for discarding integrals :  1.00D-12 )
  CPU  time used in FORMSUP    is   6.82 seconds
  WALL time used in FORMSUP    is   5.79 seconds

 ITDIIS, energy, error norm, change in energy, scr.thr., difden:
@ DIIS iter.   1    -359.841044579        3.82086D+00   -3.60D+02  -20    F

 (DIIS_RED) Control Parameters C2DIIS =         F NEVC =    1


 (DIIS_RED) B matrix:

               Column   1
       1      14.59897751
    ==== End of matrix output ====

 DIIS C vector; C2DIIS = F, LAMBDA = -1.46D+01
    1.000000
* Read MO coefficients from SIRIUS.RST with label "NEWORB  " and header info: 22Dec18  DIIS   1
      Virial theorem: -V/T =      1.998476
@      MULPOP N      -0.36; H       0.17; H       0.16; H       0.16; O      -0.64; O      -0.63; O      -0.82; O      -0.61; H       0.33; H       0.32; 
@             H       0.33; H       0.32; H       0.32; H       0.32; H       0.32; H       0.31; 
   1  Level shift: doubly occupied orbital energies shifted by -2.00D-01

 DIIS Fock eigenvalues in symmetry 1
      -20.74184      -20.74100      -20.71487      -20.53470      -16.00242
       -1.57540       -1.57052       -1.52523       -1.46165       -1.44647
       -0.96114       -0.95732       -0.94467       -0.93850       -0.90376
       -0.87711       -0.81587       -0.80425       -0.78417       -0.77357
       -0.77135       -0.75990       -0.74839       -0.68763       -0.64423
        0.08446        0.11545        0.13675        0.16648        0.21897
        0.22194        0.22682        0.23543        0.25343        0.26982
        0.35797        0.42332        0.43821        0.48043        0.52236
        0.52862        0.54281        0.55237        0.55777        0.57835
        0.61625        0.62890        0.79646        0.85550        0.86992
        0.92863        0.93399        0.96047        0.99867        1.02161
        1.02624        1.04429        1.05217        1.07204        1.09098
        1.11069        1.15675        1.19510        1.22395        1.26240
        1.30103        1.31160        1.36632        1.37227        1.42114
        1.43929        1.45539        1.46131        1.48845        1.50749
        1.56369        1.62332        1.64895        1.66234        1.66378
        1.72179        1.74241        1.74780        1.81044        1.81476
        1.85141        1.86216        1.93458        1.94770        2.02810
        2.06415        2.12021        2.14549        2.18396        2.26463
        2.27579        2.29005        2.33511        2.40834        2.50551
        2.51324        2.54782        2.56271        2.61526        2.65358
        2.68528        2.70881        2.73122        2.77012        2.77450
        2.80747        2.82185        2.91336        3.00264        3.29066
        3.34264        3.39047        3.39310        3.40251        3.44271
        3.46717        3.48712        3.49479        3.59088        3.61836
        3.62237        3.63972        3.69716        3.90996        3.93858
        3.97470        4.10796        4.16522        4.16715        4.19313
        4.24598        4.46651        4.91945        5.04278        5.27857
        5.29011        5.30096        5.45634        5.68986        5.71664
        5.72916        5.77557        5.97651        6.03416        6.11765
        6.32601       36.76358       51.52004       51.52617       51.53830
       51.77057
 Time used in FCKEIG, thr_jaco:   4.21D-01  4.20D-02  1.67D-04
 CPU and wall times used in FCKEIG, THR_FCKEIG:   4.21D-01  4.20D-02  3.82D-02
 -----------------------------------------------------------------------------

 *** DIIS iteration number    2
 RDSUPM called. NFMAT, ISYMDM(1:NFMAT)                     1
                     1

 ITDIIS, energy, error norm, change in energy, scr.thr., difden:
@ DIIS iter.   2    -360.637890768        9.18531D-01   -7.97D-01  -20    F

 (DIIS_RED) Control Parameters C2DIIS =         F NEVC =    2


 (DIIS_RED) B matrix:

               Column   1     Column   2
       1      14.59897751
       2       0.84827812     0.84369950
    ==== End of matrix output ====

 DIIS C vector; C2DIIS = F, LAMBDA = -8.44D-01
   -0.000333    1.000333
* Read MO coefficients from SIRIUS.RST with label "NEWORB  " and header info: 22Dec18  DIIS   2
      Virial theorem: -V/T =      2.003864
@      MULPOP N      -0.63; H       0.22; H       0.23; H       0.21; O      -0.55; O      -0.56; O      -0.65; O      -0.60; H       0.25; H       0.31; 
@             H       0.28; H       0.29; H       0.25; H       0.34; H       0.32; H       0.31; 
   2  Level shift: doubly occupied orbital energies shifted by -5.00D-02

 DIIS Fock eigenvalues in symmetry 1
      -20.65123      -20.64327      -20.63571      -20.63480      -15.49883
       -1.41459       -1.40703       -1.37822       -1.36482       -1.17400
       -0.77968       -0.76708       -0.75041       -0.73745       -0.67705
       -0.66559       -0.65559       -0.64616       -0.62849       -0.61771
       -0.60236       -0.59562       -0.58672       -0.55066       -0.47973
        0.12190        0.14511        0.16745        0.19998        0.23198
        0.23783        0.24727        0.27410        0.28096        0.30519
        0.36997        0.48656        0.49315        0.51636        0.56290
        0.56726        0.58522        0.58527        0.59608        0.60778
        0.63741        0.68607        0.90002        0.93197        0.93802
        0.94724        0.95999        0.98426        1.00106        1.01289
        1.04744        1.06055        1.07019        1.08841        1.11838
        1.13125        1.14980        1.26975        1.30907        1.31430
        1.32072        1.36019        1.38830        1.42395        1.45796
        1.48478        1.50660        1.51078        1.53064        1.55742
        1.59402        1.67229        1.68464        1.70399        1.71883
        1.78368        1.81160        1.82185        1.86780        1.87656
        1.91133        1.92306        2.00083        2.02117        2.13469
        2.16582        2.18306        2.19127        2.23827        2.31548
        2.34492        2.35497        2.36166        2.49486        2.57539
        2.58286        2.60913        2.61579        2.67637        2.71181
        2.76060        2.77536        2.79794        2.82132        2.86248
        2.91482        2.97312        3.03970        3.13554        3.40440
        3.41712        3.42169        3.43581        3.45383        3.46659
        3.48879        3.51438        3.52017        3.58607        3.60781
        3.64575        3.64791        3.65248        3.93014        3.94866
        4.00299        4.07697        4.17561        4.19137        4.19796
        4.21345        4.64450        5.13962        5.26361        5.28126
        5.28489        5.29132        5.33557        5.65987        5.68967
        5.70731        5.72258        5.97519        6.04952        6.14220
        6.23336       37.11113       51.44445       51.46963       51.49608
       51.52592
 Time used in FCKEIG, thr_jaco:   2.84D-01  2.90D-02  4.01D-05
 CPU and wall times used in FCKEIG, THR_FCKEIG:   2.85D-01  2.90D-02  9.19D-03
 -----------------------------------------------------------------------------

 *** DIIS iteration number    3
 RDSUPM called. NFMAT, ISYMDM(1:NFMAT)                     1
                     1

 ITDIIS, energy, error norm, change in energy, scr.thr., difden:
@ DIIS iter.   3    -360.695522857        3.29124D-01   -5.76D-02  -20    F

 (DIIS_RED) Control Parameters C2DIIS =         F NEVC =    3


 (DIIS_RED) B matrix:

               Column   1     Column   2     Column   3
       1      14.59897751
       2       0.84827812     0.84369950
       3       0.58976877     0.06045022     0.10832268
    ==== End of matrix output ====

 DIIS C vector; C2DIIS = F, LAMBDA = -8.70D-02
   -0.037205    0.071315    0.965890
* Read MO coefficients from SIRIUS.RST with label "NEWORB  " and header info: 22Dec18  DIIS   3
      Virial theorem: -V/T =      2.001812
@      MULPOP N      -0.55; H       0.19; H       0.20; H       0.18; O      -0.60; O      -0.60; O      -0.72; O      -0.67; H       0.27; H       0.34; 
@             H       0.30; H       0.31; H       0.29; H       0.37; H       0.35; H       0.34; 
   3  Level shift: doubly occupied orbital energies shifted by -2.50D-02

 DIIS Fock eigenvalues in symmetry 1
      -20.58721      -20.58314      -20.57048      -20.48826      -15.60491
       -1.37403       -1.37180       -1.33417       -1.29998       -1.18212
       -0.74276       -0.72492       -0.69609       -0.69324       -0.67077
       -0.64409       -0.62186       -0.60693       -0.58957       -0.55608
       -0.55220       -0.55087       -0.53310       -0.48049       -0.47113
        0.12677        0.14878        0.17277        0.20317        0.23644
        0.24197        0.25121        0.27610        0.28531        0.30722
        0.37500        0.48733        0.49474        0.52544        0.57086
        0.57759        0.59267        0.59536        0.60607        0.61760
        0.64983        0.68885        0.89568        0.92947        0.94002
        0.96379        0.97135        0.99993        1.01269        1.03855
        1.05652        1.07340        1.08221        1.09931        1.12734
        1.14407        1.16987        1.27496        1.30988        1.32099
        1.33013        1.36095        1.39602        1.43633        1.47538
        1.49491        1.51880        1.52244        1.54218        1.56692
        1.60749        1.68598        1.69714        1.71506        1.72802
        1.79440        1.81690        1.82710        1.87698        1.88467
        1.91995        1.93208        2.00790        2.02729        2.12732
        2.17046        2.18031        2.20490        2.24977        2.33014
        2.35663        2.37595        2.37868        2.50723        2.58376
        2.59333        2.61890        2.62664        2.69006        2.72069
        2.77092        2.78370        2.80737        2.83166        2.87153
        2.89592        2.94750        3.02707        3.11865        3.42912
        3.43205        3.43623        3.44441        3.48011        3.48108
        3.49172        3.51231        3.53221        3.63146        3.63521
        3.66898        3.67115        3.69394        3.95269        3.97420
        4.02035        4.11941        4.20357        4.21251        4.23540
        4.24835        4.59224        5.08817        5.21446        5.30475
        5.31433        5.31985        5.40860        5.71197        5.72773
        5.74041        5.75171        6.00807        6.07763        6.16358
        6.30202       36.98421       51.49221       51.50877       51.52397
       51.64625
 Time used in FCKEIG, thr_jaco:   2.73D-01  2.70D-02  1.44D-05
 CPU and wall times used in FCKEIG, THR_FCKEIG:   2.73D-01  2.70D-02  3.29D-03
 -----------------------------------------------------------------------------

 *** DIIS iteration number    4
 RDSUPM called. NFMAT, ISYMDM(1:NFMAT)                     1
                     1

 ITDIIS, energy, error norm, change in energy, scr.thr., difden:
@ DIIS iter.   4    -360.702996334        1.16503D-01   -7.47D-03  -20    F

 (DIIS_RED) Control Parameters C2DIIS =         F NEVC =    4


 (DIIS_RED) B matrix:

               Column   1     Column   2     Column   3     Column   4
       1      14.59897751
       2       0.84827812     0.84369950
       3       0.58976877     0.06045022     0.10832268
       4      -0.00887927     0.07854698    -0.00945603     0.01357286
    ==== End of matrix output ====

 DIIS C vector; C2DIIS = F, LAMBDA = -3.62D-03
   -0.000618   -0.093291    0.169547    0.924363
* Read MO coefficients from SIRIUS.RST with label "NEWORB  " and header info: 22Dec18  DIIS   4
      Virial theorem: -V/T =      2.002606
@      MULPOP N      -0.62; H       0.21; H       0.22; H       0.19; O      -0.60; O      -0.61; O      -0.71; O      -0.68; H       0.27; H       0.34; 
@             H       0.30; H       0.32; H       0.29; H       0.37; H       0.35; H       0.35; 
   4  Level shift: doubly occupied orbital energies shifted by -1.25D-02

 DIIS Fock eigenvalues in symmetry 1
      -20.58467      -20.57782      -20.57194      -20.51219      -15.55432
       -1.36542       -1.36263       -1.32662       -1.29863       -1.15695
       -0.73289       -0.71502       -0.68940       -0.68468       -0.64679
       -0.62204       -0.61056       -0.59511       -0.57877       -0.54929
       -0.53982       -0.53789       -0.52198       -0.47373       -0.44957
        0.12729        0.14827        0.17261        0.20366        0.23583
        0.24158        0.25124        0.27854        0.28586        0.31047
        0.37734        0.49300        0.49953        0.52578        0.57056
        0.57824        0.59138        0.59382        0.60535        0.61721
        0.64849        0.69309        0.90232        0.93624        0.94542
        0.96449        0.97274        1.00143        1.01222        1.03567
        1.05695        1.07261        1.08156        1.09875        1.12751
        1.14307        1.16599        1.27601        1.31713        1.32146
        1.33019        1.36701        1.39788        1.43504        1.47355
        1.49318        1.51696        1.52044        1.54092        1.56577
        1.60666        1.68530        1.69620        1.71344        1.72653
        1.79563        1.82106        1.83116        1.87790        1.88391
        1.92044        1.93198        2.01122        2.03189        2.13613
        2.17607        2.18204        2.20244        2.24771        2.32713
        2.35437        2.37223        2.37473        2.51049        2.58664
        2.59307        2.61722        2.62475        2.69002        2.72377
        2.77330        2.78401        2.80666        2.83270        2.87098
        2.90824        2.96171        3.03727        3.12935        3.42748
        3.43288        3.44229        3.44799        3.47382        3.47730
        3.50326        3.51014        3.53042        3.62214        3.63094
        3.66727        3.66889        3.68410        3.95009        3.97024
        4.01832        4.11117        4.19979        4.21065        4.23112
        4.23983        4.61169        5.10831        5.23445        5.30135
        5.30921        5.31377        5.38933        5.70666        5.71356
        5.73287        5.74689        6.00083        6.07255        6.15974
        6.28453       37.02161       51.47858       51.49909       51.51702
       51.61051
 Time used in FCKEIG, thr_jaco:   4.03D-01  4.20D-02  5.09D-06
 CPU and wall times used in FCKEIG, THR_FCKEIG:   4.03D-01  4.20D-02  1.17D-03
 -----------------------------------------------------------------------------

 *** DIIS iteration number    5
 RDSUPM called. NFMAT, ISYMDM(1:NFMAT)                     1
                     1

 ITDIIS, energy, error norm, change in energy, scr.thr., difden:
@ DIIS iter.   5    -360.704036778        2.23585D-02   -1.04D-03  -20    F

 (DIIS_RED) Control Parameters C2DIIS =         F NEVC =    5


 (DIIS_RED) B matrix:

               Column   1     Column   2     Column   3     Column   4     Column   5
       1      14.59897751
       2       0.84827812     0.84369950
       3       0.58976877     0.06045022     0.10832268
       4      -0.00887927     0.07854698    -0.00945603     0.01357286
       5       0.01223944     0.00590115     0.00441930     0.00067307     0.00049990
    ==== End of matrix output ====

 DIIS C vector; C2DIIS = F, LAMBDA = -2.63D-04
    0.001268    0.008327   -0.069794   -0.135947    1.196146
* Read MO coefficients from SIRIUS.RST with label "NEWORB  " and header info: 22Dec18  DIIS   5
      Virial theorem: -V/T =      2.002241
@      MULPOP N      -0.61; H       0.21; H       0.22; H       0.19; O      -0.61; O      -0.62; O      -0.73; O      -0.69; H       0.28; H       0.35; 
@             H       0.31; H       0.32; H       0.30; H       0.38; H       0.36; H       0.35; 

 DIIS Fock eigenvalues in symmetry 1
      -20.57074      -20.56461      -20.55648      -20.49438      -15.53869
       -1.35229       -1.34993       -1.31302       -1.28421       -1.14348
       -0.72068       -0.70225       -0.67598       -0.67165       -0.63359
       -0.60878       -0.59798       -0.58268       -0.56569       -0.53500
       -0.52584       -0.52429       -0.50748       -0.45868       -0.43568
        0.12739        0.14812        0.17264        0.20371        0.23586
        0.24153        0.25128        0.27877        0.28601        0.31086
        0.37770        0.49342        0.49985        0.52592        0.57039
        0.57843        0.59106        0.59374        0.60535        0.61730
        0.64897        0.69357        0.90325        0.93698        0.94627
        0.96552        0.97354        1.00263        1.01337        1.03717
        1.05724        1.07296        1.08194        1.09892        1.12784
        1.14358        1.16663        1.27635        1.31769        1.32186
        1.33063        1.36766        1.39867        1.43501        1.47433
        1.49273        1.51676        1.52017        1.54092        1.56546
        1.60705        1.68553        1.69635        1.71323        1.72608
        1.79592        1.82138        1.83143        1.87792        1.88349
        1.92037        1.93192        2.01153        2.03231        2.13672
        2.17601        2.18250        2.20223        2.24716        2.32708
        2.35390        2.37253        2.37486        2.51093        2.58682
        2.59311        2.61670        2.62428        2.69024        2.72397
        2.77328        2.78369        2.80628        2.83240        2.87045
        2.90905        2.96255        3.03801        3.13014        3.42864
        3.43314        3.44287        3.44908        3.47583        3.47834
        3.50437        3.51068        3.53050        3.62398        3.63197
        3.66746        3.66936        3.68599        3.95060        3.97121
        4.01835        4.11305        4.20089        4.21082        4.23219
        4.24128        4.61330        5.10981        5.23590        5.30201
        5.31054        5.31535        5.39266        5.70778        5.71577
        5.73429        5.74778        6.00221        6.07313        6.15982
        6.28715       37.02467       51.48150       51.50049       51.51772
       51.61574
 Time used in FCKEIG, thr_jaco:   2.46D-01  2.40D-02  9.77D-07
 CPU and wall times used in FCKEIG, THR_FCKEIG:   2.46D-01  2.40D-02  2.24D-04
 -----------------------------------------------------------------------------

 *** DIIS iteration number    6
 RDSUPM called. NFMAT, ISYMDM(1:NFMAT)                     1
                     1

 ITDIIS, energy, error norm, change in energy, scr.thr., difden:
@ DIIS iter.   6    -360.704111273        6.87276D-03   -7.45D-05  -20    F

 (DIIS_RED) Control Parameters C2DIIS =         F NEVC =    6


 (DIIS_RED) B matrix:

               Column   1     Column   2     Column   3     Column   4     Column   5     Column   6
       1      14.59897751
       2       0.84827812     0.84369950
       3       0.58976877     0.06045022     0.10832268
       4      -0.00887927     0.07854698    -0.00945603     0.01357286
       5       0.01223944     0.00590115     0.00441930     0.00067307     0.00049990
       6      -0.00207900    -0.00031672     0.00043760     0.00015265     0.00006422     0.00004723
    ==== End of matrix output ====

 DIIS C vector; C2DIIS = F, LAMBDA = -2.99D-05
    0.000430    0.007269   -0.021339   -0.071443    0.125055    0.960028
* Read MO coefficients from SIRIUS.RST with label "NEWORB  " and header info: 22Dec18  DIIS   6
      Virial theorem: -V/T =      2.002361
@      MULPOP N      -0.61; H       0.21; H       0.21; H       0.19; O      -0.62; O      -0.62; O      -0.73; O      -0.69; H       0.28; H       0.35; 
@             H       0.31; H       0.33; H       0.30; H       0.38; H       0.36; H       0.35; 

 DIIS Fock eigenvalues in symmetry 1
      -20.57107      -20.56475      -20.55774      -20.49616      -15.54155
       -1.35231       -1.34993       -1.31333       -1.28464       -1.14437
       -0.72082       -0.70236       -0.67648       -0.67200       -0.63439
       -0.60946       -0.59827       -0.58287       -0.56622       -0.53550
       -0.52572       -0.52413       -0.50764       -0.45901       -0.43644
        0.12735        0.14807        0.17257        0.20360        0.23579
        0.24148        0.25120        0.27865        0.28591        0.31068
        0.37761        0.49316        0.49963        0.52580        0.57029
        0.57828        0.59096        0.59355        0.60523        0.61717
        0.64879        0.69332        0.90278        0.93655        0.94595
        0.96554        0.97354        1.00243        1.01306        1.03701
        1.05705        1.07278        1.08179        1.09876        1.12765
        1.14332        1.16634        1.27610        1.31737        1.32170
        1.33050        1.36727        1.39837        1.43491        1.47408
        1.49258        1.51662        1.51995        1.54071        1.56534
        1.60683        1.68534        1.69618        1.71304        1.72595
        1.79570        1.82109        1.83114        1.87770        1.88332
        1.92016        1.93172        2.01129        2.03202        2.13617
        2.17571        2.18195        2.20202        2.24700        2.32679
        2.35375        2.37227        2.37465        2.51062        2.58655
        2.59287        2.61654        2.62405        2.69001        2.72375
        2.77308        2.78349        2.80610        2.83226        2.87024
        2.90826        2.96165        3.03730        3.12944        3.42823
        3.43308        3.44277        3.44803        3.47528        3.47790
        3.50335        3.51055        3.53044        3.62345        3.63157
        3.66740        3.66928        3.68549        3.95050        3.97078
        4.01827        4.11243        4.20047        4.21076        4.23193
        4.24087        4.61182        5.10837        5.23448        5.30195
        5.31023        5.31489        5.39175        5.70747        5.71503
        5.73376        5.74754        6.00153        6.07294        6.15971
        6.28624       37.02187       51.48025       51.50017       51.51757
       51.61397
 Time used in FCKEIG, thr_jaco:   2.50D-01  2.60D-02  3.00D-07
 CPU and wall times used in FCKEIG, THR_FCKEIG:   2.50D-01  2.60D-02  6.87D-05
 -----------------------------------------------------------------------------

 *** DIIS iteration number    7
 RDSUPM called. NFMAT, ISYMDM(1:NFMAT)                     1
                     1

 ITDIIS, energy, error norm, change in energy, scr.thr., difden:
@ DIIS iter.   7    -360.704116434        2.46172D-03   -5.16D-06  -20    F

 (DIIS_RED) Control Parameters C2DIIS =         F NEVC =    7


 (DIIS_RED) B matrix:

               Column   1     Column   2     Column   3     Column   4     Column   5     Column   6
       1      14.59897751
       2       0.84827812     0.84369950
       3       0.58976877     0.06045022     0.10832268
       4      -0.00887927     0.07854698    -0.00945603     0.01357286
       5       0.01223944     0.00590115     0.00441930     0.00067307     0.00049990
       6      -0.00207900    -0.00031672     0.00043760     0.00015265     0.00006422     0.00004723
       7       0.00091945     0.00002284     0.00006557    -0.00000222     0.00003147    -0.00000023

               Column   7
       7       0.00000606
    ==== End of matrix output ====

 DIIS C vector; C2DIIS = F, LAMBDA = -1.34D-06
   -0.000223   -0.001494    0.010249    0.023644   -0.173669    0.078519    1.062975
* Read MO coefficients from SIRIUS.RST with label "NEWORB  " and header info: 22Dec18  DIIS   7
      Virial theorem: -V/T =      2.002329
@      MULPOP N      -0.61; H       0.21; H       0.22; H       0.19; O      -0.62; O      -0.62; O      -0.73; O      -0.69; H       0.28; H       0.35; 
@             H       0.31; H       0.33; H       0.30; H       0.38; H       0.36; H       0.35; 

 DIIS Fock eigenvalues in symmetry 1
      -20.57098      -20.56474      -20.55730      -20.49553      -15.54089
       -1.35223       -1.34988       -1.31313       -1.28434       -1.14413
       -0.72081       -0.70231       -0.67627       -0.67186       -0.63423
       -0.60932       -0.59829       -0.58291       -0.56614       -0.53528
       -0.52561       -0.52405       -0.50740       -0.45870       -0.43618
        0.12738        0.14809        0.17261        0.20364        0.23583
        0.24150        0.25123        0.27868        0.28595        0.31073
        0.37771        0.49325        0.49972        0.52586        0.57032
        0.57836        0.59097        0.59359        0.60527        0.61724
        0.64890        0.69342        0.90292        0.93668        0.94608
        0.96563        0.97362        1.00258        1.01322        1.03720
        1.05710        1.07286        1.08187        1.09883        1.12772
        1.14342        1.16647        1.27622        1.31746        1.32177
        1.33059        1.36740        1.39852        1.43492        1.47426
        1.49257        1.51662        1.51997        1.54075        1.56535
        1.60696        1.68543        1.69626        1.71307        1.72595
        1.79582        1.82120        1.83120        1.87775        1.88333
        1.92021        1.93176        2.01139        2.03212        2.13631
        2.17576        2.18207        2.20205        2.24700        2.32685
        2.35375        2.37236        2.37470        2.51073        2.58663
        2.59292        2.61653        2.62407        2.69011        2.72381
        2.77311        2.78350        2.80610        2.83235        2.87027
        2.90846        2.96187        3.03749        3.12961        3.42843
        3.43312        3.44284        3.44829        3.47557        3.47810
        3.50362        3.51062        3.53048        3.62374        3.63177
        3.66745        3.66935        3.68577        3.95056        3.97096
        4.01830        4.11273        4.20067        4.21081        4.23209
        4.24109        4.61221        5.10871        5.23481        5.30200
        5.31039        5.31511        5.39216        5.70760        5.71534
        5.73398        5.74764        6.00179        6.07301        6.15973
        6.28663       37.02252       51.48069       51.50026       51.51759
       51.61460
 Time used in FCKEIG, thr_jaco:   2.24D-01  2.30D-02  1.08D-07
 CPU and wall times used in FCKEIG, THR_FCKEIG:   2.24D-01  2.30D-02  2.46D-05
 -----------------------------------------------------------------------------

 *** DIIS iteration number    8
 RDSUPM called. NFMAT, ISYMDM(1:NFMAT)                     1
                     1

 ITDIIS, energy, error norm, change in energy, scr.thr., difden:
@ DIIS iter.   8    -360.704117010        3.73070D-04   -5.76D-07  -20    F

 (DIIS_RED) Control Parameters C2DIIS =         F NEVC =    8


 (DIIS_RED) B matrix:

               Column   1     Column   2     Column   3     Column   4     Column   5     Column   6
       1      14.59897751
       2       0.84827812     0.84369950
       3       0.58976877     0.06045022     0.10832268
       4      -0.00887927     0.07854698    -0.00945603     0.01357286
       5       0.01223944     0.00590115     0.00441930     0.00067307     0.00049990
       6      -0.00207900    -0.00031672     0.00043760     0.00015265     0.00006422     0.00004723
       7       0.00091945     0.00002284     0.00006557    -0.00000222     0.00003147    -0.00000023
       8      -0.00002212    -0.00000358    -0.00000483     0.00000397     0.00000084     0.00000137

               Column   7     Column   8
       7       0.00000606
       8       0.00000021     0.00000014
    ==== End of matrix output ====

 DIIS C vector; C2DIIS = F, LAMBDA = -8.54D-08
    0.000006   -0.000033   -0.000404   -0.000673    0.015444   -0.046553   -0.103103    1.135315
* Read MO coefficients from SIRIUS.RST with label "NEWORB  " and header info: 22Dec18  DIIS   8
      Virial theorem: -V/T =      2.002347
@      MULPOP N      -0.61; H       0.21; H       0.22; H       0.19; O      -0.62; O      -0.62; O      -0.73; O      -0.69; H       0.28; H       0.35; 
@             H       0.31; H       0.33; H       0.30; H       0.38; H       0.36; H       0.35; 

 DIIS Fock eigenvalues in symmetry 1
      -20.57098      -20.56472      -20.55739      -20.49553      -15.54092
       -1.35222       -1.34987       -1.31316       -1.28435       -1.14414
       -0.72080       -0.70230       -0.67628       -0.67188       -0.63424
       -0.60934       -0.59831       -0.58292       -0.56619       -0.53529
       -0.52561       -0.52404       -0.50743       -0.45870       -0.43619
        0.12738        0.14808        0.17260        0.20363        0.23583
        0.24150        0.25123        0.27868        0.28594        0.31072
        0.37770        0.49324        0.49971        0.52585        0.57032
        0.57835        0.59097        0.59358        0.60527        0.61723
        0.64890        0.69341        0.90291        0.93667        0.94607
        0.96562        0.97362        1.00256        1.01321        1.03719
        1.05710        1.07285        1.08187        1.09883        1.12772
        1.14341        1.16647        1.27621        1.31745        1.32177
        1.33058        1.36738        1.39850        1.43492        1.47425
        1.49257        1.51662        1.51996        1.54074        1.56535
        1.60695        1.68542        1.69625        1.71306        1.72595
        1.79581        1.82119        1.83120        1.87774        1.88333
        1.92020        1.93176        2.01138        2.03211        2.13629
        2.17575        2.18206        2.20204        2.24700        2.32683
        2.35375        2.37236        2.37471        2.51071        2.58662
        2.59291        2.61653        2.62406        2.69011        2.72380
        2.77310        2.78349        2.80610        2.83234        2.87026
        2.90844        2.96186        3.03747        3.12960        3.42839
        3.43312        3.44283        3.44827        3.47557        3.47806
[...]

 Principal values of diagonalized transition strength matrix:

             a.u.               
 1      -0.00000001
 2      -0.00000000
 3       0.00036249

 Principal axis of diagonalized transition strength matrix:


               Column   1     Column   2     Column   3
       1       0.94201823     0.26729210    -0.20287085
       2      -0.15139846     0.87808877     0.45391478
       3       0.29946645    -0.39688166     0.86764324
    ==== End of matrix output ====


 CCSD   oscillator strength matrix for state nr. 13 of symmetry 1
 CCSD  excitation energy:15.12381792


               Column   1     Column   2     Column   3
       1       0.00015035    -0.00033654    -0.00064334
       2      -0.00033654     0.00075302     0.00143939
       3      -0.00064334     0.00143939     0.00275133
    ==== End of matrix output ====

 Principal values of diagonalized oscillator strength matrix:

             a.u.               
 1      -0.00000008
 2      -0.00000000
 3       0.00365478

 Principal axis of diagonalized oscillator strength matrix:


               Column   1     Column   2     Column   3
       1       0.94201823     0.26729210    -0.20287085
       2      -0.15139846     0.87808877     0.45391478
       3       0.29946645    -0.39688166     0.86764324
    ==== End of matrix output ====


 CCSD  Transition strength matrix for state nr. 14 of symmetry 1
 CCSD  excitation energy:15.21762875

 Gauge: length

               Column   1     Column   2     Column   3
       1     1.009711D-05   3.351707D-06  -1.033608D-05
       2     3.351707D-06   1.112167D-06  -3.431419D-06
       3    -1.033608D-05  -3.431419D-06   1.058036D-05
    ==== End of matrix output ====

 Principal values of diagonalized transition strength matrix:

             a.u.               
 1      -0.00000000
 2       0.00000000
 3       0.00002179

 Principal axis of diagonalized transition strength matrix:


               Column   1     Column   2     Column   3
       1       0.21670383     0.69975878    -0.68071808
       2       0.84654082    -0.48198139    -0.22597030
       3       0.48621815     0.52728701     0.69682158
    ==== End of matrix output ====


 CCSD   oscillator strength matrix for state nr. 14 of symmetry 1
 CCSD  excitation energy:15.21762875


               Column   1     Column   2     Column   3
       1     1.024361D-04   3.400335D-05  -1.048605D-04
       2     3.400335D-05   1.128303D-05  -3.481204D-05
       3    -1.048605D-04  -3.481204D-05   1.073387D-04
    ==== End of matrix output ====

 Principal values of diagonalized oscillator strength matrix:

             a.u.               
 1      -0.00000001
 2       0.00000000
 3       0.00022106

 Principal axis of diagonalized oscillator strength matrix:


               Column   1     Column   2     Column   3
       1       0.21670383     0.69975878    -0.68071808
       2       0.84654082    -0.48198139    -0.22597030
       3       0.48621815     0.52728701     0.69682158
    ==== End of matrix output ====


 CCSD  Transition strength matrix for state nr. 15 of symmetry 1
 CCSD  excitation energy:15.30096360

 Gauge: length

               Column   1     Column   2     Column   3
       1     2.570101D-05   3.305708D-06   7.496555D-05
       2     3.305708D-06   4.228098D-07   9.628055D-06
       3     7.496555D-05   9.628055D-06   2.185778D-04
    ==== End of matrix output ====

 Principal values of diagonalized transition strength matrix:

             a.u.               
 1      -0.00000001
 2      -0.00000000
 3       0.00024471

 Principal axis of diagonalized transition strength matrix:


               Column   1     Column   2     Column   3
       1       0.88443777     0.33572530     0.32412706
       2      -0.36787694     0.92894193     0.04163476
       3      -0.28711738    -0.15606222     0.94509692
    ==== End of matrix output ====


 CCSD   oscillator strength matrix for state nr. 15 of symmetry 1
 CCSD  excitation energy:15.30096360


               Column   1     Column   2     Column   3
       1       0.00026217     0.00003372     0.00076470
       2       0.00003372     0.00000431     0.00009821
       3       0.00076470     0.00009821     0.00222963
    ==== End of matrix output ====

 Principal values of diagonalized oscillator strength matrix:

             a.u.               
 1      -0.00000010
 2      -0.00000000
 3       0.00249622

 Principal axis of diagonalized oscillator strength matrix:


               Column   1     Column   2     Column   3
       1       0.88443777     0.33572530     0.32412706
       2      -0.36787694     0.92894193     0.04163476
       3      -0.28711738    -0.15606222     0.94509692
    ==== End of matrix output ====

  Total time for    135 linear response residues:     139.00 seconds.
  

 *******************************************************************************
 *******************************************************************************
 *                                                                             *
 *                                                                             *
 *                   SUMMARY OF COUPLED CLUSTER CALCULATION                    *
 *                                                                             *
 *                                                                             *
 *******************************************************************************
 *******************************************************************************

                                                                                
                                                                                
            Total SCF   energy:                  -360.7041170304                
            Total MP2   energy:                  -361.8033351393                
            Total CCSD  energy:                  -361.8441548701                
                                                                                
                                                                                
            Total SCF   energy:                  -360.7041170304                
            Total RSTAR energy:                  -361.8441548701                
            Total CCSD  energy:                  -361.8442852264                
                                                                                
                                                                                
            Total SCF   energy:                  -360.7041170304                
            Total RSTAR energy:                  -361.8442852264                
            Total CCSD  energy:                  -361.8442853347                
                                                                                
                                                                                
            Total SCF   energy:                  -360.7041170304                
            Total RSTAR energy:                  -361.8442853347                
            Total CCSD  energy:                  -361.8442854148                
                                                                                
                                                                                
            Total SCF   energy:                  -360.7041170304                
            Total RSTAR energy:                  -361.8442854148                
            Total CCSD  energy:                  -361.8442854161                
                                                                                
                                                                                
            Total SCF   energy:                  -360.7041170304                
            Total RSTAR energy:                  -361.8442854161                
            Total CCSD  energy:                  -361.8442854161                
            CCSD Total  energy:                  -362.1785041009                
            CCSD E(QM/MM)     :                    -0.3301315594                
                                                                                
                                                                                
                                                                                
 +=============================================================================+
 |  sym. | Exci.  |        CCSD       Excitation energies            | ||T1||  |
 |(spin, |        +------------------------------------------------------------+
 | spat) |        |     Hartree    |       eV.      |     cm-1       |    %    |
 +=============================================================================+
 | ^1A   |    1   |    14.8139673  |     403.10856  |   3251289.983  |  88.29  |
 | ^1A   |    2   |    14.8818293  |     404.95517  |   3266183.961  |  88.65  |
 | ^1A   |    3   |    14.8865351  |     405.08323  |   3267216.769  |  88.73  |
 | ^1A   |    4   |    14.9794413  |     407.61133  |   3287607.320  |  88.07  |
 | ^1A   |    5   |    14.9845977  |     407.75165  |   3288739.027  |  88.07  |
 | ^1A   |    6   |    14.9971800  |     408.09403  |   3291500.521  |  88.30  |
 | ^1A   |    7   |    15.0156589  |     408.59686  |   3295556.177  |  87.99  |
 | ^1A   |    8   |    15.0648902  |     409.93652  |   3306361.198  |  87.93  |
 | ^1A   |    9   |    15.0683375  |     410.03032  |   3307117.791  |  88.00  |
 | ^1A   |   10   |    15.0785412  |     410.30798  |   3309357.249  |  88.06  |
 | ^1A   |   11   |    15.0997802  |     410.88592  |   3314018.655  |  87.83  |
 | ^1A   |   12   |    15.1207043  |     411.45529  |   3318610.961  |  87.86  |
 | ^1A   |   13   |    15.1238179  |     411.54002  |   3319294.332  |  87.96  |
 | ^1A   |   14   |    15.2176287  |     414.09274  |   3339883.429  |  87.46  |
 | ^1A   |   15   |    15.3009636  |     416.36040  |   3358173.315  |  88.05  |
 +=============================================================================+
                                                                                
                                                                                
     Total energies in Hartree:                                                 
             1 ^1A       -347.0344052367                                        
             2 ^1A       -346.9665432798                                        
             3 ^1A       -346.9618374587                                        
             4 ^1A       -346.8689312752                                        
             5 ^1A       -346.8637748362                                        
             6 ^1A       -346.8511925433                                        
             7 ^1A       -346.8327136137                                        
             8 ^1A       -346.7834823162                                        
             9 ^1A       -346.7800350250                                        
            10 ^1A       -346.7698313055                                        
            11 ^1A       -346.7485923762                                        
            12 ^1A       -346.7276682888                                        
            13 ^1A       -346.7245546228                                        
            14 ^1A       -346.6307437915                                        
            15 ^1A       -346.5474089394                                        
                                                                                
                                                                                
 +=============================================================================+
 |  sym. | Exci.  |        CCSD       Length   Gauge Oscillator Strength       |
 |(spin, |        +------------------------------------------------------------+
 | spat) |        | Dipole Strength(a.u.) | Oscillator strength  | Direction   |
 +=============================================================================+
 | ^1A   |    1   |        0.0009582      |      0.0094633       |  (Y,Z)      |
 | ^1A   |    2   |        0.0038978      |      0.0386709       |  (Y,Z)      |
 | ^1A   |    3   |        0.0034688      |      0.0344253       |  (Y,Z)      |
 | ^1A   |    4   |        0.0003636      |      0.0036314       |  (Y,Z)      |
 | ^1A   |    5   |        0.0003983      |      0.0039785       |  (Y,Z)      |
 | ^1A   |    6   |        0.0013151      |      0.0131489       |  (Y,Z)      |
 | ^1A   |    7   |        0.0005130      |      0.0051350       |  (Y,Z)      |
 | ^1A   |    8   |        0.0000150      |      0.0001506       |  (Y,Z)      |
 | ^1A   |    9   |        0.0000588      |      0.0005904       |  (Y,Z)      |
 | ^1A   |   10   |        0.0005050      |      0.0050760       |  (Y,Z)      |
 | ^1A   |   11   |        0.0000854      |      0.0008594       |  (Y,Z)      |
 | ^1A   |   12   |        0.0002285      |      0.0023029       |  (Y,Z)      |
 | ^1A   |   13   |        0.0003625      |      0.0036547       |  (Y,Z)      |
 | ^1A   |   14   |        0.0000218      |      0.0002211       |  (Y,Z)      |
 | ^1A   |   15   |        0.0002447      |      0.0024961       |  (Y,Z)      |
 +=============================================================================+

  1 a.u. =        27.21138 eV.  
  1 a.u. =    219474.62934 cm-1.
  

 *******************************************************************************
 *******************************************************************************
 *                                                                             *
 *                                                                             *
 *                      END OF COUPLED CLUSTER CALCULATION                     *
 *                                                                             *
 *                                                                             *
 *******************************************************************************
 *******************************************************************************


 CPU and wall time for CC :  582933.083   97958.406

 
     Date and time (Linux)  : Sun Dec 23 22:15:48 2018
     Host name              : n-62-29-7                               


                      .-------------------------------------.
                      | End of Coupled Cluster Section (CC) |
                      `-------------------------------------'

  Total CPU  time used in DALTON: 162 hours  6 minutes 36 seconds
  Total wall time used in DALTON:  27 hours 14 minutes 43 seconds

 
     Date and time (Linux)  : Sun Dec 23 22:15:48 2018
     Host name              : n-62-29-7                               
  

 +---------------------------------------------------------+ 
 | List of selected calculated molecular properties (a.u.) | 
 +---------------------------------------------------------+ 

  Properties are read from unit number                      4

 CCSD       properties :
 #  1 1 CCSD/MM  Ground state Energy =    -362.1785041009
 #  2 1 E_QM/MM  Ground state Energy =      -0.3301315594
 #  3 1 Sy: 1 Sp: 1 Exc:  1 E_tot:   -347.0344052367 w:     14.8139673048 E_grs:   -361.8483725415
 #  4 1 Exctot   Excited state Energy =    -347.0344052367
 #  5 1 Sy: 1 Sp: 1 Exc:  2 E_tot:   -346.9665432798 w:     14.8818292617 E_grs:   -361.8483725415
 #  6 1 Exctot   Excited state Energy =    -346.9665432798
 #  7 1 Sy: 1 Sp: 1 Exc:  3 E_tot:   -346.9618374587 w:     14.8865350828 E_grs:   -361.8483725415
 #  8 1 Exctot   Excited state Energy =    -346.9618374587
 #  9 1 Sy: 1 Sp: 1 Exc:  4 E_tot:   -346.8689312752 w:     14.9794412663 E_grs:   -361.8483725415
 # 10 1 Exctot   Excited state Energy =    -346.8689312752
 # 11 1 Sy: 1 Sp: 1 Exc:  5 E_tot:   -346.8637748362 w:     14.9845977053 E_grs:   -361.8483725415
 # 12 1 Exctot   Excited state Energy =    -346.8637748362
 # 13 1 Sy: 1 Sp: 1 Exc:  6 E_tot:   -346.8511925433 w:     14.9971799982 E_grs:   -361.8483725415
 # 14 1 Exctot   Excited state Energy =    -346.8511925433
 # 15 1 Sy: 1 Sp: 1 Exc:  7 E_tot:   -346.8327136137 w:     15.0156589278 E_grs:   -361.8483725415
 # 16 1 Exctot   Excited state Energy =    -346.8327136137
 # 17 1 Sy: 1 Sp: 1 Exc:  8 E_tot:   -346.7834823162 w:     15.0648902253 E_grs:   -361.8483725415
 # 18 1 Exctot   Excited state Energy =    -346.7834823162
 # 19 1 Sy: 1 Sp: 1 Exc:  9 E_tot:   -346.7800350250 w:     15.0683375165 E_grs:   -361.8483725415
 # 20 1 Exctot   Excited state Energy =    -346.7800350250
 # 21 1 Sy: 1 Sp: 1 Exc: 10 E_tot:   -346.7698313055 w:     15.0785412360 E_grs:   -361.8483725415
 # 22 1 Exctot   Excited state Energy =    -346.7698313055
 # 23 1 Sy: 1 Sp: 1 Exc: 11 E_tot:   -346.7485923762 w:     15.0997801653 E_grs:   -361.8483725415
 # 24 1 Exctot   Excited state Energy =    -346.7485923762
 # 25 1 Sy: 1 Sp: 1 Exc: 12 E_tot:   -346.7276682888 w:     15.1207042527 E_grs:   -361.8483725415
 # 26 1 Exctot   Excited state Energy =    -346.7276682888
 # 27 1 Sy: 1 Sp: 1 Exc: 13 E_tot:   -346.7245546228 w:     15.1238179187 E_grs:   -361.8483725415
 # 28 1 Exctot   Excited state Energy =    -346.7245546228
 # 29 1 Sy: 1 Sp: 1 Exc: 14 E_tot:   -346.6307437915 w:     15.2176287500 E_grs:   -361.8483725415
 # 30 1 Exctot   Excited state Energy =    -346.6307437915
 # 31 1 Sy: 1 Sp: 1 Exc: 15 E_tot:   -346.5474089394 w:     15.3009636021 E_grs:   -361.8483725415
 # 32 1 Exctot   Excited state Energy =    -346.5474089394
 # 33 1 |<O|XDIPLEN |i(14.813967)>| =     0.01459873
 # 35 1 |<O|XDIPLEN |i(14.881829)>| =     0.05928224
 # 37 1 |<O|XDIPLEN |i(14.886535)>| =     0.00628270
 # 39 1 |<O|XDIPLEN |i(14.979441)>| =     0.00266878
 # 41 1 |<O|XDIPLEN |i(14.984598)>| =     0.01590286
 # 43 1 |<O|XDIPLEN |i(14.997180)>| =     0.01189711
 # 45 1 |<O|XDIPLEN |i(15.015659)>| =     0.01596139
 # 47 1 |<O|XDIPLEN |i(15.064890)>| =     0.00303216
 # 49 1 |<O|XDIPLEN |i(15.068338)>| =     0.00609567
 # 51 1 |<O|XDIPLEN |i(15.078541)>| =     0.00447745
 # 53 1 |<O|XDIPLEN |i(15.099780)>| =     0.00170667
 # 55 1 |<O|XDIPLEN |i(15.120704)>| =     0.00069115
 # 57 1 |<O|XDIPLEN |i(15.123818)>| =     0.00386154
 # 59 1 |<O|XDIPLEN |i(15.217629)>| =     0.00317760
 # 61 1 |<O|XDIPLEN |i(15.300964)>| =     0.00506962
 # 63 1 |<O|YDIPLEN |i(14.813967)>| =     0.01170746
 # 65 1 |<O|YDIPLEN |i(14.881829)>| =     0.00250016
 # 67 1 |<O|YDIPLEN |i(14.886535)>| =     0.05686175
 # 69 1 |<O|YDIPLEN |i(14.979441)>| =     0.01883909
 # 71 1 |<O|YDIPLEN |i(14.984598)>| =     0.01143430
 # 73 1 |<O|YDIPLEN |i(14.997180)>| =     0.01103795
 # 75 1 |<O|YDIPLEN |i(15.015659)>| =     0.00745717
 # 77 1 |<O|YDIPLEN |i(15.064890)>| =     0.00095894
 # 79 1 |<O|YDIPLEN |i(15.068338)>| =     0.00368523
 # 81 1 |<O|YDIPLEN |i(15.078541)>| =     0.00157560
 # 83 1 |<O|YDIPLEN |i(15.099780)>| =     0.00544459
 # 85 1 |<O|YDIPLEN |i(15.120704)>| =     0.00615460
 # 87 1 |<O|YDIPLEN |i(15.123818)>| =     0.00864210
 # 89 1 |<O|YDIPLEN |i(15.217629)>| =     0.00105459
 # 91 1 |<O|YDIPLEN |i(15.300964)>| =     0.00065024
 # 93 1 |<O|ZDIPLEN |i(14.813967)>| =     0.02465811
 # 95 1 |<O|ZDIPLEN |i(14.881829)>| =     0.01942072
 # 97 1 |<O|ZDIPLEN |i(14.886535)>| =     0.01400143
 # 99 1 |<O|ZDIPLEN |i(14.979441)>| =     0.00126848
 #101 1 |<O|ZDIPLEN |i(14.984598)>| =     0.00382235
 #103 1 |<O|ZDIPLEN |i(14.997180)>| =     0.03243080
 #105 1 |<O|ZDIPLEN |i(15.015659)>| =     0.01423340
 #107 1 |<O|ZDIPLEN |i(15.064890)>| =     0.00220833
 #109 1 |<O|ZDIPLEN |i(15.068338)>| =     0.00283439
 #111 1 |<O|ZDIPLEN |i(15.078541)>| =     0.02196418
 #113 1 |<O|ZDIPLEN |i(15.099780)>| =     0.00726766
 #115 1 |<O|ZDIPLEN |i(15.120704)>| =     0.01378746
 #117 1 |<O|ZDIPLEN |i(15.123818)>| =     0.01651909
 #119 1 |<O|ZDIPLEN |i(15.217629)>| =     0.00325275
 #121 1 |<O|ZDIPLEN |i(15.300964)>| =     0.01478438

 THE_END   
