

     ************************************************************************
     *************** Dalton - An Electronic Structure Program ***************
     ************************************************************************

    This is output from DALTON release Dalton2017.alpha (2016)
         ( Web site: http://daltonprogram.org )

   ----------------------------------------------------------------------------

    NOTE:
     
    Dalton is an experimental code for the evaluation of molecular
    properties using (MC)SCF, DFT, CI, and CC wave functions.
    The authors accept no responsibility for the performance of
    the code or for the correctness of the results.
     
    The code (in whole or part) is provided under a licence and
    is not to be reproduced for further distribution without
    the written permission of the authors or their representatives.
     
    See the home page "http://daltonprogram.org" for further information.
     
    If results obtained with this code are published,
    the appropriate citations would be both of:
     
       K. Aidas, C. Angeli, K. L. Bak, V. Bakken, R. Bast,
       L. Boman, O. Christiansen, R. Cimiraglia, S. Coriani,
       P. Dahle, E. K. Dalskov, U. Ekstroem,
       T. Enevoldsen, J. J. Eriksen, P. Ettenhuber, B. Fernandez,
       L. Ferrighi, H. Fliegl, L. Frediani, K. Hald, A. Halkier,
       C. Haettig, H. Heiberg, T. Helgaker, A. C. Hennum,
       H. Hettema, E. Hjertenaes, S. Hoest, I.-M. Hoeyvik,
       M. F. Iozzi, B. Jansik, H. J. Aa. Jensen, D. Jonsson,
       P. Joergensen, J. Kauczor, S. Kirpekar,
       T. Kjaergaard, W. Klopper, S. Knecht, R. Kobayashi, H. Koch,
       J. Kongsted, A. Krapp, K. Kristensen, A. Ligabue,
       O. B. Lutnaes, J. I. Melo, K. V. Mikkelsen, R. H. Myhre,
       C. Neiss, C. B. Nielsen, P. Norman, J. Olsen,
       J. M. H. Olsen, A. Osted, M. J. Packer, F. Pawlowski,
       T. B. Pedersen, P. F. Provasi, S. Reine, Z. Rinkevicius,
       T. A. Ruden, K. Ruud, V. Rybkin, P. Salek, C. C. M. Samson,
       A. Sanchez de Meras, T. Saue, S. P. A. Sauer,
       B. Schimmelpfennig, K. Sneskov, A. H. Steindal,
       K. O. Sylvester-Hvid, P. R. Taylor, A. M. Teale,
       E. I. Tellgren, D. P. Tew, A. J. Thorvaldsen, L. Thoegersen,
       O. Vahtras, M. A. Watson, D. J. D. Wilson, M. Ziolkowski
       and H. Agren,
       "The Dalton quantum chemistry program system",
       WIREs Comput. Mol. Sci. 2014, 4:269–284 (doi: 10.1002/wcms.1172)
     
    and
     
       Dalton, a Molecular Electronic Structure Program,
       Release Dalton2017.alpha (2016), see http://daltonprogram.org
   ----------------------------------------------------------------------------

    Authors in alphabetical order (major contribution(s) in parenthesis):

  Kestutis Aidas,           Vilnius University,           Lithuania   (QM/MM)
  Celestino Angeli,         University of Ferrara,        Italy       (NEVPT2)
  Keld L. Bak,              UNI-C,                        Denmark     (AOSOPPA, non-adiabatic coupling, magnetic properties)
  Vebjoern Bakken,          University of Oslo,           Norway      (DALTON; geometry optimizer, symmetry detection)
  Radovan Bast,             UiT The Arctic U. of Norway,  Norway      (DALTON installation and execution frameworks)
  Pablo Baudin,             University of Valencia,       Spain       (Cholesky excitation energies)
  Linus Boman,              NTNU,                         Norway      (Cholesky decomposition and subsystems)
  Ove Christiansen,         Aarhus University,            Denmark     (CC module)
  Renzo Cimiraglia,         University of Ferrara,        Italy       (NEVPT2)
  Sonia Coriani,            University of Trieste,        Italy       (CC module, MCD in RESPONS)
  Janusz Cukras,            University of Trieste,        Italy       (MChD in RESPONS)
  Paal Dahle,               University of Oslo,           Norway      (Parallelization)
  Erik K. Dalskov,          UNI-C,                        Denmark     (SOPPA)
  Thomas Enevoldsen,        Univ. of Southern Denmark,    Denmark     (SOPPA)
  Janus J. Eriksen,         Aarhus University,            Denmark     (Polarizable embedding model, TDA)
  Rasmus Faber,             University of Copenhagen,     Denmark     (Vib.avg. NMR with SOPPA, parallel AO-SOPPA)
  Berta Fernandez,          U. of Santiago de Compostela, Spain       (doublet spin, ESR in RESPONS)
  Lara Ferrighi,            Aarhus University,            Denmark     (PCM Cubic response)
  Heike Fliegl,             University of Oslo,           Norway      (CCSD(R12))
  Luca Frediani,            UiT The Arctic U. of Norway,  Norway      (PCM)
  Bin Gao,                  UiT The Arctic U. of Norway,  Norway      (Gen1Int library)
  Christof Haettig,         Ruhr-University Bochum,       Germany     (CC module)
  Kasper Hald,              Aarhus University,            Denmark     (CC module)
  Asger Halkier,            Aarhus University,            Denmark     (CC module)
  Frederik Beyer Hansen,    University of Copenhagen,     Denmark     (Parallel AO-SOPPA)
  Erik D. Hedegaard,        Univ. of Southern Denmark,    Denmark     (Polarizable embedding model, QM/MM)
  Hanne Heiberg,            University of Oslo,           Norway      (geometry analysis, selected one-electron integrals)
  Trygve Helgaker,          University of Oslo,           Norway      (DALTON; ABACUS, ERI, DFT modules, London, and much more)
  Alf Christian Hennum,     University of Oslo,           Norway      (Parity violation)
  Hinne Hettema,            University of Auckland,       New Zealand (quadratic response in RESPONS; SIRIUS supersymmetry)
  Eirik Hjertenaes,         NTNU,                         Norway      (Cholesky decomposition)
  Pi A. B. Haase,           University of Copenhagen,     Denmark     (Triplet AO-SOPPA)
  Maria Francesca Iozzi,    University of Oslo,           Norway      (RPA)
  Brano Jansik              Technical Univ. of Ostrava    Czech Rep.  (DFT cubic response)
  Hans Joergen Aa. Jensen,  Univ. of Southern Denmark,    Denmark     (DALTON; SIRIUS, RESPONS, ABACUS modules, London, and much more)
  Dan Jonsson,              UiT The Arctic U. of Norway,  Norway      (cubic response in RESPONS module)
  Poul Joergensen,          Aarhus University,            Denmark     (RESPONS, ABACUS, and CC modules)
  Maciej Kaminski,          University of Warsaw,         Poland      (CPPh in RESPONS)
  Joanna Kauczor,           Linkoeping University,        Sweden      (Complex polarization propagator (CPP) module)
  Sheela Kirpekar,          Univ. of Southern Denmark,    Denmark     (Mass-velocity & Darwin integrals)
  Wim Klopper,              KIT Karlsruhe,                Germany     (R12 code in CC, SIRIUS, and ABACUS modules)
  Stefan Knecht,            ETH Zurich,                   Switzerland (Parallel CI and MCSCF)
  Rika Kobayashi,           Australian National Univ.,    Australia   (DIIS in CC, London in MCSCF)
  Henrik Koch,              NTNU,                         Norway      (CC module, Cholesky decomposition)
  Jacob Kongsted,           Univ. of Southern Denmark,    Denmark     (Polarizable embedding model, QM/MM)
  Andrea Ligabue,           University of Modena,         Italy       (CTOCD, AOSOPPA)
  Nanna H. List             Univ. of Southern Denmark,    Denmark     (Polarizable embedding model)
  Ola B. Lutnaes,           University of Oslo,           Norway      (DFT Hessian)
  Juan I. Melo,             University of Buenos Aires,   Argentina   (LRESC, Relativistic Effects on NMR Shieldings)
  Kurt V. Mikkelsen,        University of Copenhagen,     Denmark     (MC-SCRF and QM/MM)
  Rolf H. Myhre,            NTNU,                         Norway      (Cholesky, subsystems and ECC2)
  Christian Neiss,          Univ. Erlangen-Nuernberg,     Germany     (CCSD(R12))
  Christian B. Nielsen,     University of Copenhagen,     Denmark     (QM/MM)
  Patrick Norman,           Linkoeping University,        Sweden      (Cubic response and complex frequency response in RESPONS)
  Jeppe Olsen,              Aarhus University,            Denmark     (SIRIUS CI/density modules)
  Jogvan Magnus H. Olsen,   Univ. of Southern Denmark,    Denmark     (Polarizable embedding model, QM/MM)
  Anders Osted,             Copenhagen University,        Denmark     (QM/MM)
  Martin J. Packer,         University of Sheffield,      UK          (SOPPA)
  Filip Pawlowski,          Kazimierz Wielki University,  Poland      (CC3)
  Morten N. Pedersen,       Univ. of Southern Denmark,    Denmark     (Polarizable embedding model)
  Thomas B. Pedersen,       University of Oslo,           Norway      (Cholesky decomposition)
  Patricio F. Provasi,      University of Northeastern,   Argentina   (Analysis of coupling constants in localized orbitals)
  Zilvinas Rinkevicius,     KTH Stockholm,                Sweden      (open-shell DFT, ESR)
  Elias Rudberg,            KTH Stockholm,                Sweden      (DFT grid and basis info)
  Torgeir A. Ruden,         University of Oslo,           Norway      (Numerical derivatives in ABACUS)
  Kenneth Ruud,             UiT The Arctic U. of Norway,  Norway      (DALTON; ABACUS magnetic properties and much more)
  Pawel Salek,              KTH Stockholm,                Sweden      (DALTON; DFT code)
  Claire C. M. Samson       University of Karlsruhe       Germany     (Boys localization, r12 integrals in ERI)
  Alfredo Sanchez de Meras, University of Valencia,       Spain       (CC module, Cholesky decomposition)
  Trond Saue,               Paul Sabatier University,     France      (direct Fock matrix construction)
  Stephan P. A. Sauer,      University of Copenhagen,     Denmark     (SOPPA(CCSD), SOPPA prop., AOSOPPA, vibrational g-factors)
  Bernd Schimmelpfennig,    Forschungszentrum Karlsruhe,  Germany     (AMFI module)
  Kristian Sneskov,         Aarhus University,            Denmark     (Polarizable embedding model, QM/MM)
  Arnfinn H. Steindal,      UiT The Arctic U. of Norway,  Norway      (parallel QM/MM, Polarizable embedding model)
  Casper Steinmann,         Univ. of Southern Denmark,    Denmark     (QFIT, Polarizable embedding model)
  K. O. Sylvester-Hvid,     University of Copenhagen,     Denmark     (MC-SCRF)
  Peter R. Taylor,          VLSCI/Univ. of Melbourne,     Australia   (Symmetry handling ABACUS, integral transformation)
  Andrew M. Teale,          University of Nottingham,     England     (DFT-AC, DFT-D)
  David P. Tew,             University of Bristol,        England     (CCSD(R12))
  Olav Vahtras,             KTH Stockholm,                Sweden      (triplet response, spin-orbit, ESR, TDDFT, open-shell DFT)
  David J. Wilson,          La Trobe University,          Australia   (DFT Hessian and DFT magnetizabilities)
  Hans Agren,               KTH Stockholm,                Sweden      (SIRIUS module, RESPONS, MC-SCRF solvation model)
 --------------------------------------------------------------------------------

     Date and time (Linux)  : Sat Nov 17 19:06:25 2018
     Host name              : n-62-23-13                              

 * Work memory size             :  1280000000 =  9.537 gigabytes.

 * Directories for basis set searches:
   1) /zhome/37/3/129401/NH3NH4/CCSD/AIMD_SAMPLING/nh3_4h2o
   2) /zhome/9a/4/124800/source/dalton/build-mlcc/basis


Compilation information
-----------------------

 Who compiled             | rfaber
 Host                     | hpclogin1
 System                   | Linux-2.6.32-696.1.1.el6.x86_64
 CMake generator          | Unix Makefiles
 Processor                | x86_64
 64-bit integers          | ON
 MPI                      | OFF
 Fortran compiler         | /opt/intel/2016update2/compilers_and_libraries_201
                          | 6.2.181/linux/bin/intel64/ifort
 Fortran compiler version | ifort (IFORT) 16.0.2 20160204
 C compiler               | /opt/intel/2016update2/compilers_and_libraries_201
                          | 6.2.181/linux/bin/intel64/icc
 C compiler version       | icc (ICC) 16.0.2 20160204
 C++ compiler             | /opt/intel/2016update2/compilers_and_libraries_201
                          | 6.2.181/linux/bin/intel64/icpc
 C++ compiler version     | icpc (ICC) 16.0.2 20160204
 Static linking           | OFF
 Last Git revision        | bb4d1599ca5680a9f3980451fc8bbefdba436d59
 Git branch               | mlcc
 Configuration time       | 2017-06-13 16:11:03.928841


   Content of the .dal input file
 ----------------------------------

**DALTON
.RUN WAVE FUNCTIONS
*QMMM
.QMMM
**INTEGRALS
.DIPLEN
**WAVE FUNCTIONS
.CC
*PRINT
!To check the origin of excit
.PRINTL
   0 11
*SCF INP
.THRESH
1.0D-7
*CC INP
.CCSD
.THRLEQ
 1.0D-9
.THRENR
 1.0D-10
.FROIMP
4
0
.PRINT
 1
.MAX IT
 1200
.MAXRED
 1200
.MXLRV
1199
*CCSLV
.CCMM
.MXSLIT
200
.MXINIT
4 5
*CCEXCI
.NCCEXC
 15
.CVSEPARA
1
1
*CCLRSD
.DIPOLE
**END OF DALTON INPUT


   Content of the .mol file
 ----------------------------

ATOMBASIS


Atomtypes=4 Charge=0 Nosymm Angstrom
   7.00000    1    Basis=6-311G**
N          0.000000        0.000000        0.000000
   1.00000    3    Basis=6-311G**
H         -0.392239       -0.069071        0.976464
H         -0.525642       -0.719118       -0.525589
H          0.940300       -0.485220        0.268982
   8.00000    4    Basis=6-311G**
O         -1.377397       -2.548818       -1.310680
O         -1.707083       -0.922466        3.090904
O         -0.415793        2.320302       -1.345658
O          3.148116       -0.835921        2.012380
   1.00000    8    Basis=6-311G**
H         -0.634520       -2.958521       -0.841038
H         -2.176337       -2.471069       -0.740127
H         -0.998869       -0.651860        3.701155
H         -2.013378       -0.038949        2.805171
H          0.152622        2.306754       -2.138926
H         -0.108520        1.483318       -0.895520
H          2.722771        0.031543        1.964962
H          3.907969       -0.815534        2.647419


       *******************************************************************
       *********** Output from DALTON general input processing ***********
       *******************************************************************

 --------------------------------------------------------------------------------
   Overall default print level:    0
   Print level for DALTON.STAT:    1

    HERMIT 1- and 2-electron integral sections will be executed
    "Old" integral transformation used (limited to max 255 basis functions)
    Wave function sections will be executed (SIRIUS module)
 --------------------------------------------------------------------------------


 Changes of defaults for *QMMM  :
 --------------------------------

 +------------------+
 |  WORD: | CHANGE: |
 +------------------+
 |   QMMM |       T |
 +------------------+
 


   ****************************************************************************
   *************** Output of molecule and basis set information ***************
   ****************************************************************************


    The two title cards from your ".mol" input:
    ------------------------------------------------------------------------
 1:                                                                         
 2:                                                                         
    ------------------------------------------------------------------------

  Coordinates are entered in Angstrom and converted to atomic units.
          - Conversion factor : 1 bohr = 0.52917721 A

  Atomic type no.    1
  --------------------
  Nuclear charge:   7.00000
  Number of symmetry independent centers:    1
  Number of basis sets to read;    2
  The basis set is "6-311G**" from the basis set library.
  Basis set file used for this atomic type with Z =   7 :
     "/zhome/9a/4/124800/source/dalton/build-mlcc/basis/6-311G**"

  Info about the basis set file: your basis has no documentation.
  Basis set: 6-311G**                                                                        

  Atomic type no.    2
  --------------------
  Nuclear charge:   1.00000
  Number of symmetry independent centers:    3
  Number of basis sets to read;    2
  The basis set is "6-311G**" from the basis set library.
  Basis set file used for this atomic type with Z =   1 :
     "/zhome/9a/4/124800/source/dalton/build-mlcc/basis/6-311G**"

  Info about the basis set file: your basis has no documentation.
  Basis set: 6-311G**                                                                        

  Atomic type no.    3
  --------------------
  Nuclear charge:   8.00000
  Number of symmetry independent centers:    4
  Number of basis sets to read;    2
  The basis set is "6-311G**" from the basis set library.
  Basis set file used for this atomic type with Z =   8 :
     "/zhome/9a/4/124800/source/dalton/build-mlcc/basis/6-311G**"

  Info about the basis set file: your basis has no documentation.
  Basis set: 6-311G**                                                                        

  Atomic type no.    4
  --------------------
  Nuclear charge:   1.00000
  Number of symmetry independent centers:    8
  Number of basis sets to read;    2
  The basis set is "6-311G**" from the basis set library.
  Basis set file used for this atomic type with Z =   1 :
     "/zhome/9a/4/124800/source/dalton/build-mlcc/basis/6-311G**"

  Info about the basis set file: your basis has no documentation.
  Basis set: 6-311G**                                                                        


                         SYMGRP: Point group information
                         -------------------------------

@    Point group: C1 


                                 Isotopic Masses
                                 ---------------

                           N          14.003074
                           H           1.007825
                           H           1.007825
                           H           1.007825
                           O          15.994915
                           O          15.994915
                           O          15.994915
                           O          15.994915
                           H           1.007825
                           H           1.007825
                           H           1.007825
                           H           1.007825
                           H           1.007825
                           H           1.007825
                           H           1.007825
                           H           1.007825

                       Total mass:    89.068809 amu
                       Natural abundance:  98.514 %

 Center-of-mass coordinates (a.u.):   -0.100815   -0.768087    0.984830


  Atoms and basis sets
  --------------------

  Number of atom types :    4
  Total number of atoms:   16

  label    atoms   charge   prim   cont     basis
  ----------------------------------------------------------------------
  N           1    7.0000    31    18      [11s5p1d|4s3p1d]                                   
  H           3    1.0000     8     6      [5s1p|3s1p]                                        
  O           4    8.0000    31    18      [11s5p1d|4s3p1d]                                   
  H           8    1.0000     8     6      [5s1p|3s1p]                                        
  ----------------------------------------------------------------------
  total:     16   50.0000   243   156
  ----------------------------------------------------------------------
  Spherical harmonic basis used.

  Threshold for neglecting AO integrals:  1.00D-12


  Cartesian Coordinates (a.u.)
  ----------------------------

  Total number of coordinates:   48
  N       :     1  x   0.0000000000    2  y   0.0000000000    3  z   0.0000000000
  H       :     4  x  -0.7412242855    5  y  -0.1305252732    6  z   1.8452495309
  H       :     7  x  -0.9933194198    8  y  -1.3589360716    9  z  -0.9932192643
  H       :    10  x   1.7769094753   11  y  -0.9169329104   12  z   0.5083023126
  O       :    13  x  -2.6029030954   14  y  -4.8165679625   15  z  -2.4768262375
  O       :    16  x  -3.2259193426   17  y  -1.7432080996   18  z   5.8409620386
  O       :    19  x  -0.7857348947   20  y   4.3847353073   21  z  -2.5429250779
  O       :    22  x   5.9490770497   23  y  -1.5796617521   24  z   3.8028470594
  H       :    25  x  -1.1990690208   26  y  -5.5907944250   27  z  -1.5893314807
  H       :    28  x  -4.1126808857   29  y  -4.6696436460   30  z  -1.3986373277
  H       :    31  x  -1.8875888447   32  y  -1.2318368718   33  z   6.9941692962
  H       :    34  x  -3.8047330061   35  y  -0.0736029428   36  z   5.3010049238
  H       :    37  x   0.2884137806   38  y   4.3591332977   39  z  -4.0419843416
  H       :    40  x  -0.2050730791   41  y   2.8030647763   42  z  -1.6922875395
  H       :    43  x   5.1452914911   44  y   0.0596076312   45  z   3.7132400260
  H       :    46  x   7.3849911150   47  y  -1.5411359056   48  z   5.0028968481


   Interatomic separations (in Angstrom):
   --------------------------------------

            N           H           H           H           O           O     
            ------      ------      ------      ------      ------      ------
 N     :    0.000000
 H     :    1.054564    0.000000
 H     :    1.034250    1.642109    0.000000
 H     :    1.091766    1.565047    1.683757    0.000000
 O     :    3.179871    3.514358    2.165561    3.482167    0.000000
 O     :    3.649488    2.632101    3.810010    3.893978    4.704004    0.000000
 O     :    2.714310    3.331953    3.150024    3.509559    4.963289    5.645003
 O     :    3.828717    3.767664    4.466702    2.834939    5.870010    4.974300
 H     :    3.140511    3.422124    2.264131    3.135191    0.969684    4.555884
 H     :    3.374969    3.449534    2.416641    3.830838    0.984825    4.158746
 H     :    3.888600    2.851593    4.253685    3.945625    5.372171    0.973242
 H     :    3.453142    2.444007    3.710788    3.918626    4.862524    0.977784
 H     :    3.149510    3.955638    3.495540    3.770090    5.157861    6.421642
 H     :    1.736077    2.448414    2.271908    2.516194    4.247414    4.922883
 H     :    3.357909    3.269639    4.161553    2.514079    5.848031    4.669206
 H     :    4.790213    4.673445    5.452906    3.817477    6.826852    5.633553

            O           O           H           H           H           H     
            ------      ------      ------      ------      ------      ------
 O     :    0.000000
 O     :    5.825771    0.000000
 H     :    5.307396    5.191894    0.000000
 H     :    5.140371    6.212874    1.620183    0.000000
 H     :    5.885919    4.481442    5.107343    4.941755    0.000000
 H     :    5.034652    5.282490    4.870317    4.302430    1.485825    0.000000
 H     :    0.975988    6.006890    5.479710    5.496206    6.647246    5.885403
 H     :    0.998791    4.943726    4.473207    4.465108    5.145982    4.431805
 H     :    5.103842    0.967296    5.299577    6.130402    4.163173    4.810616
 H     :    6.668812    0.990488    6.115221    7.157866    5.021375    5.974138

            H           H           H           H     
            ------      ------      ------      ------
 H     :    0.000000
 H     :    1.514035    0.000000
 H     :    5.350154    4.278576    0.000000
 H     :    6.838159    5.828321    1.608720    0.000000


  Max    interatomic separation is    7.1579 Angstrom (   13.5264 Bohr)
  between atoms   16 and   10, "H     " and "H     ".

  Min HX interatomic separation is    0.9673 Angstrom (    1.8279 Bohr)

  Min YX interatomic separation is    2.7143 Angstrom (    5.1293 Bohr)


  Bond distances (Angstrom):
  --------------------------

                  atom 1     atom 2       distance
                  ------     ------       --------
  bond distance:  H          N            1.054564
  bond distance:  H          N            1.034250
  bond distance:  H          N            1.091766
  bond distance:  H          O            0.969684
  bond distance:  H          O            0.984825
  bond distance:  H          O            0.973242
  bond distance:  H          O            0.977784
  bond distance:  H          O            0.975988
  bond distance:  H          O            0.998791
  bond distance:  H          O            0.967296
  bond distance:  H          O            0.990488


  Bond angles (degrees):
  ----------------------

                  atom 1     atom 2     atom 3         angle
                  ------     ------     ------         -----
  bond angle:     H          N          H            103.649
  bond angle:     H          N          H             93.618
  bond angle:     H          N          H            104.709
  bond angle:     H          O          H            111.979
  bond angle:     H          O          H             99.204
  bond angle:     H          O          H            100.108
  bond angle:     H          O          H            110.506




 Principal moments of inertia (u*A**2) and principal axes
 --------------------------------------------------------

   IA     433.786452          0.565000   -0.229257    0.792601
   IB     514.335464          0.667935    0.691050   -0.276248
   IC     626.920021          0.484395   -0.685486   -0.543572


 Rotational constants
 --------------------

               A                   B                   C

           1165.0410            982.5864            806.1300 MHz
            0.038862            0.032776            0.026890 cm-1


@  Nuclear repulsion energy :  172.726004883994 Hartree


                     .---------------------------------------.
                     | Starting in Integral Section (HERMIT) |
                     `---------------------------------------'



 ***************************************************************************************
 ****************** Output from **INTEGRALS input processing (HERMIT) ******************
 ***************************************************************************************



    *************************************************************************
    ****************** Output from HERMIT input processing ******************
    *************************************************************************


 Default print level:        1

 * Nuclear model: Point charge

 Calculation of one- and two-electron Hamiltonian integrals.

 The following one-electron property integrals are calculated as requested:
          - overlap integrals
          - dipole length integrals

 Center of mass  (bohr):     -0.100814831682     -0.768087418550      0.984829838138
 Operator center (bohr):      0.000000000000      0.000000000000      0.000000000000
 Gauge origin    (bohr):      0.000000000000      0.000000000000      0.000000000000
 Dipole origin   (bohr):      0.000000000000      0.000000000000      0.000000000000
 
  *********************************** 
  QMMM electrostatic potential: 
  Multipole order                                    0
  Isotropic polarization  
  *********************************** 
 
  ---------------- 
  QMMM information 
  ---------------- 
 
  MM coordinates in au 
  -------------------- 
     1      7.539992      8.906563    -10.083049
     2      8.934975      8.822829    -11.187065
     3      6.726478     10.324543    -10.890645
     4     -8.459637     -6.235168      4.781663
     5     -7.203736     -7.679807      5.025806
     6     -8.064508     -4.872697      6.070930
     7     -8.755942     -3.143497      8.775266
     8     -7.670276     -3.300104     10.242695
     9    -10.575433     -3.574111      8.923774
    10     11.606543      8.272977      9.943389
    11     12.811154      9.723557     10.077919
    12     11.069046      8.260401      8.219940
    13     -5.579906      1.719105      1.348858
    14     -6.915865      2.775811      2.186398
    15     -4.963987      2.627056     -0.179242
    16     -0.056418     -2.342393     -5.969787
    17     -0.883545     -2.418165     -7.676655
    18     -1.245027     -3.068664     -4.682473
    19      8.229334      6.841831     -6.045258
    20      7.251261      7.554335     -4.779905
    21      8.135736      8.097790     -7.459456
    22     -2.148843     -7.302990    -10.990445
    23     -2.919865     -5.703396    -11.271058
    24     -1.668866     -8.239752    -12.647372
    25      4.080406     -4.289518     10.475907
    26      5.355688     -4.253647     11.912527
    27      2.822533     -5.410605     11.216101
    28    -10.454876      5.434671     -5.510383
    29    -12.103023      6.240862     -5.338149
    30    -10.490748      4.529938     -7.125991
    31     -7.429317     -0.127269     -7.524876
    32     -6.811433      0.779204     -6.071949
    33     -8.797023     -1.319033     -6.913521
    34     -4.377564      5.609790      8.729221
    35     -5.089896      6.527938     10.230618
    36     -5.871215      4.366556      8.353873
    37      9.958227      2.869963     -1.214363
    38     10.891677      3.831021     -2.439738
    39      8.270044      3.671005     -1.286329
    40      9.651863     10.930270     -0.995990
    41      9.714366     12.130056      0.366410
    42     10.062329     11.968416     -2.614893
    43      6.638536      8.942299      6.839928
    44      6.736671      9.733860      5.158754
    45      7.031820      6.995568      6.905505
    46     -1.634294      2.025922     11.645133
    47     -0.619286      1.343117     10.193113
    48     -2.618212      3.352094     10.839868
    49     -8.111736     11.678475     10.212664
    50     -6.682746     10.918537     11.190147
    51     -8.812611     13.207978     11.067763
    52     -9.613339      8.120040      1.419097
    53    -10.806650      8.999758      0.257356
    54     -7.860773      8.962221      1.467387
    55      9.677403     -3.453142      7.908305
    56      8.705354     -2.726518      9.220849
    57      8.568991     -4.832230      7.351668
    58     -1.283814     -9.282934      7.812778
    59     -0.024464    -10.832844      7.869929
    60     -0.355380     -7.794958      6.986484
    61      9.607585    -10.078219      7.555957
    62      8.652383    -11.438448      8.243928
    63     10.679491     -9.425145      8.873640
    64      1.054866      9.706854     -9.529787
    65      2.543452     10.297588     -8.633956
    66      1.285067      7.904745     -9.010913
    67      7.660957     -4.472541     -9.006533
    68      7.653383     -2.892487     -8.066139
    69      9.421642     -4.744248     -9.508476
    70      3.021336    -10.726979      3.469522
    71      4.209259     -9.353224      4.044403
    72      2.561172    -10.457831      1.759329
    73      1.418253     -0.559053      8.216949
    74      2.575940     -1.778856      9.004987
    75      2.434037      0.396457      6.952809
    76     -4.375311      9.238667    -10.613754
    77     -5.005588      9.193060     -8.749895
    78     -2.650740      9.869057    -10.607758
    79     -5.308955      2.613542     -3.674981
    80     -6.465348      3.972401     -3.547923
    81     -3.754663      3.560291     -3.946546
    82      6.488329     -4.516132     -0.405392
    83      6.063080     -3.365757      1.008178
    84      6.795931     -3.494926     -1.894358
    85      5.137510     -9.616922    -11.515239
    86      4.440494     -8.557107    -10.063712
    87      3.822088     -9.903418    -12.748431
    88      3.262506      2.825570      4.286929
    89      2.071255      4.218664      4.766054
    90      4.662005      3.321075      5.287813
    91      1.312180      4.527795     -7.926965
    92      0.163514      3.483115     -8.905973
    93      3.027689      3.823258     -8.519537
    94     -5.412667     -7.838255     -6.955838
    95     -4.483449     -6.560974     -5.978487
    96     -4.436510     -7.931575     -8.588662
    97      4.827022      8.955544     -2.350819
    98      3.377264     10.171821     -2.301458
    99      6.089119      9.818556     -1.321015
   100      4.665821     -0.668014     -4.793370
   101      3.153698     -1.643183     -5.228044
   102      4.270309      0.739701     -3.563997
   103      2.021878     -7.052471     -7.694780
   104      0.370080     -7.084013     -8.585799
   105      1.912911     -5.453888     -6.699287
   106    -10.736162      4.325617    -10.140382
   107    -10.823382      5.878849    -11.181763
   108     -9.096061      3.602341    -10.734342
   109      1.571215     -6.495344     -0.536227
   110      3.268629     -5.814175     -0.928770
   111      1.396287     -7.979883     -1.651082
   112     -0.393719      6.386501      5.532795
   113     -1.751449      5.962456      6.571349
   114      0.442122      7.785203      6.521997
   115     -3.600646     -2.397894    -10.123616
   116     -3.032028     -0.709210    -10.801935
   117     -5.125899     -1.886784     -9.110732
   118     -6.920910      9.400444     -6.206171
   119     -8.119749      8.131212     -5.858786
   120     -5.990379      9.527139     -4.556865
   121    -10.841846     -6.124126     -2.212102
   122     -9.299960     -5.341481     -1.410550
   123    -11.998680     -6.534592     -0.628313
   124      0.649293    -10.846393     -2.887949
   125     -0.903002    -11.876001     -2.957187
   126      0.783167    -10.368591     -4.727800
   127    -11.137987    -10.191548     -5.617653
   128    -10.547327     -8.904936     -4.408759
   129     -9.557600    -11.231759     -5.853825
   130     -3.008045      9.158605     -2.500873
   131     -2.289976      7.457345     -2.624620
   132     -3.510773      9.080291     -0.687847
   133      1.711455     10.427178      8.664134
   134      2.257045      9.916206     10.418270
   135      3.373418     10.066917      7.837962
   136     10.655869     -7.620357      1.967086
   137     11.858802     -7.155206      3.322586
   138      9.050915     -6.739054      2.083499
   139     -4.145904      9.396525      2.617378
   140     -2.337714      8.834640      3.139009
   141     -4.795796     10.651054      3.915076
   142      6.054272      2.507430     -8.488412
   143      5.799146      0.987497     -7.206068
   144      7.179111      3.692366     -7.650430
   145    -11.387059      3.723333      3.821255
   146    -10.784021      5.468843      3.205352
   147    -12.130311      3.054616      2.299438
   148      4.726917      3.834158     -1.026093
   149      4.126637      5.490454     -1.368997
   150      4.457114      3.515943      0.781511
   151    -10.309010     -7.560817    -10.399618
   152     -8.777056     -6.787860     -9.732913
   153    -10.874115     -8.366521     -8.829483
   154     -6.578044     -3.596612      0.525270
   155     -6.715244     -1.756652      0.786581
   156     -7.111742     -4.389108      2.201249
   157      8.422970      1.208058     10.750179
   158     10.076889      1.589101     11.477219
   159      7.404123      1.239961     12.409028
   160      7.651522      4.107061      6.890289
   161      9.261739      4.006170      5.971092
   162      7.832762      2.988001      8.542397
   163      0.405518     -5.483819      5.418415
   164     -0.988667     -4.240734      5.243073
   165      0.599805     -5.876411      3.607697
   166     -5.661869    -10.551333      5.737464
   167     -6.709299    -10.866643      7.347284
   168     -3.963644    -10.064392      6.526419
   169     -8.383522      2.175596      7.564766
   170     -9.241120      2.352068      5.836037
   171     -8.566828      0.353205      7.914509
   172      6.094395     -6.792647      5.830164
   173      4.686430     -6.085965      6.802462
   174      7.157052     -8.013129      6.864642
   175     11.428400     -1.912165     -5.122012
   176     11.837424     -3.519876     -4.320844
   177     10.446888     -1.008587     -3.800432
 
  MM charges 
  ---------- 
     1     -0.674440
     2      0.337220
     3      0.337220
     4     -0.674440
     5      0.337220
     6      0.337220
     7     -0.674440
     8      0.337220
     9      0.337220
    10     -0.674440
    11      0.337220
    12      0.337220
    13     -0.674440
    14      0.337220
    15      0.337220
    16     -0.674440
    17      0.337220
    18      0.337220
    19     -0.674440
    20      0.337220
    21      0.337220
    22     -0.674440
    23      0.337220
    24      0.337220
    25     -0.674440
    26      0.337220
    27      0.337220
    28     -0.674440
    29      0.337220
    30      0.337220
    31     -0.674440
    32      0.337220
    33      0.337220
    34     -0.674440
    35      0.337220
    36      0.337220
    37     -0.674440
    38      0.337220
    39      0.337220
    40     -0.674440
    41      0.337220
    42      0.337220
    43     -0.674440
    44      0.337220
    45      0.337220
    46     -0.674440
    47      0.337220
    48      0.337220
    49     -0.674440
    50      0.337220
    51      0.337220
    52     -0.674440
    53      0.337220
    54      0.337220
    55     -0.674440
    56      0.337220
    57      0.337220
    58     -0.674440
    59      0.337220
    60      0.337220
    61     -0.674440
    62      0.337220
    63      0.337220
    64     -0.674440
    65      0.337220
    66      0.337220
    67     -0.674440
    68      0.337220
    69      0.337220
    70     -0.674440
    71      0.337220
    72      0.337220
    73     -0.674440
    74      0.337220
    75      0.337220
    76     -0.674440
    77      0.337220
    78      0.337220
    79     -0.674440
    80      0.337220
    81      0.337220
    82     -0.674440
    83      0.337220
    84      0.337220
    85     -0.674440
    86      0.337220
    87      0.337220
    88     -0.674440
    89      0.337220
    90      0.337220
    91     -0.674440
    92      0.337220
    93      0.337220
    94     -0.674440
    95      0.337220
    96      0.337220
    97     -0.674440
    98      0.337220
    99      0.337220
   100     -0.674440
   101      0.337220
   102      0.337220
   103     -0.674440
   104      0.337220
   105      0.337220
   106     -0.674440
   107      0.337220
   108      0.337220
   109     -0.674440
   110      0.337220
   111      0.337220
   112     -0.674440
   113      0.337220
   114      0.337220
   115     -0.674440
   116      0.337220
   117      0.337220
   118     -0.674440
   119      0.337220
   120      0.337220
   121     -0.674440
   122      0.337220
   123      0.337220
   124     -0.674440
   125      0.337220
   126      0.337220
   127     -0.674440
   128      0.337220
   129      0.337220
   130     -0.674440
   131      0.337220
   132      0.337220
   133     -0.674440
   134      0.337220
   135      0.337220
   136     -0.674440
   137      0.337220
   138      0.337220
   139     -0.674440
   140      0.337220
   141      0.337220
   142     -0.674440
   143      0.337220
   144      0.337220
   145     -0.674440
   146      0.337220
   147      0.337220
   148     -0.674440
   149      0.337220
   150      0.337220
   151     -0.674440
   152      0.337220
   153      0.337220
   154     -0.674440
   155      0.337220
   156      0.337220
   157     -0.674440
   158      0.337220
   159      0.337220
   160     -0.674440
   161      0.337220
   162      0.337220
   163     -0.674440
   164      0.337220
   165      0.337220
   166     -0.674440
   167      0.337220
   168      0.337220
   169     -0.674440
   170      0.337220
   171      0.337220
   172     -0.674440
   173      0.337220
   174      0.337220
   175     -0.674440
   176      0.337220
   177      0.337220
 
  MM isotropic polarizabilities in au 
  ----------------------------------- 
     1      5.739350
     2      2.308390
     3      2.308390
     4      5.739350
     5      2.308390
     6      2.308390
     7      5.739350
     8      2.308390
     9      2.308390
    10      5.739350
    11      2.308390
    12      2.308390
    13      5.739350
    14      2.308390
    15      2.308390
    16      5.739350
    17      2.308390
    18      2.308390
    19      5.739350
    20      2.308390
    21      2.308390
    22      5.739350
    23      2.308390
    24      2.308390
    25      5.739350
    26      2.308390
    27      2.308390
    28      5.739350
    29      2.308390
    30      2.308390
    31      5.739350
    32      2.308390
    33      2.308390
    34      5.739350
    35      2.308390
    36      2.308390
    37      5.739350
    38      2.308390
    39      2.308390
    40      5.739350
    41      2.308390
    42      2.308390
    43      5.739350
    44      2.308390
    45      2.308390
    46      5.739350
    47      2.308390
    48      2.308390
    49      5.739350
    50      2.308390
    51      2.308390
    52      5.739350
    53      2.308390
    54      2.308390
    55      5.739350
    56      2.308390
    57      2.308390
    58      5.739350
    59      2.308390
    60      2.308390
    61      5.739350
    62      2.308390
    63      2.308390
    64      5.739350
    65      2.308390
    66      2.308390
    67      5.739350
    68      2.308390
    69      2.308390
    70      5.739350
    71      2.308390
    72      2.308390
    73      5.739350
    74      2.308390
    75      2.308390
    76      5.739350
    77      2.308390
    78      2.308390
    79      5.739350
    80      2.308390
    81      2.308390
    82      5.739350
    83      2.308390
    84      2.308390
    85      5.739350
    86      2.308390
    87      2.308390
    88      5.739350
    89      2.308390
    90      2.308390
    91      5.739350
    92      2.308390
    93      2.308390
    94      5.739350
    95      2.308390
    96      2.308390
    97      5.739350
    98      2.308390
    99      2.308390
   100      5.739350
   101      2.308390
   102      2.308390
   103      5.739350
   104      2.308390
   105      2.308390
   106      5.739350
   107      2.308390
   108      2.308390
   109      5.739350
   110      2.308390
   111      2.308390
   112      5.739350
   113      2.308390
   114      2.308390
   115      5.739350
   116      2.308390
   117      2.308390
   118      5.739350
   119      2.308390
   120      2.308390
   121      5.739350
   122      2.308390
   123      2.308390
   124      5.739350
   125      2.308390
   126      2.308390
   127      5.739350
   128      2.308390
   129      2.308390
   130      5.739350
   131      2.308390
   132      2.308390
   133      5.739350
   134      2.308390
   135      2.308390
   136      5.739350
   137      2.308390
   138      2.308390
   139      5.739350
   140      2.308390
   141      2.308390
   142      5.739350
   143      2.308390
   144      2.308390
   145      5.739350
   146      2.308390
   147      2.308390
   148      5.739350
   149      2.308390
   150      2.308390
   151      5.739350
   152      2.308390
   153      2.308390
   154      5.739350
   155      2.308390
   156      2.308390
   157      5.739350
   158      2.308390
   159      2.308390
   160      5.739350
   161      2.308390
   162      2.308390
   163      5.739350
   164      2.308390
   165      2.308390
   166      5.739350
   167      2.308390
   168      2.308390
   169      5.739350
   170      2.308390
   171      2.308390
   172      5.739350
   173      2.308390
   174      2.308390
   175      5.739350
   176      2.308390
   177      2.308390


     ************************************************************************
     ************************** Output from HERINT **************************
     ************************************************************************



                      Nuclear contribution to dipole moments
                      --------------------------------------

                 au               Debye          C m (/(10**-30)

      x     -3.67192494        -9.33310167       -31.13187613
      y    -38.32922240       -97.42315950      -324.96868051
      z     50.64186524       128.71877400       429.35961385


  Time used in HUCKEL     is       0.11 seconds
  Time used in POPOVLP    is       0.11 seconds
  Time used in DIPLEN     is       0.16 seconds
  Time used in QUADRUP    is       0.18 seconds

 Threshold for neglecting two-electron integrals:  1.00D-12
 HERMIT - Number of two-electron integrals written:    24464423 ( 32.6% )
 HERMIT - Megabytes written:                            280.135

  Time used in TWOINT     is      12.91 seconds
  Total CPU  time used in HERMIT:  13.66 seconds
  Total wall time used in HERMIT:   5.86 seconds


                        .----------------------------------.
                        | End of Integral Section (HERMIT) |
                        `----------------------------------'



                   .--------------------------------------------.
                   | Starting in Wave Function Section (SIRIUS) |
                   `--------------------------------------------'

NCCEXCI for singlet:   15
 CCSD_INPUT: core-val requested
 Requested number of core orbs per sym
                     1
 Indices of requested core orbs
                     1

 *** Output from Huckel module :

     Using EWMO model:          T
     Using EHT  model:          F
     Number of Huckel orbitals each symmetry:   36

 EWMO - Energy Weighted Maximum Overlap - is a Huckel type method,
        which normally is better than Extended Huckel Theory.
 Reference: Linderberg and Ohrn, Propagators in Quantum Chemistry (Wiley, 1973)

 Huckel EWMO eigenvalues for symmetry :  1
          -20.684705     -20.684669     -20.684635     -20.684529     -15.672887
           -1.700992      -1.608536      -1.601746      -1.593981      -1.448435
           -0.809357      -0.795663      -0.786456      -0.768305      -0.733280
           -0.709475      -0.698371      -0.682070      -0.678115      -0.666780
           -0.616692      -0.615853      -0.609225      -0.589123      -0.518335
           -0.251184      -0.241378      -0.236239      -0.225040      -0.186997
           -0.175266      -0.172771      -0.172131      -0.166810      -0.154201
           -0.151566

 **********************************************************************
 *SIRIUS* a direct, restricted step, second order MCSCF program       *
 **********************************************************************

 
     Date and time (Linux)  : Sat Nov 17 19:06:31 2018
     Host name              : n-62-23-13                              

 Title lines from ".mol" input file:
                                                                             
                                                                             

 Print level on unit LUPRI =   2 is   0
 Print level on unit LUW4  =   2 is  11

@    (Integral direct) CC calculation.

@    This is a combination run starting with
@              a restricted, closed shell Hartree-Fock calculation


 Initial molecular orbitals are obtained according to
 ".MOSTART EWMO  " input option

@    QM part is embedded in an environment :

@         Model: QMMM

     Wave function specification
     ============================

     For the specification of the Coupled Cluster: see later.

@    Wave function type        --- CC ---
@    Number of closed shell electrons          50
@    Number of electrons in active shells       0
@    Total charge of the molecule               0

@    Spin multiplicity and 2 M_S                1         0
@    Total number of symmetries                 1 (point group: C1 )
@    Reference state symmetry                   1 (irrep name : A  )

     Orbital specifications
     ======================
@    Abelian symmetry species          All |    1
@                                          |  A  
                                       --- |  ---
@    Occupied SCF orbitals              25 |   25
@    Secondary orbitals                131 |  131
@    Total number of orbitals          156 |  156
@    Number of basis functions         156 |  156

     Optimization information
     ========================
@    Number of configurations                 1
@    Number of orbital rotations           3275
     ------------------------------------------
@    Total number of variables             3276

     Maximum number of Fock   iterations      0
     Maximum number of DIIS   iterations     60
     Maximum number of QC-SCF iterations     60
     Threshold for SCF convergence     1.00D-07


 Changes of defaults for CC:
 ---------------------------


 -Implicit frozen core calculation
 -Excitation energies calculated
 -One-photon absorption strengths will be calculated
 -Oscillator strengths calculated
  
* Read MO coefficients from SIRIUS.RST with label "NEWORB  " and header info: 17Nov18  REORTHO 


 ***********************************************
 ***** DIIS acceleration of SCF iterations *****
 ***********************************************

 C1-DIIS algorithm; max error vectors =    8
 -----------------------------------------------------------------------------

 *** DIIS iteration number    1
 RDSUPM called. NFMAT, ISYMDM(1:NFMAT)                     1
                     1

Calculating AOSUPINT
     (Precalculated two-electron integrals are transformed to P-supermatrix elements.
      Threshold for discarding integrals :  1.00D-12 )
  CPU  time used in FORMSUP    is   3.16 seconds
  WALL time used in FORMSUP    is   6.37 seconds

 ITDIIS, energy, error norm, change in energy, scr.thr., difden:
@ DIIS iter.   1    -359.913603610        3.83240D+00   -3.60D+02  -20    F

 (DIIS_RED) Control Parameters C2DIIS =         F NEVC =    1


 (DIIS_RED) B matrix:

               Column   1
       1      14.68726128
    ==== End of matrix output ====

 DIIS C vector; C2DIIS = F, LAMBDA = -1.47D+01
    1.000000
* Read MO coefficients from SIRIUS.RST with label "NEWORB  " and header info: 17Nov18  DIIS   1
      Virial theorem: -V/T =      1.998238
@      MULPOP N      -0.37; H       0.16; H       0.16; H       0.16; O      -0.63; O      -0.65; O      -0.84; O      -0.64; H       0.34; H       0.33; 
@             H       0.33; H       0.34; H       0.33; H       0.33; H       0.33; H       0.32; 
   1  Level shift: doubly occupied orbital energies shifted by -2.00D-01

 DIIS Fock eigenvalues in symmetry 1
      -20.72714      -20.72584      -20.71523      -20.56211      -15.96518
       -1.56389       -1.55565       -1.53340       -1.48751       -1.42310
       -0.95036       -0.93344       -0.92814       -0.91978       -0.89157
       -0.88352       -0.80613       -0.79901       -0.78798       -0.77096
       -0.75559       -0.75433       -0.74061       -0.71261       -0.68236
        0.09044        0.13603        0.16296        0.19979        0.21004
        0.23938        0.24856        0.26434        0.29543        0.31379
        0.36497        0.41333        0.44515        0.50811        0.53303
        0.53956        0.56267        0.57308        0.60431        0.61452
        0.61887        0.64000        0.81282        0.84964        0.88370
        0.95144        0.96249        0.96781        0.99048        1.00467
        1.01397        1.06077        1.08524        1.10186        1.11481
        1.13162        1.15118        1.17656        1.25712        1.27324
        1.29243        1.30432        1.36933        1.38570        1.42786
        1.44139        1.47582        1.49219        1.50050        1.53078
        1.56498        1.60295        1.62165        1.67322        1.68065
        1.70816        1.72121        1.77920        1.80495        1.83788
        1.84723        1.88195        1.90110        1.93494        2.02911
        2.13348        2.14864        2.20109        2.26644        2.27014
        2.28612        2.32613        2.33825        2.44351        2.49003
        2.54708        2.57061        2.57847        2.65104        2.70111
        2.71304        2.73154        2.75074        2.76447        2.78200
        2.79782        2.82326        2.92884        2.96507        3.28351
        3.32004        3.38926        3.43322        3.45459        3.47087
        3.49956        3.52281        3.52462        3.55201        3.60433
        3.63781        3.64787        3.71993        3.93787        4.00011
        4.01283        4.07266        4.16223        4.16730        4.21970
        4.25478        4.54367        4.77539        4.98083        5.29227
        5.37849        5.41255        5.45437        5.66640        5.71682
        5.73873        5.83542        6.05588        6.12905        6.16639
        6.19606       36.74030       51.54625       51.54901       51.56717
       51.73861
 Time used in FCKEIG, thr_jaco:   1.92D-01  5.10D-02  1.67D-04
 CPU and wall times used in FCKEIG, THR_FCKEIG:   1.92D-01  5.10D-02  3.83D-02
 -----------------------------------------------------------------------------

 *** DIIS iteration number    2
 RDSUPM called. NFMAT, ISYMDM(1:NFMAT)                     1
                     1

 ITDIIS, energy, error norm, change in energy, scr.thr., difden:
@ DIIS iter.   2    -360.719932307        9.09754D-01   -8.06D-01  -20    F

 (DIIS_RED) Control Parameters C2DIIS =         F NEVC =    2


 (DIIS_RED) B matrix:

               Column   1     Column   2
       1      14.68726128
       2       0.96177539     0.82765143
    ==== End of matrix output ====

 DIIS C vector; C2DIIS = F, LAMBDA = -8.26D-01
   -0.009868    1.009868
* Read MO coefficients from SIRIUS.RST with label "NEWORB  " and header info: 17Nov18  DIIS   2
      Virial theorem: -V/T =      2.004114
@      MULPOP N      -0.63; H       0.20; H       0.23; H       0.21; O      -0.65; O      -0.53; O      -0.67; O      -0.57; H       0.34; H       0.35; 
@             H       0.28; H       0.27; H       0.26; H       0.33; H       0.30; H       0.27; 
   2  Level shift: doubly occupied orbital energies shifted by -5.00D-02

 DIIS Fock eigenvalues in symmetry 1
      -20.67146      -20.63259      -20.62660      -20.59265      -15.51162
       -1.39991       -1.39695       -1.39307       -1.36642       -1.14885
       -0.76960       -0.75088       -0.75027       -0.73971       -0.66739
       -0.65484       -0.65166       -0.64060       -0.62131       -0.61278
       -0.58615       -0.57954       -0.57819       -0.55172       -0.47832
        0.13729        0.16931        0.19885        0.22257        0.23938
        0.26330        0.28209        0.30807        0.32541        0.35257
        0.38744        0.47085        0.50953        0.54610        0.56215
        0.58344        0.59982        0.60541        0.64278        0.65664
        0.66180        0.70804        0.90191        0.91325        0.93621
        0.96846        0.97112        0.98009        0.98853        1.02891
        1.04263        1.09790        1.10464        1.11534        1.12560
        1.15472        1.18080        1.27103        1.30223        1.31942
        1.33342        1.37632        1.41909        1.43029        1.48028
        1.49208        1.51259        1.53583        1.55978        1.57927
        1.60075        1.65258        1.68447        1.71725        1.73571
        1.77998        1.80451        1.85557        1.87627        1.90516
        1.91466        1.95225        1.97931        2.03280        2.10508
        2.20668        2.23646        2.25883        2.29688        2.31667
        2.35271        2.39447        2.40648        2.51392        2.58615
        2.61756        2.62981        2.63638        2.73862        2.76560
        2.78923        2.80747        2.81417        2.84601        2.85939
        2.92366        2.94382        3.05704        3.07540        3.41625
        3.41929        3.45625        3.46750        3.47928        3.48931
        3.49418        3.51997        3.52720        3.56084        3.63569
        3.66994        3.67543        3.68211        3.95443        3.96205
        4.03893        4.11072        4.19068        4.20239        4.22107
        4.24204        4.69524        4.97663        5.17120        5.29099
        5.29541        5.37919        5.47477        5.66810        5.72286
        5.73674        5.73797        6.07484        6.10321        6.15188
        6.19944       37.03938       51.48465       51.49355       51.50151
       51.54213
 Time used in FCKEIG, thr_jaco:   1.10D-01  2.80D-02  3.97D-05
 CPU and wall times used in FCKEIG, THR_FCKEIG:   1.10D-01  2.80D-02  9.10D-03
 -----------------------------------------------------------------------------

 *** DIIS iteration number    3
 RDSUPM called. NFMAT, ISYMDM(1:NFMAT)                     1
                     1

 ITDIIS, energy, error norm, change in energy, scr.thr., difden:
@ DIIS iter.   3    -360.778536248        3.25912D-01   -5.86D-02  -20    F

 (DIIS_RED) Control Parameters C2DIIS =         F NEVC =    3


 (DIIS_RED) B matrix:

               Column   1     Column   2     Column   3
       1      14.68726128
       2       0.96177539     0.82765143
       3       0.58071747     0.07779501     0.10621836
    ==== End of matrix output ====

 DIIS C vector; C2DIIS = F, LAMBDA = -8.73D-02
   -0.036481    0.055715    0.980766
* Read MO coefficients from SIRIUS.RST with label "NEWORB  " and header info: 17Nov18  DIIS   3
      Virial theorem: -V/T =      2.001973
@      MULPOP N      -0.57; H       0.18; H       0.22; H       0.18; O      -0.72; O      -0.58; O      -0.76; O      -0.61; H       0.37; H       0.38; 
@             H       0.31; H       0.29; H       0.31; H       0.38; H       0.33; H       0.29; 
   3  Level shift: doubly occupied orbital energies shifted by -2.50D-02

 DIIS Fock eigenvalues in symmetry 1
      -20.57061      -20.56863      -20.54445      -20.51339      -15.60583
       -1.36133       -1.35713       -1.33174       -1.32982       -1.15685
       -0.73255       -0.71069       -0.70461       -0.69333       -0.64799
       -0.61239       -0.60925       -0.60025       -0.59758       -0.58209
       -0.53438       -0.53219       -0.51289       -0.50893       -0.47289
        0.13927        0.17207        0.20200        0.22680        0.24116
        0.26594        0.28362        0.30763        0.32768        0.35261
        0.38984        0.46945        0.50719        0.55439        0.57384
        0.58998        0.60756        0.61330        0.65293        0.66401
        0.66849        0.70695        0.89729        0.91652        0.94404
        0.98311        0.98503        0.99033        1.00903        1.03434
        1.04991        1.10847        1.11066        1.13081        1.13920
        1.16151        1.18824        1.26643        1.31057        1.32513
        1.33863        1.37633        1.42617        1.44127        1.49360
        1.50171        1.52643        1.54505        1.56847        1.58848
        1.61114        1.66017        1.69363        1.72849        1.74437
        1.78661        1.80645        1.85814        1.87806        1.91256
        1.91949        1.95994        1.98381        2.02995        2.10368
        2.21762        2.23061        2.26860        2.31669        2.32668
        2.36392        2.40556        2.41869        2.52531        2.58861
        2.62667        2.63850        2.64526        2.74274        2.77165
        2.79613        2.81334        2.82069        2.85116        2.86446
        2.90072        2.92505        3.03753        3.07199        3.40179
        3.43443        3.43505        3.49776        3.50096        3.51543
        3.52088        3.54567        3.55018        3.57767        3.65408
        3.69515        3.69741        3.72184        3.98203        4.00296
        4.05713        4.12618        4.21079        4.22044        4.26221
        4.26994        4.65084        4.92434        5.12740        5.31833
        5.37001        5.40492        5.49105        5.69063        5.75268
        5.76491        5.79813        6.10146        6.17447        6.17527
        6.21863       36.92381       51.53112       51.53383       51.56556
       51.61680
 Time used in FCKEIG, thr_jaco:   1.07D-01  2.80D-02  1.42D-05
 CPU and wall times used in FCKEIG, THR_FCKEIG:   1.07D-01  2.80D-02  3.26D-03
 -----------------------------------------------------------------------------

 *** DIIS iteration number    4
 RDSUPM called. NFMAT, ISYMDM(1:NFMAT)                     1
                     1

 ITDIIS, energy, error norm, change in energy, scr.thr., difden:
@ DIIS iter.   4    -360.786080247        1.24427D-01   -7.54D-03  -20    F

 (DIIS_RED) Control Parameters C2DIIS =         F NEVC =    4


 (DIIS_RED) B matrix:

               Column   1     Column   2     Column   3     Column   4
       1      14.68726128
       2       0.96177539     0.82765143
       3       0.58071747     0.07779501     0.10621836
       4      -0.01323129     0.07954654    -0.01058513     0.01548205
    ==== End of matrix output ====

 DIIS C vector; C2DIIS = F, LAMBDA = -3.82D-03
   -0.000294   -0.100402    0.200818    0.899878
* Read MO coefficients from SIRIUS.RST with label "NEWORB  " and header info: 17Nov18  DIIS   4
      Virial theorem: -V/T =      2.002838
@      MULPOP N      -0.64; H       0.20; H       0.24; H       0.20; O      -0.74; O      -0.58; O      -0.74; O      -0.62; H       0.39; H       0.39; 
@             H       0.31; H       0.29; H       0.31; H       0.38; H       0.33; H       0.29; 
   4  Level shift: doubly occupied orbital energies shifted by -1.25D-02

 DIIS Fock eigenvalues in symmetry 1
      -20.56874      -20.56698      -20.54328      -20.53979      -15.55625
       -1.35457       -1.34878       -1.33086       -1.32291       -1.13321
       -0.72342       -0.70254       -0.69582       -0.68918       -0.62645
       -0.60354       -0.59894       -0.58997       -0.58206       -0.57097
       -0.52275       -0.52133       -0.50852       -0.49779       -0.45073
        0.13888        0.17081        0.20128        0.22559        0.24087
        0.26534        0.28369        0.30892        0.32805        0.35458
        0.39100        0.47249        0.51094        0.55261        0.57300
        0.58857        0.60613        0.61229        0.65084        0.66145
        0.66707        0.70946        0.90230        0.91997        0.94562
        0.98166        0.98362        0.98992        1.00588        1.03510
        1.04973        1.10750        1.11063        1.12833        1.13515
        1.16147        1.18816        1.27117        1.30871        1.32482
        1.33809        1.37941        1.42568        1.43926        1.49135
        1.49962        1.52349        1.54268        1.56603        1.58655
        1.60876        1.65886        1.69074        1.72754        1.74234
        1.78533        1.80947        1.85948        1.87898        1.91091
        1.92099        1.95717        1.98602        2.03462        2.10706
        2.21445        2.23558        2.26659        2.31045        2.32376
        2.36097        2.40233        2.41476        2.52533        2.59201
        2.62378        2.63693        2.64333        2.74472        2.77051
        2.79482        2.81308        2.81907        2.85149        2.86544
        2.91177        2.93481        3.04746        3.07669        3.41321
        3.43187        3.44531        3.49584        3.49822        3.50961
        3.51178        3.53911        3.54285        3.57523        3.65136
        3.69227        3.69398        3.70936        3.97740        3.99084
        4.05403        4.12377        4.20793        4.21804        4.25466
        4.26206        4.66739        4.94370        5.14451        5.31366
        5.34702        5.39851        5.48804        5.68628        5.74918
        5.75827        5.77719        6.09421        6.15433        6.16958
        6.21409       36.96017       51.51974       51.52422       51.55785
       51.57528
 Time used in FCKEIG, thr_jaco:   9.50D-02  2.50D-02  5.44D-06
 CPU and wall times used in FCKEIG, THR_FCKEIG:   9.50D-02  2.50D-02  1.24D-03
 -----------------------------------------------------------------------------

 *** DIIS iteration number    5
 RDSUPM called. NFMAT, ISYMDM(1:NFMAT)                     1
                     1

 ITDIIS, energy, error norm, change in energy, scr.thr., difden:
@ DIIS iter.   5    -360.787224645        2.27246D-02   -1.14D-03  -20    F

 (DIIS_RED) Control Parameters C2DIIS =         F NEVC =    5


 (DIIS_RED) B matrix:

               Column   1     Column   2     Column   3     Column   4     Column   5
       1      14.68726128
       2       0.96177539     0.82765143
       3       0.58071747     0.07779501     0.10621836
       4      -0.01323129     0.07954654    -0.01058513     0.01548205
       5       0.01052848     0.00639033     0.00455107     0.00078228     0.00051641
    ==== End of matrix output ====

 DIIS C vector; C2DIIS = F, LAMBDA = -2.03D-04
    0.001511    0.016167   -0.092145   -0.195872    1.270338
* Read MO coefficients from SIRIUS.RST with label "NEWORB  " and header info: 17Nov18  DIIS   5
      Virial theorem: -V/T =      2.002495
@      MULPOP N      -0.63; H       0.19; H       0.24; H       0.19; O      -0.75; O      -0.59; O      -0.76; O      -0.63; H       0.39; H       0.39; 
@             H       0.32; H       0.30; H       0.32; H       0.38; H       0.34; H       0.30; 

 DIIS Fock eigenvalues in symmetry 1
      -20.55559      -20.55408      -20.52705      -20.52613      -15.54281
       -1.34196       -1.33622       -1.31701       -1.31025       -1.12062
       -0.71139       -0.69031       -0.68403       -0.67617       -0.61413
       -0.59161       -0.58559       -0.57757       -0.56918       -0.55847
       -0.50937       -0.50779       -0.49394       -0.48414       -0.43800
        0.13858        0.17043        0.20105        0.22537        0.24061
        0.26509        0.28349        0.30885        0.32787        0.35454
        0.39105        0.47234        0.51074        0.55225        0.57306
        0.58814        0.60578        0.61192        0.65067        0.66098
        0.66666        0.70940        0.90248        0.92030        0.94583
        0.98224        0.98379        0.99035        1.00698        1.03535
        1.04961        1.10727        1.11074        1.12830        1.13512
        1.16168        1.18834        1.27119        1.30861        1.32477
        1.33798        1.37933        1.42550        1.43912        1.49127
        1.49909        1.52371        1.54186        1.56551        1.58606
        1.60861        1.65839        1.69014        1.72740        1.74173
        1.78460        1.80929        1.85905        1.87862        1.91006
        1.92081        1.95634        1.98594        2.03460        2.10684
        2.21373        2.23538        2.26592        2.31040        2.32282
        2.36027        2.40162        2.41413        2.52530        2.59196
        2.62298        2.63634        2.64268        2.74438        2.76965
        2.79401        2.81247        2.81802        2.85095        2.86509
        2.91160        2.93470        3.04737        3.07675        3.41332
        3.43196        3.44542        3.49590        3.49867        3.51015
        3.51218        3.54022        3.54277        3.57518        3.65134
        3.69217        3.69396        3.71052        3.97740        3.99209
        4.05388        4.12367        4.20790        4.21807        4.25546
        4.26245        4.66774        4.94394        5.14474        5.31402
        5.34939        5.39895        5.48867        5.68637        5.74955
        5.75837        5.77907        6.09414        6.15601        6.16943
        6.21415       36.96109       51.52034       51.52463       51.55900
       51.57892
 Time used in FCKEIG, thr_jaco:   9.20D-02  2.40D-02  9.93D-07
 CPU and wall times used in FCKEIG, THR_FCKEIG:   9.20D-02  2.40D-02  2.27D-04
 -----------------------------------------------------------------------------

 *** DIIS iteration number    6
 RDSUPM called. NFMAT, ISYMDM(1:NFMAT)                     1
                     1

 ITDIIS, energy, error norm, change in energy, scr.thr., difden:
@ DIIS iter.   6    -360.787309227        5.32571D-03   -8.46D-05  -20    F

 (DIIS_RED) Control Parameters C2DIIS =         F NEVC =    6


 (DIIS_RED) B matrix:

               Column   1     Column   2     Column   3     Column   4     Column   5     Column   6
       1      14.68726128
       2       0.96177539     0.82765143
       3       0.58071747     0.07779501     0.10621836
       4      -0.01323129     0.07954654    -0.01058513     0.01548205
       5       0.01052848     0.00639033     0.00455107     0.00078228     0.00051641
       6      -0.00143950    -0.00025594     0.00034090     0.00008937     0.00007298     0.00002836
    ==== End of matrix output ====

 DIIS C vector; C2DIIS = F, LAMBDA = -2.05D-05
    0.000135    0.003594   -0.005725   -0.023390   -0.077573    1.102959
* Read MO coefficients from SIRIUS.RST with label "NEWORB  " and header info: 17Nov18  DIIS   6
      Virial theorem: -V/T =      2.002585
@      MULPOP N      -0.63; H       0.19; H       0.24; H       0.19; O      -0.75; O      -0.60; O      -0.76; O      -0.63; H       0.39; H       0.39; 
@             H       0.32; H       0.30; H       0.32; H       0.38; H       0.34; H       0.30; 

 DIIS Fock eigenvalues in symmetry 1
      -20.55586      -20.55403      -20.52821      -20.52709      -15.54499
       -1.34200       -1.33612       -1.31721       -1.31055       -1.12129
       -0.71144       -0.69045       -0.68446       -0.67647       -0.61477
       -0.59189       -0.58598       -0.57770       -0.56963       -0.55888
       -0.50920       -0.50771       -0.49404       -0.48430       -0.43861
        0.13851        0.17038        0.20098        0.22529        0.24054
        0.26501        0.28342        0.30873        0.32777        0.35440
        0.39095        0.47216        0.51051        0.55218        0.57295
        0.58809        0.60573        0.61180        0.65054        0.66085
        0.66650        0.70918        0.90214        0.91997        0.94552
        0.98206        0.98371        0.99036        1.00690        1.03511
        1.04950        1.10719        1.11054        1.12814        1.13491
        1.16154        1.18820        1.27087        1.30858        1.32468
        1.33778        1.37904        1.42531        1.43897        1.49116
        1.49901        1.52356        1.54161        1.56534        1.58602
        1.60844        1.65815        1.69000        1.72731        1.74167
        1.78434        1.80903        1.85884        1.87840        1.90984
        1.92063        1.95618        1.98574        2.03431        2.10658
        2.21356        2.23496        2.26583        2.31017        2.32251
        2.36020        2.40135        2.41393        2.52506        2.59167
        2.62283        2.63625        2.64259        2.74415        2.76936
        2.79386        2.81228        2.81777        2.85075        2.86493
        2.91095        2.93411        3.04675        3.07639        3.41260
        3.43202        3.44471        3.49575        3.49829        3.50994
        3.51191        3.53986        3.54281        3.57481        3.65140
        3.69201        3.69367        3.71024        3.97728        3.99175
        4.05392        4.12328        4.20793        4.21773        4.25518
        4.26225        4.66665        4.94279        5.14367        5.31412
        5.34883        5.39881        5.48812        5.68642        5.74901
        5.75822        5.77851        6.09397        6.15546        6.16946
        6.21360       36.95896       51.52011       51.52465       51.55805
       51.57778
 Time used in FCKEIG, thr_jaco:   9.80D-02  2.60D-02  2.33D-07
 CPU and wall times used in FCKEIG, THR_FCKEIG:   9.80D-02  2.60D-02  5.33D-05
 -----------------------------------------------------------------------------

 *** DIIS iteration number    7
 RDSUPM called. NFMAT, ISYMDM(1:NFMAT)                     1
                     1

 ITDIIS, energy, error norm, change in energy, scr.thr., difden:
@ DIIS iter.   7    -360.787312988        2.18579D-03   -3.76D-06  -20    F

 (DIIS_RED) Control Parameters C2DIIS =         F NEVC =    7


 (DIIS_RED) B matrix:

               Column   1     Column   2     Column   3     Column   4     Column   5     Column   6
       1      14.68726128
       2       0.96177539     0.82765143
       3       0.58071747     0.07779501     0.10621836
       4      -0.01323129     0.07954654    -0.01058513     0.01548205
       5       0.01052848     0.00639033     0.00455107     0.00078228     0.00051641
       6      -0.00143950    -0.00025594     0.00034090     0.00008937     0.00007298     0.00002836
       7       0.00086943     0.00007022     0.00003499     0.00000736     0.00001996     0.00000053

               Column   7
       7       0.00000478
    ==== End of matrix output ====

 DIIS C vector; C2DIIS = F, LAMBDA = -1.21D-06
   -0.000212   -0.001628    0.010980    0.022703   -0.173427    0.243099    0.898485
* Read MO coefficients from SIRIUS.RST with label "NEWORB  " and header info: 17Nov18  DIIS   7
      Virial theorem: -V/T =      2.002570
@      MULPOP N      -0.63; H       0.19; H       0.24; H       0.19; O      -0.75; O      -0.60; O      -0.76; O      -0.63; H       0.40; H       0.40; 
@             H       0.32; H       0.30; H       0.32; H       0.38; H       0.34; H       0.30; 

 DIIS Fock eigenvalues in symmetry 1
      -20.55581      -20.55408      -20.52756      -20.52678      -15.54421
       -1.34197       -1.33611       -1.31695       -1.31044       -1.12103
       -0.71144       -0.69043       -0.68441       -0.67625       -0.61459
       -0.59194       -0.58578       -0.57771       -0.56947       -0.55884
       -0.50918       -0.50764       -0.49376       -0.48413       -0.43837
        0.13852        0.17038        0.20102        0.22532        0.24056
        0.26503        0.28343        0.30878        0.32779        0.35445
        0.39103        0.47224        0.51060        0.55219        0.57308
        0.58810        0.60574        0.61183        0.65062        0.66086
        0.66652        0.70925        0.90226        0.92011        0.94563
        0.98217        0.98373        0.99039        1.00706        1.03521
        1.04953        1.10722        1.11063        1.12821        1.13501
        1.16162        1.18827        1.27097        1.30861        1.32472
        1.33785        1.37912        1.42537        1.43905        1.49125
        1.49902        1.52370        1.54161        1.56536        1.58602
        1.60853        1.65820        1.69000        1.72742        1.74167
        1.78436        1.80908        1.85890        1.87847        1.90984
        1.92069        1.95617        1.98582        2.03442        2.10670
        2.21356        2.23508        2.26583        2.31029        2.32254
        2.36020        2.40137        2.41393        2.52520        2.59176
        2.62282        2.63629        2.64261        2.74419        2.76939
        2.79387        2.81230        2.81777        2.85079        2.86501
        2.91117        2.93432        3.04698        3.07649        3.41285
        3.43201        3.44496        3.49580        3.49846        3.51007
        3.51206        3.54013        3.54282        3.57491        3.65140
        3.69207        3.69376        3.71050        3.97731        3.99203
        4.05392        4.12339        4.20794        4.21784        4.25538
        4.26238        4.66707        4.94319        5.14404        5.31410
        5.34923        5.39886        5.48831        5.68640        5.74919
        5.75825        5.77889        6.09400        6.15584        6.16945
        6.21376       36.95972       51.52015       51.52461       51.55836
       51.57842
 Time used in FCKEIG, thr_jaco:   8.90D-02  2.30D-02  9.55D-08
 CPU and wall times used in FCKEIG, THR_FCKEIG:   8.90D-02  2.30D-02  2.19D-05
 -----------------------------------------------------------------------------

 *** DIIS iteration number    8
 RDSUPM called. NFMAT, ISYMDM(1:NFMAT)                     1
                     1

 ITDIIS, energy, error norm, change in energy, scr.thr., difden:
@ DIIS iter.   8    -360.787313361        3.68995D-04   -3.73D-07  -20    F

 (DIIS_RED) Control Parameters C2DIIS =         F NEVC =    8


 (DIIS_RED) B matrix:

               Column   1     Column   2     Column   3     Column   4     Column   5     Column   6
       1      14.68726128
       2       0.96177539     0.82765143
       3       0.58071747     0.07779501     0.10621836
       4      -0.01323129     0.07954654    -0.01058513     0.01548205
       5       0.01052848     0.00639033     0.00455107     0.00078228     0.00051641
       6      -0.00143950    -0.00025594     0.00034090     0.00008937     0.00007298     0.00002836
       7       0.00086943     0.00007022     0.00003499     0.00000736     0.00001996     0.00000053
       8      -0.00002383     0.00000073    -0.00000872     0.00000634     0.00000087     0.00000121

               Column   7     Column   8
       7       0.00000478
       8       0.00000004     0.00000014
    ==== End of matrix output ====

 DIIS C vector; C2DIIS = F, LAMBDA = -5.94D-08
    0.000019    0.000159   -0.001404   -0.003174    0.030388   -0.094802   -0.103914    1.172728
* Read MO coefficients from SIRIUS.RST with label "NEWORB  " and header info: 17Nov18  DIIS   8
      Virial theorem: -V/T =      2.002586
@      MULPOP N      -0.63; H       0.19; H       0.24; H       0.19; O      -0.75; O      -0.60; O      -0.76; O      -0.63; H       0.40; H       0.40; 
@             H       0.32; H       0.30; H       0.32; H       0.38; H       0.34; H       0.30; 

 DIIS Fock eigenvalues in symmetry 1
      -20.55581      -20.55405      -20.52762      -20.52682      -15.54426
       -1.34197       -1.33609       -1.31697       -1.31046       -1.12103
       -0.71143       -0.69043       -0.68442       -0.67627       -0.61461
       -0.59196       -0.58580       -0.57771       -0.56947       -0.55887
       -0.50917       -0.50764       -0.49378       -0.48414       -0.43839
        0.13852        0.17038        0.20101        0.22532        0.24056
        0.26503        0.28343        0.30878        0.32778        0.35444
        0.39102        0.47223        0.51059        0.55219        0.57306
        0.58810        0.60574        0.61182        0.65062        0.66086
        0.66651        0.70925        0.90225        0.92010        0.94561
        0.98216        0.98372        0.99039        1.00705        1.03520
        1.04953        1.10722        1.11062        1.12821        1.13501
        1.16162        1.18826        1.27097        1.30861        1.32472
        1.33783        1.37912        1.42536        1.43904        1.49124
        1.49902        1.52369        1.54159        1.56535        1.58602
        1.60852        1.65819        1.68999        1.72741        1.74167
        1.78435        1.80908        1.85889        1.87846        1.90983
        1.92069        1.95616        1.98581        2.03442        2.10668
        2.21355        2.23506        2.26583        2.31029        2.32252
        2.36019        2.40135        2.41392        2.52518        2.59175
        2.62282        2.63629        2.64261        2.74418        2.76937
        2.79386        2.81229        2.81775        2.85079        2.86500
        2.91115        2.93431        3.04696        3.07648        3.41283
        3.43202        3.44494        3.49579        3.49843        3.51005
        3.51205        3.54011        3.54282        3.57489        3.65140
        3.69206        3.69375        3.71048        3.97730        3.99200
[...]

 Principal values of diagonalized transition strength matrix:

             a.u.               
 1      -0.00000000
 2      -0.00000000
 3       0.00001055

 Principal axis of diagonalized transition strength matrix:


               Column   1     Column   2     Column   3
       1      -0.36470271     0.54644086     0.75391930
       2       0.74254976     0.65920851    -0.11859168
       3      -0.56179336     0.51657189    -0.64617467
    ==== End of matrix output ====


 CCSD   oscillator strength matrix for state nr. 13 of symmetry 1
 CCSD  excitation energy:15.15185351


               Column   1     Column   2     Column   3
       1     6.057767D-05  -9.517265D-06  -5.193518D-05
       2    -9.517265D-06   1.473416D-06   8.187310D-06
       3    -5.193518D-05   8.187310D-06   4.449015D-05
    ==== End of matrix output ====

 Principal values of diagonalized oscillator strength matrix:

             a.u.               
 1      -0.00000005
 2       0.00000000
 3       0.00010659

 Principal axis of diagonalized oscillator strength matrix:


               Column   1     Column   2     Column   3
       1      -0.36470271     0.54644086     0.75391930
       2       0.74254976     0.65920851    -0.11859168
       3      -0.56179336     0.51657189    -0.64617467
    ==== End of matrix output ====


 CCSD  Transition strength matrix for state nr. 14 of symmetry 1
 CCSD  excitation energy:15.25199127

 Gauge: length

               Column   1     Column   2     Column   3
       1     1.504825D-05  -1.506436D-05   5.626903D-05
       2    -1.506436D-05   1.507832D-05  -5.632863D-05
       3     5.626903D-05  -5.632863D-05   2.104033D-04
    ==== End of matrix output ====

 Principal values of diagonalized transition strength matrix:

             a.u.               
 1      -0.00000000
 2       0.00000000
 3       0.00024053

 Principal axis of diagonalized transition strength matrix:


               Column   1     Column   2     Column   3
       1       0.14754765     0.95690494     0.25012520
       2       0.96455710    -0.08327862    -0.25038825
       3       0.21876767    -0.27820424     0.93527702
    ==== End of matrix output ====


 CCSD   oscillator strength matrix for state nr. 14 of symmetry 1
 CCSD  excitation energy:15.25199127


               Column   1     Column   2     Column   3
       1       0.00015301    -0.00015317     0.00057214
       2      -0.00015317     0.00015332    -0.00057275
       3       0.00057214    -0.00057275     0.00213938
    ==== End of matrix output ====

 Principal values of diagonalized oscillator strength matrix:

             a.u.               
 1      -0.00000002
 2      -0.00000000
 3       0.00244572

 Principal axis of diagonalized oscillator strength matrix:


               Column   1     Column   2     Column   3
       1       0.14754765     0.95690494     0.25012520
       2       0.96455710    -0.08327862    -0.25038825
       3       0.21876767    -0.27820424     0.93527702
    ==== End of matrix output ====


 CCSD  Transition strength matrix for state nr. 15 of symmetry 1
 CCSD  excitation energy:15.28855584

 Gauge: length

               Column   1     Column   2     Column   3
       1     1.639077D-04   3.713444D-05   3.630136D-05
       2     3.713444D-05   8.402270D-06   8.228894D-06
       3     3.630136D-05   8.228894D-06   8.037886D-06
    ==== End of matrix output ====

 Principal values of diagonalized transition strength matrix:

             a.u.               
 1      -0.00000001
 2      -0.00000000
 3       0.00018036

 Principal axis of diagonalized transition strength matrix:


               Column   1     Column   2     Column   3
       1      -0.11192628    -0.28052258     0.95329932
       2       0.90190054     0.37407592     0.21596901
       3      -0.41719051     0.88395378     0.21113454
    ==== End of matrix output ====


 CCSD   oscillator strength matrix for state nr. 15 of symmetry 1
 CCSD  excitation energy:15.28855584


               Column   1     Column   2     Column   3
       1       0.00167061     0.00037849     0.00037000
       2       0.00037849     0.00008564     0.00008387
       3       0.00037000     0.00008387     0.00008193
    ==== End of matrix output ====

 Principal values of diagonalized oscillator strength matrix:

             a.u.               
 1      -0.00000013
 2      -0.00000000
 3       0.00183830

 Principal axis of diagonalized oscillator strength matrix:


               Column   1     Column   2     Column   3
       1      -0.11192628    -0.28052258     0.95329932
       2       0.90190054     0.37407592     0.21596901
       3      -0.41719051     0.88395378     0.21113454
    ==== End of matrix output ====

  Total time for    135 linear response residues:      71.42 seconds.
  

 *******************************************************************************
 *******************************************************************************
 *                                                                             *
 *                                                                             *
 *                   SUMMARY OF COUPLED CLUSTER CALCULATION                    *
 *                                                                             *
 *                                                                             *
 *******************************************************************************
 *******************************************************************************

                                                                                
                                                                                
            Total SCF   energy:                  -360.7873133795                
            Total MP2   energy:                  -361.8887654631                
            Total CCSD  energy:                  -361.9288329881                
                                                                                
                                                                                
            Total SCF   energy:                  -360.7873133795                
            Total RSTAR energy:                  -361.9288329881                
            Total CCSD  energy:                  -361.9289762878                
                                                                                
                                                                                
            Total SCF   energy:                  -360.7873133795                
            Total RSTAR energy:                  -361.9289762878                
            Total CCSD  energy:                  -361.9289778124                
                                                                                
                                                                                
            Total SCF   energy:                  -360.7873133795                
            Total RSTAR energy:                  -361.9289778124                
            Total CCSD  energy:                  -361.9289779347                
                                                                                
                                                                                
            Total SCF   energy:                  -360.7873133795                
            Total RSTAR energy:                  -361.9289779347                
            Total CCSD  energy:                  -361.9289779402                
                                                                                
                                                                                
            Total SCF   energy:                  -360.7873133795                
            Total RSTAR energy:                  -361.9289779402                
            Total CCSD  energy:                  -361.9289779406                
            CCSD Total  energy:                  -362.3473408782                
            CCSD E(QM/MM)     :                    -0.4134443059                
                                                                                
                                                                                
                                                                                
 +=============================================================================+
 |  sym. | Exci.  |        CCSD       Excitation energies            | ||T1||  |
 |(spin, |        +------------------------------------------------------------+
 | spat) |        |     Hartree    |       eV.      |     cm-1       |    %    |
 +=============================================================================+
 | ^1A   |    1   |    14.8120219  |     403.05562  |   3250863.013  |  87.96  |
 | ^1A   |    2   |    14.8681669  |     404.58340  |   3263185.414  |  88.26  |
 | ^1A   |    3   |    14.9230276  |     406.07624  |   3275225.955  |  88.57  |
 | ^1A   |    4   |    14.9727688  |     407.42977  |   3286142.888  |  88.07  |
 | ^1A   |    5   |    14.9841522  |     407.73952  |   3288641.249  |  87.70  |
 | ^1A   |    6   |    15.0063083  |     408.34242  |   3293503.957  |  87.73  |
 | ^1A   |    7   |    15.0381375  |     409.20854  |   3300489.649  |  87.58  |
 | ^1A   |    8   |    15.0500086  |     409.53157  |   3303095.065  |  87.61  |
 | ^1A   |    9   |    15.0617725  |     409.85168  |   3305676.927  |  87.73  |
 | ^1A   |   10   |    15.0895927  |     410.60871  |   3311782.772  |  87.59  |
 | ^1A   |   11   |    15.1043459  |     411.01016  |   3315020.710  |  87.91  |
 | ^1A   |   12   |    15.1221210  |     411.49385  |   3318921.910  |  87.57  |
 | ^1A   |   13   |    15.1518535  |     412.30291  |   3325447.433  |  87.58  |
 | ^1A   |   14   |    15.2519913  |     415.02779  |   3347425.130  |  87.79  |
 | ^1A   |   15   |    15.2885558  |     416.02277  |   3355450.127  |  87.06  |
 +=============================================================================+
                                                                                
                                                                                
     Total energies in Hartree:                                                 
             1 ^1A       -347.1218746888                                        
             2 ^1A       -347.0657296951                                        
             3 ^1A       -347.0108689571                                        
             4 ^1A       -346.9611277460                                        
             5 ^1A       -346.9497443776                                        
             6 ^1A       -346.9275882482                                        
             7 ^1A       -346.8957590951                                        
             8 ^1A       -346.8838879431                                        
             9 ^1A       -346.8721241171                                        
            10 ^1A       -346.8443038387                                        
            11 ^1A       -346.8295507070                                        
            12 ^1A       -346.8117755306                                        
            13 ^1A       -346.7820430620                                        
            14 ^1A       -346.6819053072                                        
            15 ^1A       -346.6453407298                                        
                                                                                
                                                                                
 +=============================================================================+
 |  sym. | Exci.  |        CCSD       Length   Gauge Oscillator Strength       |
 |(spin, |        +------------------------------------------------------------+
 | spat) |        | Dipole Strength(a.u.) | Oscillator strength  | Direction   |
 +=============================================================================+
 | ^1A   |    1   |        0.0015210      |      0.0150195       |  (Y,Z)      |
 | ^1A   |    2   |        0.0039356      |      0.0390098       |  (Y,Z)      |
 | ^1A   |    3   |        0.0033776      |      0.0336023       |  (Y,Z)      |
 | ^1A   |    4   |        0.0012764      |      0.0127411       |  (Y,Z)      |
 | ^1A   |    5   |        0.0004780      |      0.0047753       |  (Y,Z)      |
 | ^1A   |    6   |        0.0007154      |      0.0071565       |  (Y,Z)      |
 | ^1A   |    7   |        0.0001864      |      0.0018688       |  (Y,Z)      |
 | ^1A   |    8   |        0.0000551      |      0.0005532       |  (Y,Z)      |
 | ^1A   |    9   |        0.0005190      |      0.0052115       |  (Y,Z)      |
 | ^1A   |   10   |        0.0002794      |      0.0028105       |  (Y,Z)      |
 | ^1A   |   11   |        0.0008914      |      0.0089759       |  (Y,Z)      |
 | ^1A   |   12   |        0.0000711      |      0.0007170       |  (Y,Z)      |
 | ^1A   |   13   |        0.0000105      |      0.0001065       |  (Y,Z)      |
 | ^1A   |   14   |        0.0002405      |      0.0024457       |  (Y,Z)      |
 | ^1A   |   15   |        0.0001803      |      0.0018382       |  (Y,Z)      |
 +=============================================================================+

  1 a.u. =        27.21138 eV.  
  1 a.u. =    219474.62934 cm-1.
  

 *******************************************************************************
 *******************************************************************************
 *                                                                             *
 *                                                                             *
 *                      END OF COUPLED CLUSTER CALCULATION                     *
 *                                                                             *
 *                                                                             *
 *******************************************************************************
 *******************************************************************************


 CPU and wall time for CC :  247980.569   85990.509

 
     Date and time (Linux)  : Sun Nov 18 19:02:12 2018
     Host name              : n-62-23-13                              


                      .-------------------------------------.
                      | End of Coupled Cluster Section (CC) |
                      `-------------------------------------'

  Total CPU  time used in DALTON:  69 hours  0 minutes 39 seconds
  Total wall time used in DALTON:  23 hours 55 minutes 47 seconds

 
     Date and time (Linux)  : Sun Nov 18 19:02:12 2018
     Host name              : n-62-23-13                              
  

 +---------------------------------------------------------+ 
 | List of selected calculated molecular properties (a.u.) | 
 +---------------------------------------------------------+ 

  Properties are read from unit number                      4

 CCSD       properties :
 #  1 1 CCSD/MM  Ground state Energy =    -362.3473408782
 #  2 1 E_QM/MM  Ground state Energy =      -0.4134443059
 #  3 1 Sy: 1 Sp: 1 Exc:  1 E_tot:   -347.1218746888 w:     14.8120218835 E_grs:   -361.9338965723
 #  4 1 Exctot   Excited state Energy =    -347.1218746888
 #  5 1 Sy: 1 Sp: 1 Exc:  2 E_tot:   -347.0657296951 w:     14.8681668772 E_grs:   -361.9338965723
 #  6 1 Exctot   Excited state Energy =    -347.0657296951
 #  7 1 Sy: 1 Sp: 1 Exc:  3 E_tot:   -347.0108689571 w:     14.9230276153 E_grs:   -361.9338965723
 #  8 1 Exctot   Excited state Energy =    -347.0108689571
 #  9 1 Sy: 1 Sp: 1 Exc:  4 E_tot:   -346.9611277460 w:     14.9727688263 E_grs:   -361.9338965723
 # 10 1 Exctot   Excited state Energy =    -346.9611277460
 # 11 1 Sy: 1 Sp: 1 Exc:  5 E_tot:   -346.9497443776 w:     14.9841521947 E_grs:   -361.9338965723
 # 12 1 Exctot   Excited state Energy =    -346.9497443776
 # 13 1 Sy: 1 Sp: 1 Exc:  6 E_tot:   -346.9275882482 w:     15.0063083241 E_grs:   -361.9338965723
 # 14 1 Exctot   Excited state Energy =    -346.9275882482
 # 15 1 Sy: 1 Sp: 1 Exc:  7 E_tot:   -346.8957590951 w:     15.0381374772 E_grs:   -361.9338965723
 # 16 1 Exctot   Excited state Energy =    -346.8957590951
 # 17 1 Sy: 1 Sp: 1 Exc:  8 E_tot:   -346.8838879431 w:     15.0500086293 E_grs:   -361.9338965723
 # 18 1 Exctot   Excited state Energy =    -346.8838879431
 # 19 1 Sy: 1 Sp: 1 Exc:  9 E_tot:   -346.8721241171 w:     15.0617724552 E_grs:   -361.9338965723
 # 20 1 Exctot   Excited state Energy =    -346.8721241171
 # 21 1 Sy: 1 Sp: 1 Exc: 10 E_tot:   -346.8443038387 w:     15.0895927336 E_grs:   -361.9338965723
 # 22 1 Exctot   Excited state Energy =    -346.8443038387
 # 23 1 Sy: 1 Sp: 1 Exc: 11 E_tot:   -346.8295507070 w:     15.1043458653 E_grs:   -361.9338965723
 # 24 1 Exctot   Excited state Energy =    -346.8295507070
 # 25 1 Sy: 1 Sp: 1 Exc: 12 E_tot:   -346.8117755306 w:     15.1221210417 E_grs:   -361.9338965723
 # 26 1 Exctot   Excited state Energy =    -346.8117755306
 # 27 1 Sy: 1 Sp: 1 Exc: 13 E_tot:   -346.7820430620 w:     15.1518535103 E_grs:   -361.9338965723
 # 28 1 Exctot   Excited state Energy =    -346.7820430620
 # 29 1 Sy: 1 Sp: 1 Exc: 14 E_tot:   -346.6819053072 w:     15.2519912651 E_grs:   -361.9338965723
 # 30 1 Exctot   Excited state Energy =    -346.6819053072
 # 31 1 Sy: 1 Sp: 1 Exc: 15 E_tot:   -346.6453407298 w:     15.2885558425 E_grs:   -361.9338965723
 # 32 1 Exctot   Excited state Energy =    -346.6453407298
 # 33 1 |<O|XDIPLEN |i(14.812022)>| =     0.02347075
 # 35 1 |<O|XDIPLEN |i(14.868167)>| =     0.05363467
 # 37 1 |<O|XDIPLEN |i(14.923028)>| =     0.02678638
 # 39 1 |<O|XDIPLEN |i(14.972769)>| =     0.00643750
 # 41 1 |<O|XDIPLEN |i(14.984152)>| =     0.01535513
 # 43 1 |<O|XDIPLEN |i(15.006308)>| =     0.01201012
 # 45 1 |<O|XDIPLEN |i(15.038137)>| =     0.00550759
 # 47 1 |<O|XDIPLEN |i(15.050009)>| =     0.00556830
 # 49 1 |<O|XDIPLEN |i(15.061772)>| =     0.00723568
 # 51 1 |<O|XDIPLEN |i(15.089593)>| =     0.00030236
 # 53 1 |<O|XDIPLEN |i(15.104346)>| =     0.00577985
 # 55 1 |<O|XDIPLEN |i(15.122121)>| =     0.00331093
 # 57 1 |<O|XDIPLEN |i(15.151854)>| =     0.00244889
 # 59 1 |<O|XDIPLEN |i(15.251991)>| =     0.00387921
 # 61 1 |<O|XDIPLEN |i(15.288556)>| =     0.01280265
 # 63 1 |<O|YDIPLEN |i(14.812022)>| =     0.02255428
 # 65 1 |<O|YDIPLEN |i(14.868167)>| =     0.01213436
 # 67 1 |<O|YDIPLEN |i(14.923028)>| =     0.02332275
 # 69 1 |<O|YDIPLEN |i(14.972769)>| =     0.03463830
 # 71 1 |<O|YDIPLEN |i(14.984152)>| =     0.00592444
 # 73 1 |<O|YDIPLEN |i(15.006308)>| =     0.00459538
 # 75 1 |<O|YDIPLEN |i(15.038137)>| =     0.00516558
 # 77 1 |<O|YDIPLEN |i(15.050009)>| =     0.00480063
 # 79 1 |<O|YDIPLEN |i(15.061772)>| =     0.01849090
 # 81 1 |<O|YDIPLEN |i(15.089593)>| =     0.01336116
 # 83 1 |<O|YDIPLEN |i(15.104346)>| =     0.02731886
 # 85 1 |<O|YDIPLEN |i(15.122121)>| =     0.00772729
 # 87 1 |<O|YDIPLEN |i(15.151854)>| =     0.00038192
 # 89 1 |<O|YDIPLEN |i(15.251991)>| =     0.00388308
 # 91 1 |<O|YDIPLEN |i(15.288556)>| =     0.00289867
 # 93 1 |<O|ZDIPLEN |i(14.812022)>| =     0.02148118
 # 95 1 |<O|ZDIPLEN |i(14.868167)>| =     0.03019355
 # 97 1 |<O|ZDIPLEN |i(14.923028)>| =     0.04600109
 # 99 1 |<O|ZDIPLEN |i(14.972769)>| =     0.00593107
 #101 1 |<O|ZDIPLEN |i(14.984152)>| =     0.01439303
 #103 1 |<O|ZDIPLEN |i(15.006308)>| =     0.02345189
 #105 1 |<O|ZDIPLEN |i(15.038137)>| =     0.01137489
 #107 1 |<O|ZDIPLEN |i(15.050009)>| =     0.00104198
 #109 1 |<O|ZDIPLEN |i(15.061772)>| =     0.01116908
 #111 1 |<O|ZDIPLEN |i(15.089593)>| =     0.01003821
 #113 1 |<O|ZDIPLEN |i(15.104346)>| =     0.01056706
 #115 1 |<O|ZDIPLEN |i(15.122121)>| =     0.00066913
 #117 1 |<O|ZDIPLEN |i(15.151854)>| =     0.00209867
 #119 1 |<O|ZDIPLEN |i(15.251991)>| =     0.01450528
 #121 1 |<O|ZDIPLEN |i(15.288556)>| =     0.00283512

 THE_END   
